/*--------------------------------*- C++ -*----------------------------------*\
| =========                 |                                                 |
| \\      /  F ield         | OpenFOAM: The Open Source CFD Toolbox           |
|  \\    /   O peration     | Version:  2506                                  |
|   \\  /    A nd           | Website:  www.openfoam.com                      |
|    \\/     M anipulation  |                                                 |
\*---------------------------------------------------------------------------*/
FoamFile
{
    version     2.0;
    format      ascii;
    arch        "LSB;label=32;scalar=64";
    class       volScalarField;
    location    "0.0563527";
    object      nut;
}
// * * * * * * * * * * * * * * * * * * * * * * * * * * * * * * * * * * * * * //

dimensions      [0 2 -1 0 0 0 0];

internalField   nonuniform List<scalar> 
3975
(
0.00520688
0.00571944
0.00447633
0.00737261
0.00738317
0.00273088
0.00691212
0.00668513
0.00751957
0.0074401
0.00754525
0.00297323
0.00739282
0.00237081
0.00735871
0.00472042
0.00496508
0.0049658
0.00408639
0.00320017
0.00238914
0.00252865
0.00430895
0.00538348
0.00485338
0.00747516
0.0015551
0.00370423
0.00579857
0.00398416
0.00667812
0.00348917
0.00281929
0.00365208
0.0031102
0.00345791
0.00399203
0.00610861
0.00389144
0.00414066
0.0039505
0.00423585
0.00421641
0.00723623
0.00530503
0.00729568
0.00735323
0.00730368
0.00211844
0.00261676
0.00361952
0.00672382
0.00265517
0.00178834
0.00205699
0.00205948
0.00291382
0.00181326
0.00218052
0.00244621
0.00231806
0.00134618
0.00209904
0.00229286
0.00606533
0.00302295
0.00350454
0.00657725
0.00260017
0.000551175
0.000820242
0.000181513
0.000703793
0.00483809
0.00524361
0.00419765
0.00525537
0.00352234
0.00378605
0.00425268
0.00745709
0.00621398
0.00505323
0.00369353
0.00722523
0.0023882
0.00392749
0.00515757
0.00538795
0.00333744
0.00706157
0.00626875
0.0027767
0.00432278
0.000792742
0.00520357
0.00413526
0.00100773
0.0039347
0.00135631
0.00740589
0.00108298
0.00223776
0.00169168
0.00719303
0.00241014
0.00431038
0.00377578
0.00456175
0.00237245
0.00378279
0.00429704
0.00412645
0.00418621
0.00352911
0.00347758
0.00351385
0.00354746
0.00177776
0.00112105
0.00634612
0.00225398
0.0036829
0.00351816
0.00163052
0.00200131
0.0034625
0.00290725
0.00281264
0.00281571
0.00291586
0.00291421
0.00399119
0.00411034
0.00412711
0.00369515
0.00279192
0.00426658
0.00268608
0.00742287
0.00491586
0.00751014
0.0065548
0.00692818
0.00188835
0.00674747
0.00725787
0.0028773
0.0047159
0.00286463
0.00189136
0.00340988
0.00362763
0.00307968
0.00112731
0.00131826
0.00439404
0.00477691
0.00673463
0.00357544
0.00748539
0.00704715
0.003331
0.00267365
0.00636807
0.00312017
0.00375706
0.000347134
0.00277278
0.00707697
0.00532061
0.00740499
0.00333964
0.00373877
0.000564727
0.00593076
0.00373983
0.00179211
0.00154573
0.00480823
0.00551436
0.00364228
0.00190081
0.00190955
0.00270973
0.00616102
0.00326197
0.00325973
0.00383696
0.00267455
0.00272092
0.00478376
0.00270704
0.0035673
0.00281209
0.00271219
0.00174073
0.00739186
0.00649538
0.00686321
0.00292093
0.00735743
0.00575016
0.00704349
0.00660734
0.00670702
0.00328829
0.000928445
0.00645208
0.00029833
0.00720858
0.00198183
0.00388334
0.00415096
0.00250084
0.00676657
0.005294
0.00407131
0.00618624
0.0023804
0.00440214
0.00247734
0.00710006
0.00220463
0.00443039
0.00321974
0.000292677
0.00720043
0.00191554
0.00719376
0.00282408
0.00600807
0.00705431
0.0038963
0.00713783
0.00702306
0.00178697
0.00356853
0.00175544
0.00120352
0.00744751
0.000760361
0.00663378
0.00233817
0.00418299
0.000496419
0.00239656
0.00133487
0.00104352
0.00739386
0.00673637
0.0070086
0.00142426
0.000930564
0.00448578
0.00405591
0.0023168
0.000723751
0.00137475
0.000484334
0.00137454
0.00176359
0.00714521
0.00519127
0.00216991
0.00164452
0.000677553
0.00660336
0.0041355
0.00410661
0.00490559
0.0021856
0.00222448
0.00256817
0.00295583
0.00279558
0.00237168
0.0056301
0.000957607
0.00154202
0.00136923
0.00550959
0.00416516
0.00671625
0.0035433
0.00209379
0.0018795
0.0019806
0.000776212
0.00274539
0.00358597
0.00183047
0.00411715
0.000921413
0.00655571
0.00509097
0.005033
0.00426483
0.00378461
0.00339257
0.00315266
0.00379081
0.00382305
0.00342812
0.00399558
0.00433396
0.00263964
0.00239935
0.00313169
0.00371238
0.00641908
0.00638556
0.0046736
0.00610435
0.00513765
0.00281816
0.00375634
0.00555177
0.00718249
0.00722876
0.00723827
0.00250964
0.00382557
0.00420947
0.00218086
0.00551466
0.00466221
0.00380708
0.00176334
0.00288593
0.00463603
0.00580945
0.00434201
0.00531376
0.00277293
0.00320473
0.00354978
0.00279912
0.00171637
0.00253846
0.00292916
0.00188667
0.00460027
0.00291039
0.00214927
0.00495815
0.00748523
0.00728397
0.00679224
0.00742035
0.00217159
0.00307905
0.00296569
0.00355777
0.00382103
0.006549
0.00580852
0.00143428
0.00721072
0.00698798
0.00578719
0.000476061
0.00267429
0.00685784
0.00680879
0.00678074
0.00517423
0.00687017
0.00490354
0.00707515
0.00695831
0.00184606
0.00477803
0.00529041
0.00296356
0.00181911
0.0067193
0.000476905
0.0023829
0.00101422
0.00143745
0.00332366
0.00728203
0.00226952
0.00310936
0.0030331
0.00363325
0.00240582
0.00311761
0.00315729
0.00338737
0.00620614
0.00300094
0.00441491
0.00626872
0.00569302
0.00399717
0.00195806
0.00417696
0.0044133
0.00502071
0.0040979
0.00274995
0.00336488
0.00395112
0.00374496
0.00317382
0.00476801
0.00483273
0.00329754
0.00411108
0.00413837
0.00201496
0.0012996
0.00600942
0.000498475
0.00541428
0.00650069
0.00323887
0.00539566
0.00406856
0.0052897
0.0075451
0.00211503
0.00210478
0.00197985
0.00552206
0.00239813
0.00723702
0.00206708
0.00295374
0.00597764
0.00589846
0.0015295
0.00329285
0.0036099
0.00741579
0.00285391
0.00228916
0.00593891
0.00315456
0.00542375
0.00224194
0.000907697
0.00111585
0.00544519
0.00654724
0.00163295
0.000427923
0.00572213
0.00633121
0.00702412
0.0060954
0.00557375
0.00232489
0.00751663
0.00383244
0.0074573
0.00457187
0.00599507
0.00637698
0.002265
0.0074112
0.00743088
0.00292882
0.00679741
0.00534678
0.00720709
0.00705204
0.00719385
0.00316642
0.00716707
0.00548386
0.00450578
0.00344422
0.000380033
0.00756602
0.00582716
0.00558205
0.00721426
0.00241697
0.00753311
0.00620545
0.00702539
0.00212238
0.00313798
0.0024943
0.00109746
0.000679893
0.00191389
0.00250202
0.00523885
0.00561752
0.00168974
0.00582707
0.00747309
0.00743887
0.00721975
0.00329111
0.00181623
0.000951855
0.00735809
0.00581165
0.0060031
0.00724922
0.00732315
0.00462697
0.000967094
0.00626191
0.00381726
0.00102817
0.00582233
0.00280916
0.000623218
0.00431701
0.00438682
0.00707442
0.00231561
0.00697841
0.00220674
0.00385575
0.00253
0.00323208
0.00103019
0.00019508
0.00317605
0.00078838
0.000818224
0.00312959
0.00419564
0.00458633
0.00278719
0.00676073
0.00734153
0.00185473
0.0026483
0.00245703
0.00175359
0.000176178
0.00281146
0.00749928
0.00591939
0.00739917
0.00134193
0.00171445
0.00096074
0.0023407
0.000593643
0.00167568
0.00302858
0.00288197
0.00688295
0.00228976
0.00431202
0.00233911
0.0033025
0.00428186
0.00464969
0.00623991
0.00494971
0.00499936
0.00197833
0.00105877
0.000798062
0.00146913
0.00106469
0.000165696
0.00186422
0.00032909
0.00106597
0.00645156
0.00588395
0.0070645
0.00703941
0.00648694
0.00695168
0.00722103
0.00451262
0.00699035
0.00439449
0.00674342
0.00361851
0.0022386
0.00311141
0.00702551
0.00731259
0.00738059
0.00745185
0.00274319
0.00213256
0.00505562
0.00702823
0.00467601
0.00248896
0.00502915
0.00609721
0.0071691
0.00540307
0.00669467
0.00567048
0.00652746
0.00703719
0.000574174
0.000657469
0.00432627
0.00254185
0.003508
0.00521649
0.00395953
0.0048855
0.00191143
0.0018948
0.00707204
0.00625096
0.00316747
0.00609921
0.00406613
0.00691194
0.00643731
0.00165015
0.00743297
0.00736851
0.00670768
0.00714167
0.00550215
0.00652593
0.0018659
0.00712722
0.0049247
0.0070994
0.00381983
0.00594488
0.00385272
0.00489721
0.0067141
0.00658791
0.0068987
0.00633548
0.00523738
0.00494935
0.00736355
0.00243235
0.00302087
0.00575471
0.00552934
0.00293322
0.00226318
0.00495011
0.00121101
0.00223859
0.00505127
0.00629077
0.00159162
0.000971893
0.00326335
0.000740091
0.00228346
0.000692925
0.000753989
0.0011158
0.0009354
0.000277352
0.00350832
0.000408886
0.000987473
0.000838325
0.000467163
0.000338168
0.00282382
0.00267515
0.00228218
0.00208871
0.00186948
0.00194909
0.00525235
0.00157384
0.00587665
0.00740062
0.00741731
0.00424918
0.00432851
0.0063844
0.00749453
0.00394478
0.00326409
0.00663384
0.00581401
0.00667388
0.00748227
0.00271179
0.0055829
0.00114647
0.00278893
0.00518527
0.00247018
0.00480268
0.00191368
0.00455194
0.00675671
0.00583296
0.000557368
0.00733045
0.00521654
0.00032575
0.00648236
0.00385728
0.00394595
0.00737869
0.00709887
0.00140955
0.00502747
0.0063736
0.00646877
0.0034819
0.00311953
0.00717894
0.00373646
0.00261498
0.00135521
0.00379334
0.00741131
0.00214774
0.00395183
0.00701716
0.00411308
0.0069783
0.00258344
0.00691459
0.00694881
0.00608506
0.00514195
0.00271087
0.00543771
0.00365852
0.00309437
0.00202576
0.00188256
0.00488021
0.000444204
0.00557909
0.000847995
0.00366822
0.00225295
0.00284123
0.000984991
0.00180898
0.00527681
0.00724298
0.00175896
0.00623907
0.00195055
0.00367778
0.00512688
0.00644396
0.00165982
0.00474783
0.00757697
0.00338354
0.00702773
0.00715434
0.00701069
0.00756822
0.00321767
0.00385429
0.00758913
0.00396403
0.00728751
0.00727071
0.00254914
0.00700953
0.0012583
0.0070213
0.00680851
0.00713634
0.00445434
0.00711448
0.0074339
0.00572454
0.00652415
0.00521275
0.00260536
0.000252994
0.00322417
0.00594053
0.00692587
0.00481035
0.00261848
0.00659843
0.00484428
0.00612606
0.00380783
0.00301809
0.000696939
0.0056568
0.00266019
0.00294779
0.00195274
0.00164847
0.00643575
0.00347893
0.00398189
0.00256383
0.00503879
0.00267166
0.000302212
0.00668515
0.00401652
0.00613905
0.000723378
0.00356055
0.00150484
0.00313979
0.00720051
0.00264328
0.00204143
0.00252583
0.000385558
0.00330313
0.0017486
0.00109043
0.0015412
0.00293478
0.00116777
0.00389542
0.0010788
0.00141362
0.00151321
0.00246576
0.00104948
0.00144328
0.00126201
0.000983842
0.000426074
0.00086496
0.000808476
0.00154509
0.000909378
0.00152527
0.000288801
0.00112653
0.00128615
0.00103225
0.000703122
0.000751308
0.00196092
0.00489887
0.00360214
0.00173419
0.00205502
0.00311547
0.00378909
0.0021876
0.00226495
0.00172128
0.0016732
0.00238866
0.00468336
0.00129608
0.00160848
0.00216474
0.00204465
0.00377564
0.00125001
0.0014111
0.00278316
0.00216304
0.00356829
0.00332192
0.00497373
0.00742925
0.00500482
0.00501867
0.00311312
0.00638826
0.00369616
0.00390449
0.00611991
0.00671508
0.00280593
0.00193533
0.00295668
0.00418117
0.0034872
0.00348814
0.00438366
0.00745845
0.00718601
0.00362562
0.00439466
0.00343053
0.0034428
0.00317343
0.00297242
0.00357217
0.00278594
0.00235826
0.00574879
0.00553712
0.00469716
0.0033006
0.00213419
0.00120854
0.00148301
0.00167823
0.00108031
0.00155356
0.0040099
0.0033459
0.00307475
0.00286863
0.0018662
0.00388524
0.00488303
0.00420132
0.00263067
0.00294504
0.00338847
0.00348441
0.00283158
0.00202524
0.000801699
0.00351481
0.0016597
0.00399759
0.00414708
0.00724826
0.00727424
0.00287849
0.00287117
0.00125201
0.00309472
0.00357672
0.00147219
0.00223977
0.00173557
0.000758142
0.00271201
0.00333039
0.00267382
0.00152485
0.00155368
0.00128582
0.00255799
0.00265946
0.00254735
0.0027851
0.00249737
0.00252069
0.00282014
0.00231554
0.0023302
0.00501162
0.00404604
0.00469477
0.00532406
0.00574297
0.00572332
0.00569475
0.00702337
0.00612766
0.00520721
0.00666647
0.00704265
0.00672596
0.00722451
0.00669208
0.0074588
0.0075821
0.00566337
0.00729674
0.00751463
0.00750436
0.00731505
0.00706081
0.00432619
0.00584316
0.00664006
0.00693965
0.00596598
0.00528969
0.00313206
0.000964895
0.00373189
0.00296108
0.00688298
0.00242647
0.00346173
0.00139912
0.00231918
0.00458404
0.00228862
0.00743377
0.00262983
0.00499436
0.00399258
0.00575664
0.00326847
0.000782593
0.00401937
0.00341521
0.00286612
0.00449912
0.00502815
0.00315321
0.00754171
0.00644278
0.00641559
0.00257169
0.00149115
0.00267687
0.000712386
0.00718571
0.00697782
0.00443501
0.00367749
0.00748366
0.00714543
0.00558421
0.00326444
0.00523118
0.00619281
0.00561133
0.00488203
0.0027408
0.00259387
0.00299768
0.00651621
0.00715063
0.00282596
0.00709287
0.000980041
0.0037111
0.00542949
0.00411657
0.00423325
0.00262124
0.00259969
0.00330901
0.00348303
0.00583749
0.00461594
0.00665104
0.00343345
0.00656195
0.00555428
0.00460503
0.00364453
0.00404003
0.00347509
0.00344109
0.00598003
0.00716555
0.00493752
0.00243802
0.00272342
0.00654602
0.00720379
0.00268539
0.00322243
0.00289789
0.00715768
0.00511914
0.00248266
0.00313281
0.00111377
0.00609946
0.00389154
0.00705709
0.00731748
0.00481327
0.00545428
0.00730884
0.00498547
0.00517803
0.00336172
0.00752037
0.00277878
0.00215375
0.0039257
0.00334428
0.00718743
0.0021161
0.00206774
0.00746498
0.00191806
0.00108707
0.00349269
0.00423449
0.00646233
0.00475603
0.00364997
0.0055938
0.00495829
0.00725321
0.00542888
0.00672235
0.0074273
0.00747285
0.00285014
0.00503832
0.00374203
0.00743413
0.000434503
0.00222992
0.00168906
0.00173679
0.00432835
0.0048652
0.00679443
0.00662618
0.00403488
0.0036173
0.00480135
0.00351238
0.00561339
0.00670399
0.00632483
0.00141514
0.00660643
0.00390171
0.00481875
0.00585791
0.00532758
0.00261826
0.000498225
0.0027736
0.00119147
0.000330746
0.000646045
0.000532358
0.000655148
0.00626013
0.00303272
0.00366573
0.00242798
0.00310859
0.00057759
0.00207416
0.0018922
0.00054372
0.00139154
0.00160036
0.000617888
0.00119785
0.00478713
0.00223834
0.00448261
0.00676166
0.00347267
0.00501933
0.00614073
0.00418318
0.00717246
0.00269297
0.000179213
0.00216943
0.00164522
0.00401486
0.00137197
0.00153553
0.00255399
0.00346769
0.00696466
0.00728799
0.00740138
0.00581573
0.00554672
0.00698976
0.00745463
0.00597419
0.0072235
0.00659412
0.00663891
0.00605705
0.00671604
0.00357759
0.00182896
0.00271711
0.0070022
0.00245227
0.00727584
0.00133788
0.0071478
0.00733789
0.00598825
0.000566349
0.000400242
0.00217816
0.00445438
0.00625637
0.00585878
0.00434994
0.00260155
0.00556865
0.00154584
0.0073332
0.00719467
0.0075204
0.00484383
0.00705988
0.00334602
0.00381724
0.0035856
0.00726484
0.0017132
0.00647214
0.00677115
0.00652822
0.00712968
0.0065273
0.00688201
0.00699519
0.00326664
0.00503198
0.0050354
0.00174799
0.0034714
0.00524364
0.00488244
0.00314908
0.00750641
0.00696833
0.00605369
0.00721087
0.002877
0.007243
0.00407038
0.00141991
0.000178813
0.0062571
0.00696273
0.00538297
0.00398581
0.00641493
0.000541085
0.00390315
0.000267293
0.00183163
0.000952432
0.000991642
0.00304055
0.00103931
0.00249023
0.00737659
0.00738788
0.00134352
0.00735348
0.0025258
0.000520881
0.000630359
0.00318457
0.000583636
0.0017047
0.000617483
0.00344826
0.00755962
0.00391211
0.00492042
0.000575821
0.000667122
0.00103553
0.00082303
0.000859907
0.000331555
0.000572065
0.00384525
0.00576505
0.00326184
0.00557002
0.00224147
0.00393585
0.00563258
0.00424149
0.00186851
0.00747546
0.00213316
0.00561603
0.00598203
0.0020799
0.00496061
0.000641137
0.00264195
0.00723551
0.00331054
0.00532737
0.00415898
0.00420243
0.00388214
0.00524821
0.00437006
0.00394761
0.00349657
0.00654261
0.00682671
0.00604049
0.00712973
0.00179225
0.00737791
0.00587618
0.00185076
0.00504243
0.00341511
0.00658361
0.00271442
0.00689201
0.00289136
0.00428364
0.00114879
0.00103568
0.00333674
0.00355649
0.00221277
0.00182027
0.00217619
0.00167393
0.0024258
0.00415686
0.00328067
0.00703162
0.00715599
0.00580047
0.00396906
0.00398824
0.00505722
0.00583066
0.00500402
0.00148706
0.00451307
0.00200522
0.00244752
0.0016047
0.00221705
0.000903355
0.00254107
0.00615607
0.00654362
0.00226758
0.00633142
0.00677263
0.00600509
0.00696108
0.00603296
0.00756482
0.00402405
0.00696113
0.00700966
0.00682432
0.00291501
0.0028883
0.0070342
0.00586998
0.00688804
0.0066481
0.00318344
0.00729195
0.00647295
0.00408591
0.00187848
0.000616896
0.0025737
0.00570277
0.000196448
0.000837152
0.00250895
0.00156873
0.00261592
0.003217
0.00506115
0.00645984
0.0036116
0.00524548
0.00160657
0.00140101
0.00477606
0.00700787
0.000840723
0.00334999
0.00170251
0.00510494
0.000964339
0.00167432
0.00205206
0.00138934
0.00451887
0.00294471
0.00201676
0.00166892
0.0033909
0.00464327
0.00355425
0.0043058
0.0050952
0.0048686
0.000874286
0.00016141
0.00340431
0.00420125
0.0026496
0.00436549
0.00333629
0.00468777
0.00188459
0.0027762
0.0026837
0.00269178
0.00265214
0.00311139
0.00234687
0.00229345
0.00160321
0.00152716
0.00156137
0.000916791
0.0072704
0.00728978
0.00373824
0.00706427
0.0028619
0.00188093
0.000959378
0.000876968
0.000618464
0.00743143
0.00335086
0.00579763
0.00580382
0.00360219
0.00623631
0.00568927
0.00650255
0.0055108
0.00670966
0.00730465
0.00288945
0.00189772
0.00555057
0.000768865
0.00287507
0.00239116
0.00159169
0.00517133
0.00372159
0.00678299
0.0025716
0.00330428
0.00257225
0.00590427
0.00366069
0.0028805
0.00300149
0.0039208
0.00217559
0.00702174
0.00656932
0.00374638
0.00708922
0.00459726
0.00410649
0.00330564
0.0010351
0.00415657
0.00267035
0.00212355
0.00628472
0.00180319
0.00406953
0.000846004
0.00292177
0.00467303
0.00700622
0.00540987
0.00167475
0.00358502
0.000601691
0.0071531
0.00498827
0.00567108
0.000622123
0.00725623
0.000222704
0.000682338
0.000610108
0.00286883
0.00311516
0.00307796
0.00344786
0.0029082
0.000944807
0.00553875
0.000502563
0.00304053
0.00161208
0.00453463
0.00398048
0.0054369
0.00722514
0.00709948
0.00442526
0.00288518
0.00178324
0.00397885
0.0051162
0.00273267
0.00655468
0.00224553
0.00699435
0.00327017
0.00392855
0.00381626
0.00374239
0.00538518
0.00324016
0.00560391
0.00202721
0.00215271
0.00512978
0.00608473
0.00495762
0.00713831
0.00266168
0.00752291
0.00216421
0.00541592
0.00501936
0.00481827
0.00168456
0.0017751
0.00317191
0.00193998
0.00340539
0.00679007
0.00749361
0.00713484
0.00585954
0.00573208
0.00448938
0.00343046
0.00342921
0.00186937
0.007467
0.00331791
0.00555374
0.00278995
0.00295475
0.00286695
0.0074966
0.00718967
0.00512689
0.00277851
0.00603176
0.00418291
0.00539631
0.00184583
0.00444704
0.00229084
0.00100175
0.000798712
0.000804805
0.00278301
0.00175711
0.00293599
0.00615246
0.00372032
0.0014119
0.00482958
0.00311532
0.00731089
0.00100768
0.00287403
0.00126453
0.000403388
0.00552814
0.00696079
0.00294813
0.00155443
0.00161011
0.00128615
0.00162238
0.00342812
0.00127766
0.00254876
0.00200689
0.00190209
0.00087281
0.00230217
0.00103649
0.00179952
0.000451559
0.0014836
0.00268222
0.00046807
0.0021199
0.00121532
0.00165845
0.00151701
0.00243874
0.0047171
0.00437772
0.00258406
0.0012382
0.00445843
0.00309734
0.0020009
0.00068241
0.000758845
0.000596285
0.00276689
0.00144381
0.00231221
0.000772863
0.000285249
0.00385681
0.00210095
0.00229327
0.00383187
0.00251259
0.0012721
0.000329101
0.00078301
0.00590936
0.00479209
0.00349528
0.00323205
0.00614299
0.00681559
0.00408674
0.00344598
0.00282549
0.00263853
0.00639489
0.0020672
0.00736985
0.0030982
0.00527955
0.00326615
0.00146646
0.00169518
0.00739148
0.00502413
0.00237291
0.00739579
0.00592195
0.00174123
0.00222952
0.000203338
0.00213634
0.00510073
0.00711981
0.00263179
0.00692116
0.00267703
0.00122292
0.00668004
0.00722901
0.00639054
0.0071225
0.00719013
0.00218414
0.00150345
0.00197667
0.00401513
0.00409591
0.00229242
0.00741829
0.00741439
0.00432629
0.00741716
0.00570416
0.00310642
0.00732339
0.00151624
0.000828611
0.00200827
0.00371945
0.00385384
0.00352643
0.00501477
0.00213266
0.00284458
0.00237343
0.00163093
0.00288449
0.00332109
0.00283253
0.00274827
0.00289502
0.00334785
0.00461224
0.00323662
0.00462488
0.00426354
0.0045768
0.00440608
0.000932153
0.00380572
0.00395539
0.00641263
0.0029108
0.00320202
0.00407769
0.00316878
0.00184142
0.000803514
0.00138768
0.00742756
0.00370902
0.00285308
0.0023724
0.00228705
0.00732071
0.00734024
0.00729336
0.00608993
0.00573515
0.00300825
0.00140629
0.00127046
0.00102412
0.000410208
0.000918379
0.00227803
0.00286681
0.00223602
0.00559262
0.00174969
0.0022446
0.00499692
0.00340139
0.00342173
0.00290834
0.00165723
0.0062508
0.00411033
0.00361401
0.00584769
0.00467976
0.00592481
0.0024387
0.00726314
0.00141561
0.000642047
0.00730759
0.00742458
0.00744467
0.00729497
0.00247064
0.0073513
0.00189881
0.00497656
0.00446268
0.00160545
0.000445337
0.00093444
0.00215462
0.000470534
0.000542702
0.00128216
0.00117025
0.00025061
0.00210587
0.0020625
0.00240856
0.000298925
0.0041588
0.00151009
0.0041124
0.000850855
0.00113945
0.00229619
0.00240982
0.00155116
0.0012697
0.00417595
0.00424644
0.000635673
0.00106283
0.000283565
0.000255203
0.000152185
0.00105397
0.000951085
0.00183178
0.00026357
0.00210413
0.00202174
0.00493484
0.00363327
0.00706472
0.00689375
0.00733465
0.00449168
0.00412444
0.00259546
0.00540701
0.00210403
0.00702114
0.00300442
0.00477292
0.0050766
0.00685168
0.00553005
0.00175546
0.00554595
0.00139708
0.00332218
0.00622694
0.00738492
0.0071745
0.005157
0.00512479
0.00613548
0.0074083
0.0038926
0.00473142
0.0046693
0.00128004
0.00210175
0.0052804
0.00735148
0.00487638
0.00254199
0.00203767
0.00229262
0.00736106
0.00523971
0.003717
0.00714277
0.00351316
0.00211955
0.0041514
0.00519507
0.00135348
0.00528946
0.00509968
0.00288826
0.0054533
0.00324768
0.00477377
0.00384671
0.00174902
0.00657446
0.00296833
0.00603879
0.00507699
0.00752641
0.0070866
0.00479749
0.00682791
0.000681903
0.00159424
0.000803347
0.00173134
0.00725882
0.00701779
0.0047258
0.00751441
0.00751976
0.00660473
0.00720556
0.00063848
0.00129566
0.00729547
0.00696437
0.0074426
0.0014173
0.00546599
0.00447834
0.00711889
0.00399185
0.00267641
0.000213828
0.00442438
0.00132167
0.00288544
0.00204525
0.00187532
0.00732381
0.00745851
0.00745077
0.00133807
0.00733356
0.00736491
0.000738882
0.00129445
0.0032065
0.00216395
0.00104812
0.000190757
0.0071436
0.00709981
0.00720627
0.00707387
0.00274214
0.00101742
0.00733894
0.00730823
0.00714422
0.00697781
0.00656122
0.00115345
0.0064122
0.00747899
0.00736928
0.00753521
0.00629205
0.00288336
0.00275898
0.00323965
0.00327575
0.00324773
0.00596048
0.00189327
0.00344824
0.00677388
0.00475426
0.00307132
0.0071511
0.00673336
0.00623932
0.00413203
0.00284973
0.00477963
0.00425043
0.00374889
0.00275734
0.00366965
0.00363425
0.00508632
0.00558809
0.00524535
0.00248359
0.0072015
0.00703913
0.00120648
0.00628397
0.000396731
0.00464745
0.00381539
0.00164106
0.000429687
0.000913642
0.000736766
0.00498787
0.0023267
0.00515746
0.00196962
0.000476261
0.00247258
0.000867756
0.00113542
0.000851917
0.00153271
0.00374834
0.00061682
0.00310088
0.00296522
0.000479955
0.000773842
0.000824542
0.00375395
0.00322633
0.00369244
0.0033916
0.00141472
0.00123563
0.0011282
0.0025424
0.00128555
0.00275683
0.00521502
0.00257734
0.00156007
0.00548447
0.00539589
0.00245751
0.0033025
0.00483412
0.00301468
0.00443758
0.00215236
0.00302572
0.00309921
0.00199896
0.00252547
0.00599077
0.00298015
0.00258651
0.00245928
0.00268524
0.00501931
0.00266479
0.00432034
0.00303763
0.00316367
0.00280463
0.00420884
0.00414457
0.00430908
0.00318237
0.00411496
0.00344046
0.00173665
0.00233959
0.00200256
0.00199947
0.00330608
0.00272499
0.00142664
0.00655508
0.00128678
0.000892049
0.00255884
0.00431102
0.00295491
0.00669464
0.00688468
0.00639236
0.00349833
0.00414745
0.00443047
0.00214874
0.00277591
0.00181443
0.00171754
0.00745408
0.00546423
0.0056844
0.00545721
0.00734826
0.00639345
0.00547243
0.00442185
0.0059579
0.00382154
0.00201145
0.00361732
0.00428322
0.00615398
0.00373297
0.00468553
0.00454174
0.00317264
0.00220406
0.0069953
0.00186085
0.00717249
0.00707954
0.00433694
0.00420516
0.00425089
0.00422777
0.00281514
0.00435625
0.00495094
0.00586555
0.00392121
0.002548
0.00492397
0.00730666
0.00719974
0.00670599
0.00404571
0.0034095
0.00353946
0.00564359
0.00312133
0.00325689
0.00279239
0.00319136
0.00471293
0.00659993
0.00289229
0.00429423
0.00727356
0.0064124
0.00381391
0.00270734
0.00293117
0.00393701
0.00305798
0.00589418
0.00231524
0.0041176
0.00285606
0.00241488
0.00572133
0.0063841
0.00632086
0.0063335
0.00594554
0.00628566
0.00698307
0.00138727
0.00229732
0.00125429
0.00253786
0.00173976
0.00102925
0.00201899
0.0032199
0.00337954
0.00195709
0.00324687
0.000143127
0.00198409
0.00462627
0.00335552
0.0047045
0.0035769
0.00512211
0.00169468
0.00357966
0.00523799
0.0034313
0.00425669
0.00585957
0.00514117
0.00374139
0.00256939
0.00648689
0.00662859
0.00738038
0.00676308
0.00278551
0.00560946
0.00274778
0.00349398
0.00082416
0.00294442
0.00368681
0.00421552
0.0030782
0.00257424
0.00346859
0.00482198
0.00281369
0.00123254
0.00379351
0.00540657
0.00402195
0.00492291
0.00293092
0.00305323
0.00330676
0.00393596
0.00319117
0.00228611
0.00221376
0.0051461
0.00288361
0.00437647
0.00715845
0.00700593
0.00627662
0.00441387
0.00236388
0.00605514
0.0039926
0.00654203
0.00367719
0.0071917
0.00717434
0.00305282
0.00132469
0.00223493
0.00609902
0.00189677
0.0040178
0.00502687
0.00444047
0.00659858
0.0014079
0.00495746
0.00204025
0.00754119
0.00728699
0.0040598
0.00477163
0.00213101
0.00261425
0.00744513
0.00737232
0.00671413
0.00706966
0.00243192
0.00454583
0.00489507
0.00490694
0.005276
0.0037249
0.00343604
0.00594585
0.00644035
0.00758867
0.0019058
0.00364805
0.0050326
0.00392104
0.00643478
0.00302164
0.00530352
0.00345028
0.00309131
0.00208735
0.00221586
0.00546788
0.00307939
0.00285839
0.00165539
0.00227109
0.00462386
0.0039873
0.00751541
0.00720544
0.00653426
0.00713611
0.00707137
0.00574262
0.0059141
0.00294968
0.00349079
0.00284731
0.00367015
0.00309234
0.00735853
0.00357861
0.00695532
0.00236123
0.00318325
0.0033619
0.00358661
0.00261102
0.000365173
0.00373966
0.000754439
0.000528929
0.00255173
0.00187885
0.00718634
0.00693393
0.0035584
0.00712674
0.00404624
0.00515422
0.00400113
0.00412539
0.00608767
0.00144691
0.0018893
0.00199073
0.00706558
0.00208193
0.000779746
0.0071432
0.00431071
0.000867542
0.00253754
0.00348894
0.001952
0.00395094
0.00297964
0.00311021
0.00327141
0.00170685
0.00171303
0.000149436
0.00249935
0.0016049
0.00151787
0.00342925
0.00662784
0.00709819
0.00737198
0.00162509
0.000811603
0.0024253
0.00284246
0.00412002
0.00254328
0.00130631
0.00699526
0.00463596
0.00176392
0.00335003
0.00364468
0.000151397
0.0049752
0.00590279
0.00718303
0.00722711
0.00713078
0.00662289
0.00745018
0.00734718
0.00243749
0.00736859
0.00378583
0.00711304
0.00115376
0.00155398
0.00272778
0.00326185
0.00145017
0.00515066
0.00354913
0.00737191
0.00390493
0.0031392
0.00315406
0.00148619
0.00576612
0.00362753
0.000524457
0.000858683
0.00250706
0.00344629
0.00247008
0.00316487
0.00353465
0.00748084
0.00736121
0.00259643
0.0042267
0.00357664
0.00685195
0.00579689
0.00359547
0.00668835
0.00745386
0.0053253
0.00622094
0.00627626
0.00733854
0.00667203
0.00486081
0.00546058
0.00329998
0.00352363
0.00236962
0.00537849
0.0062655
0.00612001
0.00433043
0.00322631
0.00141164
0.00231591
0.00159683
0.00756816
0.00602319
0.00196357
0.00404272
0.00507132
0.00110028
0.00162778
0.00027578
0.00086649
0.000210963
0.00734695
0.00208987
0.000341939
0.00254993
0.00494927
0.00294725
0.000825458
0.00591645
0.000349693
0.00605974
0.00512174
0.00746187
0.00690416
0.00621711
0.0066215
0.0073034
0.00268172
0.00159246
0.00114735
0.00721493
0.00246526
0.00400024
0.00603441
0.00358972
0.00247507
0.000969199
0.00206766
0.00634909
0.00272574
0.00551361
0.00698444
0.00722171
0.00368248
0.00190874
0.00731708
0.00352046
0.0022012
0.00617279
0.00337014
0.00605471
0.00339821
0.00727662
0.00465145
0.00226544
0.00714541
0.00579512
0.00242427
0.00350418
0.00738475
0.00420135
0.004483
0.00365838
0.00144347
0.00173222
0.00306432
0.00428491
0.00366167
0.00286204
0.0015219
0.00417344
0.00157721
0.00282619
0.00458697
0.00486624
0.006981
0.00518819
0.00356456
0.00431035
0.00515905
0.002643
0.0048758
0.00404169
0.00181034
0.00158953
0.00518468
0.00509579
0.00567675
0.00745594
0.00342253
0.00265667
0.00175184
0.00330565
0.00707603
0.00184782
0.00494803
0.00291136
0.00387913
0.00747082
0.00496897
0.00523422
0.00547135
0.00510515
0.00244081
0.00356395
0.00344909
0.00483493
0.00445811
0.00349429
0.00184878
0.00300365
0.00344863
0.00321919
0.00284303
0.00483767
0.00414476
0.00256694
0.00382034
0.00657355
0.0061083
0.0065439
0.00626412
0.00598276
0.00688603
0.00713249
0.00208998
0.00367333
0.00298429
0.00236796
0.00194086
0.0025854
0.00372399
0.00461298
0.000552675
0.00205168
0.00145555
0.00131982
0.00160079
0.00479207
0.000503244
0.000829177
0.00172671
0.000794332
0.000462829
0.00237511
0.00184224
0.00178677
0.00327934
0.0065372
0.00106866
0.00284257
0.00315515
0.00433475
0.00308121
0.000674632
0.0028961
0.00416643
0.00400686
0.00435662
0.00420447
0.00253232
0.00388228
0.00254773
0.00248191
0.00285543
0.00291015
0.00529863
0.000789432
0.00131091
0.000763633
0.000636771
0.00141805
0.000242771
0.000945614
0.00119123
0.00230478
0.00394971
0.00103448
0.00135253
0.00253853
0.000925198
0.00140014
0.00095948
0.0008477
0.00133911
0.00179163
0.00101632
0.00104316
0.000547072
0.00163728
0.00139986
0.00546983
0.00637391
0.00692375
0.00629681
0.00703665
0.00709408
0.00698487
0.00707264
0.000844249
0.00148586
0.00274191
0.00459702
0.0036694
0.00495435
0.00438504
0.00520019
0.00515884
0.00540013
0.00257103
0.00424318
0.00555237
0.00527188
0.00254598
0.00495816
0.00641779
0.00505018
0.0069887
0.00695902
0.00357153
0.00326956
0.0064696
0.00356053
0.00474923
0.00173082
0.00718248
0.00289906
0.00133555
0.00100579
0.00328467
0.00317034
0.00303054
0.00212857
0.00754654
0.00615591
0.00642271
0.00244375
0.00739213
0.00518194
0.00228645
0.00508126
0.00119517
0.00134179
0.00370337
0.00342045
0.0037278
0.007428
0.00253795
0.000493328
0.000374032
0.00121576
0.00737924
0.00236067
0.00238314
0.00286436
0.00205771
0.000641981
0.0018281
0.00540351
0.00626382
0.0026084
0.000787192
0.00177434
0.000775619
0.00740097
0.000674164
0.0057517
0.00698154
0.00718672
0.00536227
0.006937
0.00691467
0.00604737
0.00357381
0.00394368
0.00445853
0.00422121
0.00196721
0.00482584
0.00452631
0.00418197
0.00309009
0.00377298
0.00646197
0.00349593
0.00190501
0.00363305
0.0069348
0.00645093
0.00725014
0.00703832
0.00736211
0.00353091
0.00217716
0.00194884
0.00150375
0.000935232
0.00365768
0.00510961
0.00266796
0.00707968
0.00725548
0.00542685
0.00310035
0.00200736
0.00173736