/*--------------------------------*- C++ -*----------------------------------*\
| =========                 |                                                 |
| \\      /  F ield         | OpenFOAM: The Open Source CFD Toolbox           |
|  \\    /   O peration     | Version:  2506                                  |
|   \\  /    A nd           | Website:  www.openfoam.com                      |
|    \\/     M anipulation  |                                                 |
\*---------------------------------------------------------------------------*/
FoamFile
{
    version     2.0;
    format      ascii;
    arch        "LSB;label=32;scalar=64";
    class       volVectorField;
    location    "0.0563527";
    object      U;
}
// * * * * * * * * * * * * * * * * * * * * * * * * * * * * * * * * * * * * * //

dimensions      [0 1 -1 0 0 0 0];

internalField   nonuniform List<vector> 
3975
(
(12.1293 0.385944 0.257953)
(10.702 -0.171659 -0.0242311)
(10.6416 -0.000677324 -0.0203295)
(10.8522 -0.467264 0.109653)
(10.8506 -0.433695 0.0849582)
(11.7473 0.786267 -0.649464)
(10.7805 -0.863161 0.215236)
(10.8026 -0.864966 0.351969)
(11.1276 -0.341094 0.0723395)
(11.0786 -0.0828076 -0.011132)
(11.2545 -0.0303343 0.00238962)
(10.3228 -0.0280423 0.0045046)
(11.0241 -0.230107 0.000823541)
(10.5805 -0.0111466 -0.034215)
(11.01 -0.130535 -0.00981058)
(11.0218 0.0984773 -0.0148532)
(10.6408 -0.0610996 0.0334352)
(11.2879 -0.0461834 -0.170977)
(10.7403 0.0173431 -0.0644015)
(10.8023 0.102001 -0.00953954)
(10.5792 -0.00854472 -0.0277708)
(11.2028 -0.0310825 -0.0749617)
(10.7476 0.0128241 -0.0713398)
(11.6926 0.159303 0.774586)
(11.7741 0.167917 0.613833)
(10.8746 -0.599042 -0.00546272)
(12.9248 2.12404 -0.772719)
(11.3381 -0.00315575 0.272024)
(11.398 -0.298967 -0.51881)
(10.6311 -0.0785572 0.0341449)
(10.5065 0.885386 -0.329781)
(10.62 0.116918 0.0129602)
(10.3501 1.49131 -0.885946)
(10.7916 0.688036 -0.300979)
(10.7944 0.621035 -0.208881)
(11.3601 -1.25194 0.342756)
(11.4699 0.52046 -0.191646)
(11.0957 0.557944 -0.151853)
(11.0267 0.640941 -0.316602)
(10.9767 0.695044 -0.343195)
(11.256 0.610128 -0.307584)
(11.3289 0.651848 -0.407131)
(11.2054 0.688644 -0.469859)
(10.9409 0.430707 -0.0483061)
(11.9483 0.30541 0.273546)
(10.9291 0.342588 -0.0390158)
(11.0838 0.188661 -0.048581)
(11.0098 0.205473 -0.0506219)
(11.9708 1.56805 -1.37587)
(10.857 -0.164468 -0.0461334)
(10.6909 -0.186946 0.0526507)
(11.148 0.58912 -0.00140629)
(10.3422 1.3218 -1.0321)
(12.6504 1.30057 -0.55647)
(12.7609 0.967886 -0.287525)
(12.7344 1.31372 -0.4765)
(12.6781 1.23507 -0.410152)
(12.545 1.37359 -0.496762)
(12.374 1.35462 -0.554835)
(12.2826 0.768684 -0.151158)
(11.9324 0.897672 -0.298478)
(12.0906 1.85388 -1.15989)
(12.614 0.971598 -0.166875)
(11.8483 1.2008 -0.302199)
(10.7602 0.386644 -0.145093)
(12.973 0.851496 -0.603688)
(10.325 1.50878 -1.12446)
(10.687 0.371105 -0.0781115)
(13.0047 1.03841 -0.9307)
(6.42812 0.816711 0.316788)
(6.2111 0.781021 0.158588)
(4.8849 0.660554 -0.179647)
(9.97879 1.07624 0.599282)
(10.4279 0.0315263 0.0134747)
(11.9991 0.446592 0.00479213)
(12.2339 0.417573 0.297711)
(11.9429 0.376729 0.108772)
(12.0565 0.396301 0.22393)
(12.2522 0.485275 0.124895)
(12.0921 0.447154 0.0641276)
(11.1863 -0.0931694 0.0144217)
(10.6099 -0.19449 0.00482171)
(10.7152 -0.0262864 -0.0456464)
(10.6442 -0.0244108 0.0206234)
(10.7927 0.361918 -0.0378516)
(12.5249 0.362394 0.00500871)
(11.9607 -0.267826 -0.288954)
(11.2315 1.11009 0.0378236)
(10.5583 -0.134618 0.0439511)
(10.4122 -0.075787 0.0210363)
(11.0322 -0.279873 -0.131507)
(10.7932 -0.0222295 -0.0463882)
(10.6159 -0.00260616 -0.0477571)
(10.7255 0.0345906 -0.0596656)
(5.2403 2.59432 -0.964663)
(11.6945 0.331591 0.0157798)
(11.6704 0.317599 0.0978672)
(10.6843 -1.54903 1.58939)
(10.8255 1.21728 -0.925547)
(12.2787 1.46521 -0.460465)
(11.027 0.289074 -0.0122712)
(12.7125 2.38377 -2.64976)
(10.6153 1.41524 -1.22273)
(10.4335 2.15397 -1.37463)
(11.1024 -0.195987 0.103073)
(10.7949 0.017882 0.00469799)
(12.0113 0.456456 -0.135795)
(11.5951 0.780233 -0.788971)
(11.65 0.889419 -0.832309)
(11.8474 0.821369 -0.757099)
(10.6894 0.00183718 -0.0701631)
(10.6196 -0.0501111 -0.0191261)
(10.6865 -0.0229805 -0.0373416)
(10.6576 -0.0249508 -0.0260732)
(11.3318 -0.032289 0.313688)
(10.2962 -0.0314817 0.00594459)
(10.2782 -0.0406747 0.00589182)
(10.2584 -0.055998 0.00175873)
(12.9787 1.20595 -2.11883)
(10.4891 2.37328 -1.6348)
(10.4749 0.751104 -0.270201)
(13.1649 1.04752 -1.75107)
(10.7721 -0.0607794 0.00194786)
(12.9447 0.858443 -1.36534)
(12.6638 0.734185 -1.37905)
(13.0252 1.12372 -1.95309)
(10.44 -0.0169641 -0.00915879)
(10.3108 -0.0349172 0.0152738)
(10.5162 -0.0279936 0.031615)
(10.5238 -0.00154772 0.0356268)
(10.4329 -0.031298 0.0352419)
(10.4021 -0.0415032 0.0261218)
(11.6339 0.573253 -0.30068)
(10.8621 0.72264 -0.360953)
(11.1551 0.714643 -0.633061)
(11.2727 0.751863 -0.552617)
(10.5936 0.00194993 -0.0246137)
(10.7345 0.0245371 -0.088728)
(10.7181 0.0873748 -0.0145252)
(11.129 -0.674483 0.101033)
(11.0271 0.827473 -0.551373)
(11.2094 -0.319431 0.0600328)
(11.0639 -0.344591 0.315384)
(10.8828 -0.0832499 0.0251403)
(12.7772 1.91283 -1.42194)
(10.6863 -0.278497 0.00578268)
(10.7304 -0.490238 -0.0112843)
(10.4918 -0.0429737 0.0328319)
(10.882 0.802696 -0.725941)
(10.8433 0.0326564 -0.0372506)
(11.0289 1.18634 -1.25776)
(10.4085 -0.0178574 -0.0128302)
(10.5051 0.0922959 -0.00177902)
(12.0326 0.774277 -0.711448)
(11.2495 0.480644 1.47105)
(10.1564 1.91643 -1.52242)
(11.4532 0.0402805 0.113526)
(10.8083 -0.00382867 0.0420966)
(10.9489 0.519196 0.0695401)
(11.1595 -0.00274399 -0.0959145)
(11.3091 0.0293733 -0.0561104)
(10.7723 0.226405 -0.00539406)
(12.1805 -0.413876 0.177512)
(10.7481 -0.240369 -0.0182272)
(11.1885 0.258009 -0.0465995)
(12.348 -0.227261 0.103142)
(12.0309 -0.113416 0.9058)
(6.13839 1.79696 -0.351815)
(10.7356 0.0436738 0.0395676)
(11.173 -0.150535 -0.108344)
(10.9234 1.00197 0.0166796)
(10.8995 0.533439 -0.0401959)
(11.7956 0.283645 0.162707)
(11.8516 -0.360475 -0.588496)
(7.22905 1.01933 0.106783)
(11.1994 0.382013 -0.0207475)
(11.7433 -0.242389 0.463822)
(10.7428 0.532747 -0.0373164)
(11.5245 1.61832 -2.42457)
(10.6138 0.0361136 -0.0463291)
(11.2834 -0.150401 0.395598)
(10.6779 -0.116814 -0.00021519)
(12.8213 1.17362 -1.83852)
(12.9208 1.31796 -1.58357)
(10.6538 0.250599 0.0185135)
(11.3627 0.324899 -0.0173455)
(12.3027 0.235916 0.693683)
(12.2728 0.273733 0.421133)
(11.4529 -0.627091 0.913569)
(12.2561 -0.189495 0.790927)
(11.9551 0.257585 0.0973899)
(11.3321 0.102255 0.098694)
(10.4925 0.039141 -0.00252418)
(10.9176 0.281605 -0.0440621)
(11.7205 1.38585 -0.29592)
(10.9653 0.503114 -0.0926106)
(11.1628 0.0987987 0.0141518)
(11.1163 0.234696 -0.0307741)
(11.2097 0.0296378 0.0618579)
(10.8033 -0.176267 0.0429501)
(10.6027 -0.127955 0.0160885)
(11.0298 0.284726 0.00133868)
(10.6681 -0.101913 0.052934)
(10.7355 0.38835 0.0751523)
(10.686 0.184473 -0.0054005)
(10.7963 0.166512 0.00327922)
(11.9045 0.401928 -0.03347)
(4.91574 0.963645 -0.787052)
(11.1305 -0.408562 0.447419)
(3.82409 0.353589 0.00483858)
(11.363 -0.324132 -0.261469)
(11.8661 -1.26584 0.539271)
(11.1413 1.45346 -0.0857049)
(11.2247 -1.16626 0.451264)
(10.4636 -0.0318051 -0.0135482)
(11.0422 0.685329 -0.168477)
(11.667 0.509119 -0.128689)
(10.7132 0.0848662 0.0148624)
(10.7202 -0.135989 -0.0163543)
(11.4203 1.6283 -0.860111)
(10.7757 0.0494235 -0.0462385)
(11.7684 -0.951694 0.37685)
(11.1984 -0.0660276 0.0563372)
(11.8418 1.42299 -0.61692)
(11.993 0.433656 0.11012)
(12.1737 0.344947 0.479149)
(4.26822 0.178758 0.0407632)
(10.8301 -0.309826 0.053216)
(12.5813 1.46104 -2.21491)
(10.8715 0.274116 -0.0316685)
(10.5043 0.0385774 0.00870844)
(11.1425 -0.201307 0.251108)
(11.0799 -0.676369 -0.391757)
(10.5462 -0.0357292 -0.0170892)
(10.8208 -0.244895 0.0336386)
(10.6323 0.602286 -0.0856377)
(10.4901 1.48457 -1.7341)
(12.1346 0.741353 -0.529811)
(12.7639 0.86738 -0.304834)
(11.0941 1.68483 -1.8885)
(11.1129 0.122871 -0.0182974)
(9.29382 4.01221 -2.20981)
(10.8985 0.760716 -0.219821)
(11.7103 -1.37166 0.705089)
(10.575 -0.173702 0.0571346)
(10.4972 4.08482 -3.04799)
(11.6625 1.45301 -0.506794)
(10.8007 2.28878 -1.8324)
(11.5044 1.27918 -0.447994)
(10.6335 0.657361 0.0334165)
(11.2238 0.383693 0.0514929)
(10.8839 0.16768 0.00698748)
(11.3366 1.35552 -2.03179)
(6.36369 0.631925 0.101452)
(11.0963 0.527344 -0.19525)
(10.8232 0.522436 -0.149476)
(11.6856 -0.953923 1.09514)
(12.0609 1.60393 -2.5707)
(9.3738 0.134043 0.906396)
(11.6662 1.68631 -0.877583)
(10.8055 2.0341 -3.02678)
(13.223 1.35912 -3.04489)
(11.0287 -0.553522 -0.194738)
(12.1668 0.433665 0.160114)
(12.7564 0.916687 -0.510378)
(10.337 1.6322 -1.26709)
(6.78519 0.630208 -0.313413)
(10.7428 0.368105 -0.0830356)
(11.9488 0.520455 -0.286532)
(10.7133 -0.0140376 -0.0477547)
(11.3537 -0.582414 0.926963)
(10.5494 0.00279564 -0.0164906)
(10.5091 -0.000697412 0.00960118)
(10.5185 -0.00589934 -0.0297316)
(10.4744 -0.0106011 0.0199199)
(10.9347 0.397098 -0.0376842)
(10.5153 -0.0104039 0.00493229)
(11.7798 0.51417 -0.0507701)
(2.81228 0.348615 0.0256938)
(12.8034 0.777785 -0.56295)
(13.0517 0.520654 -3.0705)
(11.8009 0.418628 0.0671405)
(11.7456 0.529962 -0.403027)
(10.8388 0.088369 0.0115285)
(11.5426 -0.00469062 0.294445)
(11.3964 0.225001 0.0639739)
(12.8585 1.40464 -0.873309)
(11.1853 -0.0352323 0.14501)
(7.91099 -0.193011 1.07122)
(10.4404 0.042955 -0.0323671)
(10.4387 0.0733151 0.013325)
(9.89776 1.50827 -1.73354)
(11.3472 0.567466 -0.229393)
(10.4285 2.9035 -2.14739)
(10.9952 -0.91778 0.351214)
(11.1271 -0.973129 0.440468)
(11.1434 -1.1835 0.468657)
(11.0735 -0.891134 0.514064)
(11.2088 -1.5376 0.201634)
(10.3587 -0.07923 0.00827917)
(11.5831 -1.46334 0.13693)
(11.3674 -1.47822 -0.000253752)
(11.0456 0.658899 -0.282833)
(11.945 -0.0924849 1.02941)
(12.3858 0.369507 0.716015)
(11.8548 -0.228947 1.10278)
(12.1454 -0.317394 0.911176)
(12.3401 -0.219484 1.03277)
(12.431 0.119534 0.791207)
(11.621 -0.612663 0.719914)
(11.0727 0.0528307 -0.00800768)
(11.0217 0.0815579 -0.0281344)
(11.6144 0.276574 0.0833498)
(11.1933 0.336216 -0.0627761)
(11.0905 0.298258 -0.0478564)
(11.9038 -0.88853 1.0956)
(11.8181 0.0348584 0.630896)
(11.4883 -0.818022 0.727974)
(11.1311 -0.133891 0.0704383)
(11.1022 -0.111536 0.0330765)
(11.0404 -0.0158075 -0.00747547)
(11.0861 -0.0204815 0.0990714)
(11.0771 -0.115359 0.194208)
(11.0616 -0.193364 0.274843)
(13.2663 2.15398 -0.317477)
(11.4115 -0.0482918 0.644833)
(11.3208 -0.104959 0.481651)
(11.0471 -0.197482 0.293169)
(10.8896 -0.104351 0.0626967)
(12.4966 0.541921 0.303568)
(11.9921 0.399911 0.131725)
(11.9404 0.451227 0.0805944)
(11.8742 0.454001 0.0460279)
(11.8875 0.407691 0.0986299)
(12.4463 -0.816573 0.0636416)
(11.8086 -0.480996 1.07622)
(11.5912 -0.802854 0.777733)
(12.082 -0.428936 1.26626)
(12.3172 -0.785846 1.16368)
(12.0318 -0.720378 1.47983)
(12.3162 -0.434797 0.457391)
(12.5516 -0.552137 0.398104)
(12.0804 0.18883 0.45512)
(12.5127 -0.101041 0.0735355)
(12.3409 -0.259296 0.305477)
(10.4856 -0.0829907 0.0223717)
(11.0822 -0.190948 -0.038031)
(11.3937 -0.297113 0.0210124)
(11.3942 0.158893 -0.02157)
(11.0646 0.00980499 -0.022733)
(12.0767 -0.606033 0.992185)
(11.7707 -0.608686 0.633739)
(11.5334 -0.891268 0.991763)
(11.4352 -0.934873 0.995959)
(11.4107 -0.673295 0.407635)
(11.0064 -0.680549 0.532637)
(10.9093 0.312234 0.0402587)
(12.4288 1.5104 -0.654331)
(11.4419 -0.417064 -0.11033)
(10.9748 -0.376982 0.17092)
(11.6455 -0.144583 0.0483084)
(12.5259 4.67107 -4.16286)
(11.7863 1.37026 -0.671509)
(10.8531 -0.333454 -0.065122)
(10.9097 -0.312936 -0.0824701)
(10.9581 -0.254051 -0.101782)
(11.8625 -0.595307 0.440655)
(10.895 -0.292574 -0.0824775)
(10.8003 -0.23098 -0.0528136)
(10.6843 -0.377899 0.0737519)
(10.7245 -0.387675 0.116268)
(13.1983 0.796119 -0.17367)
(11.5733 -0.103173 0.129901)
(12.0169 0.317133 0.499591)
(10.4969 0.0119836 -0.0429138)
(12.0733 0.95097 -1.77748)
(10.6243 -0.316778 0.0725158)
(8.13468 2.32962 -0.76818)
(13.2335 1.02095 -1.57297)
(10.6274 2.13389 -1.91743)
(12.1729 1.32627 0.0853817)
(12.8993 0.981497 -0.31713)
(10.793 -0.398798 0.0677722)
(12.325 -0.498277 1.27205)
(12.8978 0.895251 -0.218229)
(12.873 0.826192 0.110795)
(10.6069 -0.0298175 -0.0337382)
(13.0707 0.496603 -0.295448)
(12.8367 0.907399 -0.101609)
(12.624 0.521794 0.596811)
(11.7067 0.256564 0.163443)
(11.1533 0.139429 -0.0445997)
(12.7446 0.610212 0.464493)
(11.7871 0.420275 -0.0368244)
(10.5095 -0.187199 0.0308103)
(10.7663 0.180994 0.0258855)
(11.6835 0.38639 -0.0761569)
(12.1894 1.5985 -0.685285)
(11.7234 0.401199 0.00480438)
(11.786 0.458511 -0.0113329)
(10.9747 0.726975 -0.33409)
(11.9525 0.39673 0.0695984)
(11.7204 0.339482 -0.0194758)
(11.613 0.138148 0.236941)
(11.8596 0.593724 -0.308062)
(11.5432 0.162128 0.460386)
(12.0642 0.278169 0.282802)
(11.9989 0.49387 -0.147224)
(12.0463 0.459684 -0.0547798)
(11.4312 1.02011 -0.739884)
(11.8182 0.444211 -0.103532)
(11.8955 0.175882 0.621672)
(12.8058 1.58454 -1.3755)
(11.7864 0.332571 1.13537)
(10.6899 -0.186656 -0.012548)
(5.08579 0.0495468 0.0392097)
(11.648 0.063374 0.531302)
(10.9823 0.0569929 -0.0316668)
(12.285 0.292784 1.13143)
(11.7432 0.111269 0.551091)
(11.3379 0.0342623 0.525943)
(11.5643 0.0758629 0.755662)
(11.0892 -0.466194 0.0727098)
(12.6982 0.821851 0.470236)
(12.3369 0.21175 1.12287)
(12.4508 0.851218 0.570112)
(11.4065 -0.0994877 0.707119)
(12.6125 0.7558 0.262058)
(11.153 0.531622 0.0771078)
(12.2502 0.498175 1.00688)
(12.1366 -0.540359 0.928888)
(10.9432 -0.649438 0.486009)
(11.0665 -0.409718 0.558803)
(12.3947 1.08828 0.520598)
(11.9953 -0.276184 0.597533)
(10.7931 -0.161787 0.059546)
(11.1232 -0.761547 -0.187249)
(11.6709 0.295691 0.0417715)
(12.5385 0.516411 0.593769)
(11.0007 -0.418732 0.539486)
(10.8695 -0.0977988 0.0437994)
(11.8372 0.122737 0.598592)
(13.1547 -0.0222747 -0.340654)
(10.319 2.19967 -0.424986)
(9.52395 1.71615 -0.316018)
(11.4817 -0.0170741 0.578422)
(11.0995 -0.0406385 0.0656356)
(12.5086 0.900404 -0.455955)
(10.0958 4.63891 -1.32891)
(11.3737 0.17786 0.145487)
(11.1734 0.341041 -0.0254838)
(10.9261 -0.497744 0.271638)
(11.1684 0.418785 -0.0714815)
(11.401 0.254229 0.0880442)
(12.1751 -0.777331 0.832101)
(11.2267 -0.0187946 -0.0130301)
(12.0033 0.419361 0.119828)
(11.2822 0.177508 -0.014776)
(11.71 0.492618 -0.11714)
(11.3826 -0.00129092 0.0477089)
(10.6828 -0.182706 0.0310249)
(12.8137 -0.474795 -0.146964)
(11.2642 -0.0270429 0.0361487)
(11.194 0.0872846 -0.00450368)
(12.7432 0.509302 0.504688)
(11.2334 -0.424509 -0.0915765)
(11.1403 0.573963 -0.13181)
(10.744 0.455801 -0.0572333)
(10.7935 -0.420439 0.141687)
(11.0641 0.171226 -0.0486924)
(12.4211 0.472826 0.791088)
(11.0204 0.101517 -0.0379879)
(11.4363 0.433936 -0.042118)
(11.3852 -0.941235 0.864974)
(10.9894 1.24673 -0.509949)
(12.173 3.67461 -4.27756)
(11.4498 0.0304579 -0.00638071)
(11.4052 -0.170007 0.0163477)
(11.4622 0.189957 0.0623541)
(11.1829 0.0486816 0.0363929)
(11.0009 0.240889 -0.0257623)
(11.2254 0.0819234 0.000905687)
(10.7608 0.0942842 0.00468936)
(11.4221 -0.208167 -0.195296)
(10.7693 -0.174201 0.064684)
(12.5132 0.515487 0.717366)
(12.4281 -0.254895 0.788819)
(10.9133 0.169997 0.0799951)
(6.67436 0.788062 0.24083)
(11.771 -0.852352 1.24186)
(11.4296 0.81845 -0.906375)
(11.3873 -0.151051 0.238396)
(11.1547 0.12044 0.0674066)
(12.3787 0.409448 0.861525)
(10.7193 0.079342 -0.0173828)
(10.8191 -0.679493 0.110556)
(11.3068 -0.394251 0.0328602)
(11.0807 -0.506635 0.274807)
(11.9832 -0.664143 0.162969)
(11.9662 0.454433 1.29707)
(8.34534 0.813567 0.339001)
(11.0247 -0.213112 0.0526776)
(11.3184 0.592934 0.0538084)
(11.3636 -0.468378 -0.399066)
(10.9179 -0.228548 0.0241345)
(11.4122 -0.0420553 -0.00177553)
(11.8283 0.144495 0.460388)
(10.3736 0.648153 1.95252)
(11.0801 -0.810083 0.0635785)
(11.844 0.267795 -0.107718)
(11.1963 2.18159 -1.61546)
(11.2518 0.824308 -0.126637)
(11.2301 1.43277 -1.01751)
(8.37785 1.44738 0.529475)
(10.5336 -0.074747 0.0213326)
(10.6434 -0.103013 -0.0274633)
(10.8177 0.455401 -0.0589485)
(11.0003 1.34071 -1.69938)
(10.9168 -0.126558 0.00764859)
(11.2539 0.345575 -0.0412991)
(11.4908 -0.987482 0.32836)
(11.0831 0.602258 -0.0582675)
(12.3866 -0.0901579 0.390304)
(11.992 -0.39927 1.45305)
(9.63021 4.60422 -4.29399)
(12.7972 0.872298 -0.0337853)
(11.1375 2.49096 -2.06154)
(7.40108 2.05837 -0.348355)
(10.9325 1.06509 -0.405742)
(11.6339 0.693784 -0.376782)
(10.5556 1.20424 -0.16616)
(11.8095 1.21722 -0.102804)
(10.6022 0.682837 -0.170094)
(10.7547 0.58798 0.0636962)
(11.3541 1.44592 -2.15889)
(11.8182 0.98718 -0.823024)
(11.2671 1.45385 -0.796054)
(11.2797 0.0577409 0.0604476)
(5.92272 5.41898 -3.17065)
(12.015 -0.0611397 0.255205)
(11.2169 0.682894 0.0231855)
(11.3628 0.310213 -0.0414902)
(10.9591 -0.28897 -0.00309291)
(12.4426 2.17673 -0.604115)
(12.2504 0.554777 0.567284)
(8.7818 0.943007 0.275376)
(11.5048 1.2227 -1.36508)
(6.37116 3.96996 -1.24828)
(12.122 1.03091 0.0108538)
(11.8854 0.380339 0.0437474)
(12.4722 0.585793 0.75676)
(10.7673 0.755257 -0.210609)
(11.997 -0.40215 0.341381)
(11.7795 0.119648 -0.156102)
(12.2177 -0.760807 0.994579)
(12.9743 0.715858 -0.210015)
(11.6189 0.167453 0.266619)
(11.555 0.396024 -0.0594289)
(10.9063 0.672481 -0.214256)
(11.718 0.226846 0.245592)
(10.7131 -0.0382436 0.0350949)
(11.9541 0.991415 -0.546626)
(12.481 2.04555 -1.92914)
(12.8143 2.82047 -2.92541)
(11.9842 1.33656 -1.2539)
(13.049 2.66754 -5.85453)
(4.68874 0.567941 0.0075338)
(12.5699 0.569964 0.488737)
(9.89623 2.08616 -1.52949)
(5.91302 0.672037 0.51371)
(10.7753 0.11125 0.0237026)
(11.0479 0.933438 -0.0452528)
(10.833 0.264259 0.0333736)
(10.9187 0.121621 0.00895455)
(10.957 0.909413 -0.204601)
(10.8838 -0.111207 0.0291687)
(10.9505 0.192085 -0.0203419)
(11.5814 -0.420749 -0.205598)
(10.8177 0.290558 0.0423012)
(10.598 0.387425 -0.0501861)
(10.8594 0.492572 0.105295)
(10.5573 0.32426 -0.0430271)
(12.1404 1.47454 -1.16002)
(10.7423 0.509674 -0.0367601)
(10.9111 -0.000921292 -0.00684472)
(10.8239 0.511127 0.0848111)
(10.6105 0.649966 0.00434812)
(11.3085 0.212152 -0.00198911)
(10.0793 1.38151 -1.01862)
(11.0743 1.68666 -0.994093)
(11.3285 -0.313372 0.756795)
(11.3149 0.642943 -0.0346542)
(11.2909 0.717781 -0.160748)
(12.5465 0.163767 0.814763)
(10.9801 0.318725 -0.0848933)
(10.6208 0.140779 0.0251742)
(10.9311 0.0753155 0.0200217)
(10.7513 -0.0972721 0.0436184)
(11.0352 0.45172 0.0688592)
(11.2505 0.975526 0.00748512)
(11.1407 -0.0187449 0.0681527)
(10.8844 -0.488539 0.265922)
(9.50685 -1.88258 3.06981)
(10.91 1.85901 -3.76654)
(12.2331 0.240241 0.258435)
(12.518 0.323325 -0.0647248)
(11.3673 0.0819245 0.217218)
(11.7468 -0.0318766 0.643369)
(11.7932 -0.515674 0.346867)
(12.165 0.0794139 0.581936)
(11.2145 1.41515 -2.46287)
(12.1208 1.12433 -0.0149605)
(11.0247 0.329781 0.0334573)
(11.1332 0.0944236 -0.0703704)
(10.8051 0.148616 0.000611046)
(10.6588 -0.141796 0.0506502)
(11.1768 1.01019 -0.127699)
(10.7665 -0.23057 -0.00340178)
(10.6934 -0.169755 0.0352313)
(11.5994 0.215335 0.0594786)
(11.1977 0.149489 -0.0242032)
(11.1212 0.176151 -0.0139211)
(11.2657 0.581053 0.0887296)
(10.8757 0.415796 0.0623636)
(10.7481 -0.176372 -0.0174219)
(10.7206 -0.244669 -0.00360463)
(11.5844 1.60455 -1.46156)
(11.1562 0.67195 0.1096)
(10.715 0.108268 -0.0236812)
(10.7049 0.259405 0.0371918)
(11.2018 -0.0755362 0.185291)
(11.0398 0.20541 -0.0116786)
(10.6657 0.00395249 -0.0586534)
(11.4967 0.100647 -0.0297478)
(10.9662 0.420503 0.0683637)
(10.931 0.344103 0.0359127)
(11.1117 0.548671 0.0928912)
(10.7575 -0.130585 0.0304379)
(10.9963 -1.18346 -0.232193)
(10.7146 -0.00995748 0.0426412)
(11.1047 0.563528 0.103927)
(11.1728 -0.0375114 0.14658)
(10.6763 -0.0168745 0.0309789)
(11.3664 0.977217 0.0196311)
(11.1377 0.720431 0.034473)
(13.0637 0.808754 -1.26694)
(11.2063 0.557555 -0.202657)
(10.867 -0.222597 0.112917)
(12.1566 3.3687 -0.601348)
(12.4429 -0.203837 0.589184)
(11.2977 0.819198 -0.966044)
(10.8765 -0.560886 0.536679)
(12.1374 1.21068 -0.309962)
(4.20101 -0.227094 0.876286)
(12.4657 0.394216 0.261613)
(7.28884 0.155394 0.544401)
(12.7222 0.0929309 0.682589)
(8.83917 4.2389 -3.61686)
(10.3984 2.00153 -3.28208)
(5.57508 0.00247898 0.255953)
(12.9686 1.80784 -0.984834)
(4.9559 0.698989 -1.37449)
(11.712 0.850824 -0.236183)
(8.61244 2.9566 -0.950211)
(11.0122 1.21153 0.05323)
(8.13399 -0.409802 1.76936)
(2.15946 -1.14228 -0.414907)
(4.96023 0.796328 0.489525)
(10.8437 1.70382 -0.167717)
(11.191 1.53129 -0.217995)
(11.3944 1.81638 -0.329886)
(10.7795 2.1457 -1.05079)
(10.5792 2.17174 -0.850581)
(10.6769 1.90712 -0.586023)
(10.7122 -0.0562209 0.0447146)
(13.1373 2.57241 -0.369448)
(10.9975 1.00119 -0.0443045)
(10.9209 0.683047 -0.0350123)
(10.6482 0.842028 -0.026208)
(11.0722 0.845685 -0.166084)
(10.7446 0.331363 -0.0527016)
(10.8092 0.327285 -0.109075)
(11.1851 0.698039 -0.0254488)
(10.6251 -0.152037 0.00348397)
(10.8611 0.0985189 -0.0395905)
(11.4725 0.0856273 -0.152564)
(11.3004 0.153478 -0.0996026)
(10.7322 0.21049 0.0360473)
(11.0191 -0.446464 0.118179)
(10.5452 -0.0436006 0.0149824)
(11.2238 -0.197845 -0.212133)
(11.8132 1.77123 -2.21105)
(11.3349 1.22678 -0.580909)
(11.6192 -0.154275 -0.0917658)
(11.1978 0.0390092 -0.094667)
(10.9911 -0.241934 0.252806)
(11.8276 -0.205943 1.73328)
(12.3417 0.381564 0.33601)
(10.9757 -0.467192 0.295775)
(11.6004 0.0250132 0.253865)
(12.1398 2.73327 -2.24102)
(11.0003 0.353672 -0.0385591)
(11.832 -0.0930337 0.272067)
(3.34299 -0.705202 0.625868)
(10.5611 0.835452 -0.319604)
(12.3144 0.244837 0.735668)
(11.6456 -0.245422 0.541291)
(10.8053 -0.514428 -0.0195682)
(10.8894 -0.118488 -0.0263576)
(12.3955 0.77095 0.0889522)
(11.7543 0.276099 0.179181)
(11.0511 0.391223 -0.0753925)
(11.071 -0.000534956 -0.00272274)
(11.7773 0.22736 0.243255)
(10.726 1.52039 -0.181688)
(11.3791 -0.24235 -0.213668)
(11.5384 0.316767 0.0129522)
(11.2432 0.122803 0.0730528)
(11.7005 1.76157 -0.997863)
(11.8474 0.389553 0.0248307)
(11.0225 -0.357726 0.0905019)
(10.2168 1.45705 -1.03349)
(10.989 0.0214789 -0.0228054)
(10.8281 0.170537 0.00761249)
(10.6533 0.0205095 0.0179609)
(10.8952 -3.87113e-05 -0.0135227)
(10.4274 -0.0474556 -0.00824684)
(10.9257 0.296571 0.0352735)
(10.8312 -0.170289 -0.0189679)
(10.7776 -0.0269176 -0.0318853)
(11.952 0.198435 0.465118)
(11.9714 0.849868 -0.372595)
(11.6629 -0.0197367 0.0149358)
(11.9698 0.587675 -0.0845561)
(12.0733 0.607052 -0.12121)
(10.2995 2.09801 -1.2899)
(11.2487 1.29371 -1.59344)
(11.592 0.61154 -0.251866)
(13.6193 3.54193 -3.20287)
(11.3973 -0.162488 0.570705)
(12.3661 4.68027 -1.5589)
(11.8888 0.970718 -1.00316)
(12.0789 0.419314 1.17131)
(12.252 -0.0475007 0.247757)
(3.74967 -0.201166 0.0202833)
(11.3768 1.03452 -1.16511)
(11.0946 1.21571 -0.522291)
(11.093 0.0135601 -0.061839)
(12.5378 0.992557 -0.220702)
(10.7821 0.748399 -0.253364)
(13.0513 0.672587 -0.33952)
(11.7331 0.37784 -0.00698934)
(10.6933 0.016499 -0.0371127)
(10.9384 0.837149 -0.445653)
(12.2778 1.17151 0.142155)
(10.8004 0.0254327 0.0304692)
(11.3454 -0.182917 -0.0870978)
(11.0214 1.4872 -0.0894966)
(10.8387 0.948313 -0.213682)
(10.8643 0.205615 -0.013298)
(10.938 0.282665 -0.0710608)
(11.4113 0.122367 -0.00747467)
(10.8353 0.243591 -0.0136154)
(11.333 0.670385 0.0431734)
(11.3188 -0.296629 -0.0762288)
(11.0222 0.10227 -0.024919)
(11.3214 0.498406 0.0607132)
(10.9723 0.126173 -0.0399978)
(10.8879 0.0467192 0.000403949)
(11.2173 0.618291 0.0975995)
(12.6747 2.18363 -0.357137)
(10.857 0.108451 0.00495931)
(10.7438 0.257149 -0.018493)
(11.1086 0.270127 0.00195675)
(11.5575 -0.169429 0.893662)
(10.9727 0.140736 -0.0409937)
(10.9212 -0.75705 -0.103332)
(10.8561 -0.0974294 0.0395306)
(10.9768 -0.266228 0.128657)
(11.352 -0.190703 0.608884)
(10.929 -0.270936 -0.0816503)
(5.06814 -0.043698 0.84165)
(12.9209 0.726741 -0.059454)
(10.8844 0.377599 -0.123987)
(10.7762 -0.213356 0.042357)
(11.2444 -0.173145 0.401679)
(12.3635 0.790923 -0.830807)
(11.3606 0.539247 -0.0268258)
(11.6583 -0.346619 0.630135)
(11.2431 0.160808 0.0460852)
(11.8819 -0.0284046 0.258133)
(11.9352 1.13265 -0.426285)
(6.10976 1.78096 -3.60592)
(11.4225 0.284241 0.00562538)
(12.6308 0.816364 -0.139644)
(12.7598 1.06625 -0.258556)
(10.5129 1.71709 -1.52097)
(11.8729 1.66244 -0.879767)
(11.0799 0.222897 -0.0320251)
(12.3981 0.625257 -0.382686)
(12.2647 0.541845 -0.138237)
(11.8721 0.172294 0.0348279)
(11.8431 0.673764 -0.405713)
(12.1759 0.899061 -0.594441)
(9.64571 3.22298 -1.53098)
(10.8222 0.122215 0.0127628)
(10.4105 1.08444 -0.874412)
(10.797 0.0187794 0.013557)
(8.9828 -0.260057 3.30376)
(10.8619 0.320539 -0.0529675)
(11.6375 1.95142 -0.328555)
(11.5737 1.03088 0.00148776)
(10.6167 0.688683 -0.0971435)
(13.1369 0.83596 -0.547064)
(12.8209 1.59601 -0.52477)
(12.5346 0.603409 -0.0616023)
(9.10073 2.79826 -4.85132)
(12.0746 -0.684233 0.886657)
(12.8534 1.33454 -1.71266)
(11.9582 1.42172 -0.279458)
(11.733 1.84499 -0.751793)
(11.7982 1.02304 -1.06683)
(11.586 1.67213 -1.37109)
(12.151 0.643431 -0.454458)
(11.7771 1.25557 -2.35105)
(12.5088 1.60281 -3.05993)
(12.2955 1.62743 -4.10137)
(10.6991 1.43938 -0.889214)
(6.19873 0.802762 -0.153013)
(12.6165 1.45982 -0.512048)
(10.7152 0.577905 1.35108)
(12.0503 1.74152 -0.844543)
(7.08925 2.32628 -0.511453)
(3.71241 0.363884 0.174105)
(10.5911 0.79058 -4.26034)
(12.7906 0.710507 -0.436717)
(11.2553 2.27109 -3.02995)
(10.8804 2.4006 -2.98973)
(3.35636 0.273968 0.00751223)
(12.9782 2.34086 -3.63421)
(12.7042 1.87355 -3.53829)
(6.80982 0.987193 -0.250238)
(6.13056 0.0910793 0.516596)
(9.27228 2.8177 -3.00745)
(12.6014 1.5678 -1.74616)
(10.8813 0.853983 -0.57712)
(12.6338 0.63693 0.083163)
(12.539 1.28494 -1.1245)
(12.6273 1.4904 -1.56917)
(12.1989 0.894626 -0.738115)
(11.4165 1.13387 -0.80994)
(12.7544 1.01194 -0.245509)
(12.7912 1.17278 -0.738332)
(12.3223 1.22881 -0.244475)
(13.0183 1.50306 -0.794232)
(11.8217 -0.37435 1.25102)
(11.9094 0.246974 0.444266)
(12.974 2.83531 -1.55442)
(12.7988 3.47915 -1.49366)
(11.2528 1.54098 -0.588843)
(11.6771 0.412285 -0.020217)
(10.9516 0.685885 -0.393052)
(11.2057 1.19222 -2.34059)
(11.3734 1.01564 -1.67015)
(11.8773 0.934961 -1.58525)
(11.65 0.997092 -1.4961)
(11.371 0.99415 -0.371056)
(11.4333 1.02447 -0.31441)
(11.4912 0.364023 0.0324743)
(11.275 0.248008 -0.0390116)
(10.9151 0.538304 -0.152178)
(10.9616 0.516746 -0.128499)
(11.6358 0.856917 -0.210256)
(11.2282 0.17928 -0.0113967)
(11.3974 0.763239 -0.354263)
(10.674 0.994112 -0.3618)
(10.8668 0.709904 -0.214633)
(10.5842 0.92393 -0.341231)
(10.1436 1.71372 -0.850497)
(10.0105 1.65794 -0.849046)
(12.4805 0.556813 0.640415)
(11.6485 0.272813 0.152415)
(11.6665 0.176377 0.259326)
(11.5094 0.239453 0.036254)
(12.181 0.567329 -0.136249)
(11.3754 0.441918 -0.053771)
(11.313 0.135522 0.0272068)
(11.0894 -1.4477 0.240849)
(11.4626 -0.49494 -0.0605144)
(11.5342 -0.566863 0.893303)
(11.9353 -0.41084 0.806636)
(11.728 -0.571193 1.1496)
(11.6542 -0.856612 0.819288)
(11.4762 -1.17727 0.67858)
(11.8411 -0.375697 0.866241)
(11.9041 -0.516745 1.12319)
(11.1321 -0.370697 0.685173)
(11.142 -0.272303 0.395223)
(11.2758 -0.0779589 0.298782)
(10.4803 -0.0255991 0.0342814)
(13.1014 1.59171 -0.501768)
(11.8676 -0.885712 1.61632)
(11.5716 0.27245 0.000253855)
(11.9433 -1.13869 1.6705)
(12.1038 -1.12457 1.46235)
(11.9184 -0.881781 1.50142)
(11.9001 -1.00317 -0.197205)
(12.0724 -1.12443 -0.115701)
(12.4785 -0.14077 -0.324528)
(12.4965 -0.120776 -0.244884)
(11.3648 1.57768 -0.689972)
(11.7436 0.734037 -0.476895)
(11.5834 0.714875 -0.450443)
(11.3215 0.683105 -0.575888)
(10.3672 1.1356 -1.24037)
(10.7573 1.07205 -1.19138)
(10.6313 1.07699 -0.909393)
(10.3457 -0.0160428 -0.00448856)
(12.6406 0.845435 -0.934255)
(12.9049 1.17462 -2.44008)
(10.6463 0.558859 0.250803)
(11.575 0.463735 -0.039003)
(11.0144 0.510198 -0.00925679)
(11.458 0.459996 -0.283166)
(11.6544 0.50808 -0.303968)
(11.0275 -0.511629 0.265034)
(11.0484 -0.38854 0.148242)
(11.5562 0.918672 -0.552085)
(10.3607 -0.0463011 0.0240609)
(12.2101 1.26095 -1.32716)
(12.9228 1.0854 -0.753609)
(12.9918 1.0227 -0.714462)
(12.2856 1.41555 -1.92076)
(12.5605 1.57214 -1.91095)
(11.7963 1.28649 -1.41858)
(11.5573 2.19816 -1.40657)
(12.2107 0.362993 -0.0105244)
(11.9083 0.583196 -0.226993)
(12.4173 0.158145 -0.0250509)
(12.2234 1.54888 -0.31365)
(12.1828 2.20539 -0.454235)
(12.7721 1.7729 -0.436822)
(10.5664 0.00750539 -0.0253609)
(10.6946 0.154756 -0.0127119)
(10.6462 0.116745 -0.0310513)
(10.6934 0.131426 -0.0253099)
(12.4879 0.631905 -0.103032)
(12.422 0.583219 0.104849)
(12.3239 0.10515 0.0682713)
(12.7698 0.173316 -0.131781)
(12.5902 0.64217 -0.0895594)
(10.8516 0.774428 -0.350119)
(10.7411 0.540321 -0.158455)
(10.741 0.701056 -0.284085)
(11.2517 -0.0944789 -0.178465)
(11.2591 -0.0862893 -0.167614)
(11.4582 -0.121212 -0.458765)
(11.5066 -0.0602704 -0.367714)
(11.2364 -0.283309 0.249646)
(10.9853 -0.362443 0.372774)
(11.3168 0.0335717 0.160406)
(10.9196 -0.286169 0.135607)
(10.8363 -0.504887 0.292672)
(10.9954 -0.221862 0.109851)
(10.9763 -0.0435879 -0.0137304)
(10.8431 0.0299216 -0.00179487)
(11.0981 0.048381 -0.0308966)
(11.2597 -0.29893 -0.0698133)
(11.4516 0.360379 0.000571756)
(11.3544 0.476017 -0.093173)
(11.2761 0.495076 -0.0336574)
(11.2028 0.19672 -0.00285644)
(10.8829 -0.372702 -0.0425008)
(10.7179 -0.302764 0.0213508)
(11.1977 -0.162092 0.372014)
(11.0087 0.257591 -0.00961267)
(10.664 -0.234481 0.0347859)
(10.9977 -0.450185 -0.168486)
(10.9174 0.147856 -0.00591263)
(10.893 0.438383 -0.132359)
(12.9549 1.38689 -1.49323)
(11.8647 -0.133748 1.56431)
(12.0456 0.0844246 0.535168)
(11.9573 0.971961 -1.25625)
(10.8453 -0.899578 0.214215)
(12.8604 1.20575 -1.14596)
(12.1918 0.0528679 0.681267)
(12.2516 0.803856 0.0923853)
(12.7802 0.755796 0.237126)
(11.6638 0.649999 -0.186386)
(11.3228 0.504761 -0.0132319)
(10.9755 -0.828572 -0.0778816)
(12.5199 1.11362 -0.239339)
(11.7355 0.383639 0.0183407)
(11.4584 0.976567 -0.0825099)
(10.7516 -0.0782824 0.0165104)
(12.6408 0.606335 0.269344)
(11.3021 1.81723 -2.78942)
(11.3598 0.479255 -0.12177)
(11.7371 -0.010203 0.717532)
(12.2482 0.864768 -1.24727)
(11.6677 -0.107988 0.809059)
(10.8487 -0.277035 0.237037)
(10.6063 -0.158932 0.0266591)
(11.0977 -0.421873 0.0800292)
(11.0091 -0.164663 0.0882388)
(11.0118 -0.351569 0.271937)