/*--------------------------------*- C++ -*----------------------------------*\
| =========                 |                                                 |
| \\      /  F ield         | OpenFOAM: The Open Source CFD Toolbox           |
|  \\    /   O peration     | Version:  2506                                  |
|   \\  /    A nd           | Website:  www.openfoam.com                      |
|    \\/     M anipulation  |                                                 |
\*---------------------------------------------------------------------------*/
FoamFile
{
    version     2.0;
    format      ascii;
    arch        "LSB;label=32;scalar=64";
    class       volScalarField;
    location    "0.0882685";
    object      omega;
}
// * * * * * * * * * * * * * * * * * * * * * * * * * * * * * * * * * * * * * //

dimensions      [0 0 -1 0 0 0 0];

internalField   nonuniform List<scalar> 
3919
(
70.3298
69.3474
98.6839
133.242
77.7417
67.1736
101.399
61.3712
42.9112
75.8821
68.5319
53.894
67.3064
55.4496
65.0045
93.4312
46.0693
48.1233
57.0507
59.7863
51.9311
79.1008
40.0056
46.2285
40.4307
69.3917
42.5196
49.0525
104.611
82.7836
68.6547
51.6318
41.5503
59.0274
44.6639
44.9269
146.611
70.6072
44.3399
69.8841
64.9228
52.0443
43.9674
70.3237
162.588
108.111
178.442
82.0691
58.8871
40.6831
42.31
75.4636
41.239
65.5167
90.1643
40.7399
118.233
122.863
42.5296
62.0684
120.439
77.8917
102.01
89.2149
55.366
66.3799
43.1116
82.6978
59.2719
40.6123
47.2489
84.2891
113.541
102.791
120.313
91.8693
46.3993
41.9662
52.1901
70.3158
72.6097
40.8964
44.8465
51.7197
51.23
49.0874
58.0636
82.1318
80.3293
78.3041
92.7645
128.277
126.736
41.812
80.9998
80.1036
77.8587
63.9629
85.6925
48.1436
43.6984
67.1727
99.4648
45.4369
142.957
44.7011
90.8342
81.2074
72.588
79.066
87.2764
65.1315
69.7631
46.9267
46.367
48.8972
47.3264
57.1801
79.3003
74.4123
63.7707
65.7002
41.5525
101.349
46.2281
50.1681
42.8774
67.6566
107.5
60.3865
44.7117
71.9655
123.232
40.558
57.8015
58.3175
66.803
59.5379
67.5209
73.564
57.3536
39.679
71.6135
41.5939
50.921
61.6793
141.263
43.9406
46.1646
57.8347
67.8948
43.642
54.1434
55.3042
47.0311
43.1988
41.864
69.6794
40.9256
68.8519
51.0054
84.9619
121.874
48.2649
92.5857
118.851
122.137
76.4145
67.1474
40.9267
163.554
58.7021
47.3314
45.4164
115.75
66.4795
81.5477
47.7101
77.4257
83.7099
180.455
83.5623
41.9554
68.2034
81.3984
66.8619
87.0883
56.5985
70.0009
77.6335
63.7291
66.1415
109.411
60.5851
75.8752
43.6502
91.8944
45.4007
88.8726
130.998
42.6755
74.718
45.378
68.0094
87.0183
40.5177
40.2962
111.365
68.8044
78.7449
116.793
44.8458
40.8524
40.81
87.0843
40.7703
40.6233
70.9655
70.2861
46.3636
41.0926
59.8612
67.3863
65.9558
41.702
47.3373
77.2805
69.2561
79.733
62.8863
114.944
56.257
120.942
68.2566
67.5984
65.0314
52.6888
53.3361
71.3777
66.4368
187.962
88.4142
88.0528
180.535
184.303
70.8146
93.3206
121.372
158.561
96.898
102.432
181.126
122.028
104.685
104.537
110.836
89.0094
71.9166
78.0756
106.334
68.6248
82.2443
121.287
119.882
84.9307
150.048
85.6329
180.056
76.6833
79.1599
56.18
105.996
104.6
140.45
79.6706
77.1068
42.7474
148.614
81.9043
86.9949
85.0262
60.539
118.639
53.7874
96.9032
53.9821
42.2239
101.606
78.7946
171.95
41.9939
66.3875
68.711
40.4992
76.2884
145.914
51.5047
63.0182
46.3752
160.299
67.9672
73.4438
66.3028
69.9875
45.8755
76.0537
154.629
93.583
48.3712
68.6911
86.1828
84.9659
66.5077
109.193
85.3328
64.1024
77.6634
167.221
56.3746
67.6903
73.7601
42.9702
71.8054
69.93
68.5859
76.9521
59.0663
59.1515
85.2174
50.2242
59.0219
40.8473
47.5538
78.4152
47.5711
44.0614
178.743
93.6509
76.4147
62.7158
83.2122
79.8117
65.3157
119.645
65.3559
42.3067
87.0609
90.2458
59.8023
62.978
134.498
63.3952
42.2822
60.3281
71.9535
82.7103
72.8041
99.129
87.1573
40.6685
44.431
60.137
61.8567
53.4267
40.8561
41.242
41.4489
91.0785
48.4613
41.6177
55.9532
78.9327
40.5446
66.4106
92.373
76.8908
46.5012
44.0057
50.9497
76.5274
84.2999
148.132
88.709
88.0477
92.6344
53.4709
98.3635
81.6831
65.3133
87.2528
73.3218
107.572
66.1295
183.488
88.9755
86.5572
161.48
125.906
164.41
41.3267
55.6833
84.5351
98.2184
41.7844
68.2845
66.7197
60.3572
102.854
100.22
125.211
79.5781
66.8577
74.0002
62.7943
119.423
77.1656
97.2645
84.8489
123.923
45.9474
64.8605
119.348
51.142
119.099
114.831
74.1273
43.3853
46.3522
81.8812
74.2684
50.9164
66.5036
59.2372
70.5971
58.5775
110.011
93.2229
109.602
90.0429
199.577
195.335
96.9287
112.366
103.107
121.604
89.547
90.2941
98.3635
66.6802
77.1084
64.2923
104.685
70.6669
63.073
141.86
117.257
48.6177
82.7199
84.6085
81.5668
95.1466
162.172
163.374
95.4947
124.371
103.461
44.0489
58.9314
42.9423
45.7375
50.046
55.0524
93.7846
145.152
67.1231
84.8853
99.8252
142.576
131.411
49.8302
99.3473
59.6662
86.787
42.0737
84.9571
84.89
71.0085
77.2096
93.7464
87.8438
41.309
59.4955
84.7313
122.886
78.6645
74.4728
62.1719
119.406
60.005
87.6397
64.8835
73.3433
60.7445
138.715
65.4212
68.3962
70.5619
88.2888
126.698
71.5762
79.4136
80.7683
75.1665
67.5594
60.2111
50.6956
111.881
55.2563
74.9834
124.583
63.8382
87.6342
76.8677
47.348
74.5723
56.4916
67.9935
88.7804
94.7214
84.5692
139.231
110.181
108.878
47.9107
43.62
59.6463
88.6773
79.3542
222.371
113.171
226.406
97.2127
107.872
69.6709
52.2813
87.138
70.0087
76.4004
80.164
53.6701
110.029
53.7318
74.5904
106.178
114.34
180.575
129.225
115.201
122.18
104.664
103.327
72.8087
45.8305
44.7796
87.6424
59.3498
40.2332
84.8976
136.627
88.6205
43.6773
51.9052
72.1972
72.7263
171.736
80.2256
78.6546
76.4706
57.3641
66.7131
39.6994
41.8272
96.044
67.7981
87.4194
53.9301
77.9584
57.6742
85.8384
69.7949
86.9248
76.8495
94.1816
102.657
98.3386
98.2944
99.3818
97.126
95.6661
47.9103
60.7706
77.0415
45.393
47.6866
42.3675
56.7361
46.6107
95.7678
72.4209
75.4403
46.8068
83.2846
43.7192
68.8647
46.898
77.3859
69.4155
56.9937
42.2469
42.7653
92.7938
68.2201
88.3512
60.2958
67.3065
55.5537
53.0721
41.2372
74.5137
139.825
40.2027
59.0956
83.1558
62.0001
60.6725
82.3984
127.017
107.933
89.3583
156.84
41.1866
66.9745
67.9793
48.9598
41.682
180.807
57.7822
78.2642
63.9071
41.1513
40.892
53.7341
99.5279
43.5726
55.8691
45.3667
44.2434
46.3313
40.0855
86.9136
69.6052
102.479
44.6218
56.1747
90.7926
46.5435
68.146
85.4969
62.1977
79.8673
42.4129
61.1469
47.5234
40.9961
47.9035
42.7706
58.1158
50.3722
47.9609
61.0051
104.741
52.6158
95.3053
58.2218
42.5474
75.8018
89.1869
70.9165
48.3012
43.5487
95.1399
47.9401
42.774
76.1265
138.024
62.6444
40.7035
40.7961
68.5125
90.404
85.7856
40.6233
52.168
44.5694
91.6303
118.961
100.615
90.2355
82.1546
95.111
103.952
66.8289
51.4052
68.5258
60.4936
43.17
103.302
44.1939
44.1022
47.6667
49.5121
45.3628
75.386
44.655
40.5549
75.7644
68.1634
83.5494
79.0376
129.22
83.3554
75.7867
137.509
69.7843
40.4564
47.2018
41.5479
79.5476
53.8172
97.3654
69.6074
79.2196
79.8052
64.4088
53.514
57.5987
52.4523
99.0314
55.6776
60.0239
44.1044
95.8654
49.0084
41.2797
55.3429
59.8018
103.193
40.7334
65.0755
53.8446
123.597
40.9471
82.9615
113.608
67.8703
137.865
43.3672
61.6373
74.6878
97.5706
62.4891
47.3051
49.894
51.9767
94.5881
40.4127
80.5658
48.7503
68.935
63.0505
53.6388
67.6626
63.2506
88.2619
63.1393
76.2246
84.6441
43.0324
76.4208
170.76
87.2482
74.4283
46.7989
61.3435
45.9171
45.8615
41.3347
55.0369
74.3829
58.0353
86.5805
50.0404
39.7221
59.0433
42.9519
87.7294
52.665
81.2374
81.2864
51.1166
57.7755
48.9467
88.8201
80.4429
54.7537
41.2964
112.333
41.5794
99.2343
54.0006
59.5219
55.3916
65.1268
85.3262
44.494
42.7634
86.7458
52.8425
45.9243
45.2367
50.2236
44.5363
102.136
40.9328
65.2099
50.3693
96.9045
40.6049
61.3784
77.6491
45.0641
53.2452
51.8107
83.6194
125.599
50.3435
62.9252
39.5298
41.1286
139.031
63.53
41.6378
62.5525
47.2121
45.7679
82.0977
81.0948
116.755
68.122
55.6994
55.1286
120.628
53.9864
93.9607
67.13
61.9432
64.6124
74.127
86.6066
78.859
47.427
40.6291
40.2688
40.211
47.3145
45.1044
40.6826
57.7467
43.6565
75.3577
81.1696
129.451
67.9243
42.4843
99.0456
51.5531
41.4238
50.0344
71.1125
82.66
71.596
50.3067
43.6332
43.4814
87.0588
53.337
79.2101
98.6317
58.2632
49.8438
75.8472
124.939
86.1634
68.1665
88.4972
42.2966
48.0133
83.0417
64.2098
42.7257
77.526
50.321
46.6986
74.2004
80.1387
95.5264
48.2344
60.1389
45.4161
45.5526
118.819
66.4477
80.3212
111.924
49.4395
84.8358
39.7681
74.9998
43.1855
89.4942
41.497
73.7146
72.6784
69.2219
41.8809
40.6915
40.3745
40.6567
40.6361
39.8962
68.3417
82.7136
44.3614
45.8739
70.7993
147.005
83.0794
167.264
43.3863
51.4383
86.9968
53.48
48.8854
175.08
43.4906
51.5323
48.3991
40.414
79.6885
67.8211
77.6395
70.9
94.6547
77.4535
46.2936
44.0528
41.4008
60.2312
53.6015
48.3667
53.8272
110.942
84.8828
61.2434
41.8355
40.5559
59.9309
41.1233
42.0578
57.0267
79.7968
60.714
60.4162
41.018
44.8673
90.5605
85.6447
108.413
118.476
47.9658
91.9179
69.8092
95.5289
50.1787
41.5786
57.6185
46.0455
65.4622
53.0414
48.6964
57.4057
44.3285
56.5378
63.6137
78.4413
52.8343
40.9414
42.3583
47.0752
63.2991
41.7874
62.994
64.4634
76.0535
59.7068
84.7814
43.8846
46.5928
45.6223
47.8222
46.1831
44.0036
46.5392
46.3327
42.1863
44.8473
45.8845
42.0857
87.7601
78.6893
62.0152
68.2519
87.27
42.2257
48.6275
90.9053
47.2052
67.6438
89.8086
71.5429
64.2569
67.5721
44.6422
64.1283
47.4646
42.9839
95.1565
51.9035
92.7697
68.7035
59.4593
41.0791
64.3062
45.8538
79.446
65.1219
49.8801
41.603
77.6905
39.8226
40.6171
79.2625
42.9445
45.2554
53.0212
69.39
45.5932
62.3405
85.9084
47.662
77.745
96.7018
95.5127
65.9695
48.716
51.7981
52.3105
45.6999
46.3954
86.421
87.6176
66.607
65.0625
65.4466
77.1283
96.6586
64.9316
41.3862
57.588
61.4276
67.1186
43.4474
64.9062
84.7001
50.5581
87.5732
62.1817
76.2502
63.6273
66.1539
94.6756
65.0247
69.9773
66.6816
59.7702
60.9767
54.5006
45.5498
49.832
121.405
62.4356
44.1471
43.3639
45.8102
41.623
51.1228
52.921
74.3268
67.507
41.502
43.2598
133.398
62.4809
44.4925
65.7111
55.3872
57.718
41.8945
53.9476
128.053
92.0355
79.5946
46.6414
46.1234
64.059
49.0306
40.3335
71.4584
54.6432
60.5892
46.1714
84.7433
41.1837
40.6279
79.7681
80.5826
41.9333
67.4358
47.3779
76.7561
42.4133
162.639
48.0571
53.2533
49.9444
50.5511
89.9697
58.4204
44.3969
40.1098
42.5435
40.8345
48.4451
69.0574
81.5605
57.9844
90.1585
41.6133
42.8158
114.476
69.7713
44.8005
40.5202
48.6406
47.0572
54.1514
48.619
76.5006
40.9786
58.4289
40.7523
45.7335
58.3961
82.0017
64.3375
42.6354
67.5156
41.264
59.9863
64.9332
40.0953
42.3938
70.0454
86.4704
59.739
44.1104
43.8811
157.069
41.0888
40.6391
61.7833
173.908
60.8182
71.7931
49.1434
40.6787
42.523
70.1073
43.1373
43.3812
45.5082
50.7385
73.8936
42.6412
73.2434
74.695
63.0346
42.5351
43.4649
41.8564
60.0804
61.856
48.2845
55.1141
92.8506
115.863
50.5653
39.7781
66.4109
84.913
42.3796
42.5333
44.9508
44.6398
40.7706
45.1746
39.8336
54.4122
74.9751
68.409
45.3962
43.2275
42.1871
43.5275
44.572
41.211
45.0074
40.6339
82.2707
40.9331
40.4854
94.0856
75.2382
84.3622
48.5552
97.7051
47.345
72.735
58.3315
83.2515
90.8791
53.6772
67.2976
57.7945
178.285
41.4042
43.1338
43.4189
41.965
43.0788
48.1634
41.7077
42.1032
43.6562
90.499
98.2465
109.202
41.4506
64.128
86.6305
42.6721
65.67
45.9911
39.5836
41.9866
39.6054
40.1114
184.646
62.4067
50.8041
41.4846
42.891
71.6336
45.5773
73.6332
82.5333
41.7685
50.7149
91.7613
69.5707
46.8744
42.267
40.6691
50.2025
46.4998
40.2278
96.7131
99.7065
40.5943
42.8236
76.1285
84.6111
73.5741
45.9383
45.1072
69.7735
50.4453
57.13
44.6359
44.832
69.6331
64.2194
41.1525
43.5347
57.2457
68.6948
99.6266
47.8956
80.643
59.637
81.6999
54.2628
44.4023
52.7476
59.0827
99.7478
42.9489
92.9756
42.1499
43.1163
45.4974
102.256
64.2459
79.6527
43.1438
46.3719
45.471
41.1595
46.2
46.1505
68.9677
40.6104
47.2024
40.9716
40.9668
46.5851
41.9156
72.6999
74.6462
147.54
46.0933
46.9755
87.7931
49.6345
74.0739
76.6249
99.6578
71.9903
61.3059
44.1675
53.7149
59.1805
41.9926
46.5321
46.1097
41.521
91.1667
68.5838
71.9275
65.9104
44.147
55.1058
46.6846
43.7536
46.4771
42.3059
40.122
46.101
62.4281
43.9051
47.3588
47.1569
69.3429
52.3652
53.9602
42.3157
75.6921
48.2718
45.3313
46.7557
40.6823
80.2029
42.5993
46.3395
50.2184
42.8625
41.6692
46.3142
42.5428
75.2646
95.8873
53.0195
41.8255
47.6399
40.9013
44.2357
40.7596
40.5411
40.5912
40.8327
46.0741
40.892
98.3396
71.3155
49.7788
41.5334
41.9519
42.8562
77.8965
45.3849
83.6308
104.362
39.9267
40.334
40.3935
40.5455
39.7208
74.2502
43.2634
55.0988
74.5247
74.1727
56.0702
49.5667
39.6129
61.216
43.5929
90.1759
99.2663
111.6
42.7243
48.452
62.9036
66.2961
64.3626
54.517
64.4065
61.3382
39.6035
91.1578
73.6811
110.057
98.9478
80.7808
43.5904
76.3966
183.826
69.4219
49.1792
62.8374
77.329
87.7142
59.7977
47.9658
41.5162
40.9989
104.207
63.4634
51.2606
46.341
40.2574
86.9936
45.4742
82.1853
79.022
68.8966
104.069
47.6923
65.0534
43.7485
93.9837
82.9251
61.1673
42.9087
77.2435
41.8127
65.3139
61.449
69.9429
48.8723
45.7286
73.5597
88.0774
99.6018
91.2675
41.7717
67.944
92.1003
96.0612
66.6275
66.4341
47.3327
71.6616
41.6852
42.1329
61.8958
40.5793
41.0665
41.5079
71.6701
41.1233
51.7596
71.105
61.3105
52.6158
58.3845
82.3984
70.6946
106.255
41.8837
43.3304
39.7753
39.9141
42.5863
39.645
82.4345
187.589
40.6048
47.7854
49.811
91.2571
41.1344
42.0073
73.8976
45.106
62.6418
55.707
46.0205
45.9424
69.5487
39.8627
51.4264
42.2584
57.9158
51.7874
44.2795
43.0082
59.6984
87.6472
40.8625
48.5449
143.987
59.3998
41.232
131.665
91.9751
49.6067
68.3524
53.2043
132.21
69.134
43.6138
44.8327
45.5481
45.7171
99.9427
53.0472
42.9877
67.1796
45.8722
67.8847
60.7125
47.8186
40.2579
76.0483
103.037
80.3442
45.373
55.1981
73.1238
67.8742
41.1158
40.1298
46.5535
41.9061
86.0697
60.2656
101.644
104.723
42.3966
42.1396
40.9411
40.1182
46.291
68.2107
46.6932
126.154
53.1022
115.372
41.2749
40.4505
43.9344
40.9067
86.044
68.0918
42.0156
48.1362
42.3188
43.9476
104.758
94.1822
83.7036
50.159
45.3687
52.7706
82.3418
44.3058
44.163
43.8782
88.713
59.9051
50.3703
52.4131
50.0049
47.8513
41.6035
44.3174
105.273
95.02
62.2351
95.9787
64.6817
70.5244
85.234
67.1062
66.7633
42.3118
94.4427
45.8757
40.0475
93.1432
93.3709
96.3256
52.7042
49.4184
103.367
91.566
104.498
93.2626
80.7092
42.8165
92.6887
87.7165
63.6761
44.6277
94.1964
89.1129
99.0231
45.7322
45.3288
76.1208
72.3719
41.8671
40.0614
39.7062
42.018
58.0106
43.4473
42.0451
74.6691
83.4385
63.6954
63.3272
56.9348
78.1968
86.1785
59.7134
72.7692
134.156
75.591
76.7582
53.9291
72.0442
67.5452
67.2306
133.21
59.8185
132.79
100.067
82.6111
111.646
85.6625
77.1088
79.5269
80.6017
79.801
75.7165
56.366
90.7312
91.8034
65.4125
73.5108
78.0679
68.4486
107.463
62.5625
116.434
90.7763
58.1627
99.2671
50.2383
88.2335
73.2138
61.5692
60.5126
87.7812
86.9161
64.5405
48.2059
89.1379
74.1254
69.8498
95.8691
90.2434
101.418
113.783
109.374
56.5019
92.7632
51.8257
115.362
65.1385
93.2861
85.6826
85.4053
113.431
82.2287
74.8267
92.0688
123.408
56.6055
58.2656
50.8189
61.8238
93.1581
91.3659
65.3108
83.8445
42.585
40.8512
51.1286
90.0464
48.1836
66.8778
58.2931
68.4352
46.9386
201.716
91.4987
89.7457
58.8996
95.148
68.9063
92.8164
44.3321
57.5923
113.536
39.8238
41.7196
41.0157
39.9267
40.5084
44.9844
41.8828
45.8072
44.0394
48.1692
41.0338
59.5964
65.2889
84.3583
40.4641
41.5541
47.0501
50.007
90.0047
93.8491
95.2321
60.297
51.6741
64.4895
65.4181
40.427
44.2683
46.5942
84.1257
47.2155
77.9201
71.4718
80.9152
104.973
41.4048
56.6665
56.3056
42.5861
58.9306
42.6629
43.6183
41.7516
44.0367
44.7356
62.9717
66.2765
42.7116
41.6861
61.1338
61.1164
55.72
42.4192
44.9982
43.7419
44.5859
44.1174
42.3153
40.3837
40.7704
46.0306
62.9198
40.1799
62.3033
44.842
53.7229
42.2395
48.5852
66.8748
42.0422
42.6527
42.2287
41.3337
50.4587
71.7007
40.1332
40.0979
45.113
45.0569
54.2139
83.2836
46.2582
48.8339
52.9322
62.3074
77.03
78.3231
66.2467
85.0503
85.2743
93.7303
43.004
95.1587
79.5325
75.7207
107.49
47.512
43.9012
104.719
46.2217
110.844
63.7161
93.9495
51.1963
73.8635
91.2542
47.8241
76.6314
94.2943
71.1755
93.8693
57.391
43.8123
49.623
69.025
40.658
71.4631
44.404
76.0472
42.2878
91.3208
66.4828
71.1056
69.8991
40.9918
83.9545
82.4282
96.6862
86.7965
41.1503
51.0118
42.359
82.811
65.1848
69.8937
39.8382
96.9027
45.3391
41.6055
59.549
96.7242
41.2849
55.6229
39.8744
105.848
48.4361
47.4228
41.4899
60.8423
43.1201
90.065
98.8094
85.4139
62.2153
97.0819
130.568
40.9648
41.9164
59.8232
60.5252
49.4204
62.1345
78.7303
91.8003
110.736
56.8171
42.5762
90.8124
83.4537
41.0249
39.7003
86.9313
78.8279
41.7246
41.3974
41.9487
45.4588
72.1003
47.2365
40.7556
40.6777
44.1299
39.5318
65.1042
64.8489
40.6164
42.7589
42.1358
41.2775
61.5415
61.5819
92.6156
94.148
52.4616
94.5426
53.6342
69.5815
93.828
42.3229
106.047
47.8793
85.1016
50.2667
59.1585
40.4781
90.6235
93.0947
44.0315
83.2851
141.905
92.6279
45.5245
108.849
74.6085
61.6098
129.617
109.315
173.994
125.741
74.9283
41.6157
61.2078
157.976
163.874
155.072
158.526
83.0543
42.1301
98.1551
70.9137
96.9183
80.4713
65.5211
48.3817
56.9073
86.7156
75.862
162.481
45.1068
42.7465
79.9597
78.5091
80.8877
56.8246
68.8372
63.7679
81.7793
66.4844
42.9117
44.9709
49.9711
81.4459
58.1151
55.3239
91.8714
42.1431
65.9299
95.392
80.3255
42.3954
83.7274
72.2445
72.8783
44.3288
47.585
68.32
80.0406
80.8549
40.8958
61.0334
47.9486
44.628
78.1902
45.6544
131.833
99.1297
53.286
94.22
67.4503
94.5606
64.113
67.0797
45.587
39.9999
65.6863
66.6978
66.1305
44.0943
114.751
87.9813
73.3838
70.4778
46.1878
89.4798
49.3928
41.1877
63.3835
65.6619
59.2922
42.1865
67.0449
56.7391
69.0103
40.7198
51.6578
47.2851
73.8016
129.028
87.9927
75.286
112.145
75.3519
83.0767
87.968
64.8313
59.4212
95.0342
44.4994
41.3693
138.618
84.6718
155.119
46.149
43.1922
48.1908
46.3281
47.5592
43.8501
73.2905
50.6858
55.1547
74.4284
87.5215
97.2798
72.9274
56.6178
46.1943
64.4495
60.7817
41.6082
79.1783
43.5313
50.015
46.8438
42.2176
40.8856
149.55
85.4782
99.9932
129.755
164.226
53.4829
71.5938
142.002
47.2337
43.8237
51.2123
54.2877
45.0508
44.6162
51.0779
89.2285
64.8999
116.955
43.157
43.7789
46.194
47.0728
41.2225
42.1633
41.3896
182.002
70.0082
114.375
44.0321
78.2485
174.951
90.4026
110.977
110.477
61.454
105.063
110.952
49.4373
47.1122
52.2774
103.507
47.2647
41.6716
43.7401
41.1747
42.2727
45.6968
41.9338
95.1976
80.5225
69.3808
93.9447
48.1664
73.564
66.4854
150.162
66.318
43.931
40.9058
82.5607
68.3813
67.0952
40.115
96.9212
44.4436
69.5365
63.9041
47.032
146.119
78.6751
41.5549
70.008
44.8161
78.429
82.0707
81.0914
64.2799
51.3506
40.2366
79.5794
78.9189
78.0867
41.2871
88.0726
52.2684
40.491
58.9701
59.5729
77.914
51.5627
45.7665
96.1736
63.2845
46.3761
54.7358
46.5213
101.409
74.592
41.8288
44.0797
52.1092
64.0731
60.4764
41.2862
45.6272
115.896
66.7475
91.3318
43.3644
64.9633
72.2997
40.2498
121.046
43.6893
42.9374
42.2197
47.5197
45.1146
41.1341
61.8486
115.055
103.476
77.6866
41.8832
40.5397
44.6122
48.1477
59.5296
41.743
140.488
41.2265
109.822
65.5941
76.5615
52.9172
57.5841
46.3696
54.7492
59.589
69.8281
63.1037
40.233
118.415
148.285
88.3308
40.7752
45.0929
52.5228
40.8614
48.9988
41.5504
45.9661
92.5474
56.0352
40.3817
56.9093
46.2791
50.7136
69.6545
81.6715
44.578
41.0279
70.2601
46.896
45.9776
41.212
44.4622
40.674
58.0879
44.5793
99.07
74.8546
73.8103
64.4246
42.3308
42.0348
42.1372
41.2936
69.7831
132.111
42.6765
108.895
51.856
51.865
81.0286
122.409
78.591
64.978
43.0682
40.9757
78.0471
49.8049
58.0116
45.5416
84.1924
68.5584
106.999
51.473
40.9643
127.855
60.5244
43.0686
53.5013
73.0685
42.948
42.1123
42.4132
53.8929
46.3561
41.7779
48.1285
63.67
51.0422
68.3086
132.91
135.568
42.7335
97.3493
52.8519
81.8735
44.7355
42.7725
51.5639
50.8375
41.7678
41.9438
50.8937
60.3313
45.5415
84.1213
67.7971
43.0069
61.4036
42.2937
41.3782
80.1098
44.1078
107.942
44.0666
45.1519
59.9693
79.5145
40.945
41.5145
51.55
50.9222
47.5115
79.8481
110.623
44.1598
94.5092
42.9391
80.2279
51.5573
48.2708
59.9728
42.0526
41.3881
45.0902
47.5096
42.8458
90.9741
81.0259
52.7919
71.0611
41.1847
78.1586
43.8078
41.3733
46.4022
41.7191
66.7621
45.1655
44.6385
40.8873
42.2104
51.3007
83.261
92.8544
42.0894
50.6233
44.2028
56.8649
95.7192
45.5639
41.4885
50.9962
46.4438
42.7937
41.9175
81.0006
41.5331
54.2586
54.9529
93.0483
79.5743
94.0793
43.6444
77.8306
47.6512
82.4559
85.7031
106.912
82.8648
93.4173
66.8098
71.8903
47.3373
40.8801
54.2403
83.776
65.4811
63.4842
75.8717
40.7247
85.3026
84.6426
78.7787
75.3166
113.105
84.9006
40.9598
42.3615
40.6833
41.6079
49.8128
42.0668
44.1477
91.8663
94.0329
99.526
44.1194
81.6114
113.773
86.8835
100.138
69.8526
82.5186
41.0167
43.1844
41.8288
40.6707
50.3176
42.8148
57.9319
40.3046
72.5332
44.5884
153.301
156.501
62.7105
119.254
89.839
75.2758
52.796
42.626
58.1891
135.69
87.8126
53.9121
83.4659
66.6287
66.4751
82.2614
82.848
85.6526
84.1872
62.9777
48.8127
71.2692
81.9378
80.5792
88.2602
68.3432
59.87
46.4611
48.6561
46.4943
42.4122
53.4795
84.7206
46.6785
64.8244
51.809
66.817
47.7516
56.7126
58.0391
59.6419
81.4654
77.2947
49.6989
73.4235
63.4224
68.2481
70.4147
48.697
47.1697
84.083
43.2125
46.4457
55.8762
116.343
55.1313
89.1689
73.2589
58.47
64.3899
61.5982
89.2538
43.8844
69.5869
64.1804
105.106
100.253
72.7273
41.6607
93.4308
86.7948
39.9135
79.4696
80.9457
62.8156
75.3017
69.1694
71.6696
73.5678
70.967
89.0472
98.0839
68.3047
40.3263
81.0767
131.003
43.1572
86.4949
70.9219
40.0927
68.0646
69.0783
45.5809
66.3957
58.1332
65.6048
47.4716
43.0821
81.4453
43.0553
102.248
60.9595
69.6196
41.3141
79.4723
52.684
53.4626
81.7582
62.1266
61.2995
46.2391
43.2322
91.5129
61.0215
97.1231
47.3602
53.8604
45.8301
53.1998
93.0009
47.8735
44.2535
50.2737
60.2878
61.1297
125.754
43.1261
60.4264
46.4079
42.7937
79.6438
132.8
140.431
70.6015
74.6506
40.7503
105.42
64.4436
146.146
39.5107
40.3959
40.1868
52.2565
39.1017
40.8551
91.2652
44.8481
58.9767
43.3363
69.323
44.6395
74.0611
98.6395
65.3134
44.5658
79.1475
68.1753
75.8592
78.0715
44.1738
67.0343
42.2765
70.4515
44.3674
106.771
74.8883
45.8274
48.6775
49.7297
41.2698
69.8422
42.3627
59.2277
40.7463
67.5856
66.1923
94.965
67.7226
59.2313
41.1028
73.0215
45.4897
64.4197
60.4464
76.6116
84.4476
47.4209
43.8028
40.6089
98.2038
72.715
83.8503
39.86
42.1024
47.1216
44.8788
84.8578
52.3322
43.5356
44.9886
56.5478
80.0308
62.8779
49.776
49.2462
55.6402
50.0805
51.6258
43.716
41.1829
42.1795
42.2423
41.6247
63.604
71.1823
87.1829
76.0331
99.1975
64.8266
53.5036
71.1643
62.7599
66.1842
63.2817
61.4517
42.8703
42.8072
41.2244
89.5881
54.5026
46.8313
91.9079
41.3897
39.5604
43.6073
44.7235
66.3201
41.336
44.4556
52.5136
102.34
41.6173
49.3375
95.1939
42.0802
42.5124
88.2852
91.1901
68.5122
71.7143
85.8386
42.4736
49.6037
48.921
69.5407
58.507
44.5695
43.8836
121.145
69.9474
75.7818
98.5829
40.5266
41.5867
44.7814
43.936
43.6841
43.4246
112.495
56.2063
42.2617
65.1809
68.1933
77.6307
40.4945
40.8935
43.3773
40.2596
106.584
41.8694
41.6956
45.6465
65.0193
70.683
45.3584
41.5886
105.286
46.5076
59.1748
48.5943
74.1583
45.5884
74.7305
99.9333
90.1532
76.9314
58.0474
55.7755
66.6795
65.4447
50.1687
43.3661
44.6187
84.3133
54.8637
41.6242
62.3742
43.4878
43.004
80.1269
122.411
45.4128
49.6826
48.0129
47.7777
47.5662
78.1388
40.3491
42.4424
44.5
71.7302
42.0522
81.8623
77.348
70.9501
81.3327
60.4873
41.7375
48.2768
40.1585
47.1707
42.7548
45.6006
61.0681
41.0743
78.521
75.3595
72.7781
43.1853
42.3326
63.2245
120.188
62.6067
73.4746
85.011
66.6368
42.2794
64.5167
50.9105
40.934
42.6177
68.3649
74.1724
42.3814
42.1964
84.8328
67.8289
42.9994
64.1014
40.913
62.5312
61.3408
42.8989
50.1048
39.9908
90.853
48.8879
45.5681
78.4568
85.3114
40.8437
40.1118
43.6376
42.377
49.1595
74.7496
41.8702
60.9
90.394
103.576
69.6755
40.6163
72.8923
91.1796
43.4808
72.5744
40.7836
59.6621
63.8432
79.0696
67.3955
69.4359
42.6092
61.8592
69.2808
43.603
46.7962
52.7385
44.2902
44.3667
104.286
44.3393
58.8242
64.6031
64.2104
47.8241
49.7092
95.1408
44.7396
49.9559
81.9028
63.7766
85.5955
80.5225
48.3663
61.3681
72.2647
89.3128
93.6989
86.1874
62.0697
83.2164
186.039
77.2282
69.3069
74.2977
80.8757
46.8104
45.8169
101.09
76.1768
51.1485
80.0707
41.766
47.6754
83.8553
42.0663
41.5285
74.5154
70.505
83.6559
72.177
147.72
78.63
113.157
110.038
108.767
101.89
205.137
43.0468
43.0981
104.917
88.0542
44.9244
50.1496
47.2263
79.3547
67.8509
64.9416
99.9246
128.739
73.6223
80.8685
52.3426
45.5885
80.9771
174.55
75.6971
164.232
66.6491
72.8212
92.1442
82.9218
84.2142
45.2758
97.8833
42.2497
43.7867
83.0778
66.0901
83.577
43.0064
58.3734
57.434
82.7761
46.5135
60.0364
43.6765
42.0597
41.8175
80.5849
82.4481
60.7944
65.2663
78.0643
75.984
68.5259
66.2262
77.9536
72.6408
40.611
65.4693
67.7647
88.6387
73.8907
79.0172
68.2541
41.0801
41.0076
39.5962
46.4189
42.4714
47.3079
62.2373
40.9775
46.3471
90.6333
112.315
49.1733
50.957
89.9585
51.0639
51.6662
61.4386
40.5188
129.634
68.5144
85.165
96.748
133.786
41.462
78.0755
96.3211
45.8165
81.5526
45.7924
69.9723
51.6433
63.3807
80.312
44.8101
78.4937
54.1578
51.3288
91.989
103.743
67.6546
44.7561
69.0001
108.667
74.2262
85.1028
39.8826
81.6419
76.53
41.6449
69.4161
47.4126
87.8814
54.1493
79.904
53.3879
40.1855
59.4621
73.211
45.3038
59.3442
48.0595
59.2506
81.8945
67.6935
92.1669
50.6244
75.6036
40.3536
88.864
76.6824
49.0182
64.2743
84.1535
87.1156
55.1882
118.034
60.9828
78.3369
49.3776
48.682
49.4698
40.1193
56.4561
66.8641
55.9292
48.2121
98.3034
40.7615
44.4273
71.783
41.3678
44.7752
140.942
46.579
151.285
85.1193
122.572
70.1348
62.8867
81.2823
42.2204
82.1716
39.9282
113.28
41.7551
73.9789
122.414
100.967
61.8999
73.8442
45.6742
71.165
137.656
41.63
64.4027
78.4702
51.1384
105.18
45.6335
50.5568
83.9569
86.1418
72.7569
89.259
66.1519
87.4604
41.8908
41.5242
71.2237
63.9744
42.8746
43.3476
67.887
44.6079
40.3697
44.4398
45.3193
47.9849
49.8327
46.0594
57.4866
78.5357
91.5565
81.1957
76.6056
93.2974
65.7022
72.2333
42.0076
44.3039
46.2247
45.089
40.887
45.1899
44.5873
44.6113
46.4254
46.4743
77.3021
107.89
44.931
65.8598
65.4879
88.1499
71.6887
75.1861
60.5455
81.1689
76.1389
51.9298
73.1495
44.4219
146.362
50.7864
44.1342
47.0132
70.2269
44.346
65.0309
62.8626
65.8096
75.9724
43.4113
48.1029
44.13
46.0794
40.1819
45.7279
39.9747
76.6681
66.8201
69.8399
47.4182
44.54
45.8822
44.6607
42.7625
42.2764
43.9512
43.3946
42.9086
46.1192
52.9232
41.7693
46.4131
40.7586
56.3482
54.8912
137.459
69.1357
68.9904
73.6566
40.5716
40.2228
51.4428
41.1195
76.0061
45.7408
68.2022
67.5834
72.1544
42.6135
72.9751
84.0862
114.114
109.103
41.5465
42.589
69.3112
55.6246
64.7801
74.1823
92.722
42.7614
121
40.44
42.6465
49.6031
68.2829
47.7973
40.7325
40.785
55.4799
63.4712
41.8908
41.9246
121.5
72.669
41.2828
176.993
59.759
118.831
60.9282
46.2503
41.3271
60.4345
53.2789
63.8419
74.8033
55.4953
56.486
43.7685
98.7299
109.244
87.5809
41.9232
68.6705
45.6325
110.31
81.2235
41.4923
41.4931
78.2519
80.1797
42.2834
89.5135
68.4677
42.3168
67.5201
41.7391
42.5219
60.5143
41.2714
40.9085
49.4566
47.4797
50.3878
44.5631
43.8403
48.9091
47.2018
43.6516
75.1973
162.941
48.11
42.4478
104.575
52.7863
76.1664
65.2773
40.3136
47.4895
71.1551
109.476
83.683
46.6145
76.8381
100.708
113.7
64.1556
134.283
67.4968
88.2614
43.6697
105.662
73.5002
81.7537
90.6576
65.5413
86.1372
93.7295
71.7255
62.9296
57.6982
78.3839
72.6808
66.294
107.439
113.378
95.1782
67.4412
63.62
131.855
78.2184
77.531
76.0822
105.818
76.283
43.2587
70.4569
66.1239
40.7275
62.7686
59.2531
46.5257
100.536
77.9797
105.085
78.2111
63.3507
79.0786
99.0629
44.2207
59.9787
91.0504
66.7771
78.1621
41.1718
61.3406
40.6688
49.2169
74.082
78.3843
84.5935
78.112
64.2856
67.0257
100.04
59.5051
68.8497
70.6654
80.0857
40.988
91.1448
161.712
159.543
70.4392
76.7709
67.4047
93.6381
73.4078
114.946
79.6225
60.5748
52.3584
58.109
72.1624
76.6783
107.237
107.901
83.9665
180.943
136.379
80.8084
103.942
62.5706
70.7741
80.2758
89.2902
102.231
87.5905
72.3518
94.1539
149.358
165.68
111.928
163.316
65.6691
99.2039
109.295
54.0281
109.648
66.7702
70.2809
94.0408
43.5981
43.0294
50.4595
47.2227
42.1214
40.1911
42.869
40.9594
79.0642
42.4624
44.4977
42.8704
44.3246
103.441
102.04
51.4652
40.3616
41.0294
45.7352
41.8975
43.8214
49.2127
42.8811
40.5773
48.6561
109.122
46.4339
42.6051
68.7505
52.5862
53.006
42.5283
41.6428
52.7407
83.1771
64.6056
41.5501
87.5066
45.8214
40.7001
44.9045
40.3747
43.2857
62.2637
45.9921
68.3556
41.3103
55.2844
41.8832
49.1632
40.5489
85.7143
42.9377
41.2088
56.0492
53.7919
40.9616
75.4095
48.2442
43.0512
40.5628
67.4713
40.1114
41.5439
40.3774
45.1852
40.979
39.9655
50.1239
40.33
42.5604
45.9588
79.0382
50.147
41.0117
40.3484
40.2115
45.1446
43.405
41.9816
41.7326
50.9948
58.4517
51.7934
46.3473
47.8201
46.2985
45.8319
44.5349
51.6323
41.8026
43.408
74.9897
50.5916
103.399
45.5141
42.2089
44.3432
53.9219
51.5223
42.2132
52.5507
42.1368
63.8366
40.8828
50.1824
101.075
50.9974
41.6264
41.2011
42.7505
98.3581
65.2516
46.8928
45.5073
120.797
45.2731
92.1121
98.0218
74.7043
40.9363
41.3027
41.4303
41.9311
41.1512
56.7788
58.3479
40.53
73.3896
61.3333
56.3406
42.483
44.4192
42.0737
47.7727
86.7888
42.1304
40.8291
46.9207
70.7748
104.222
47.5445
46.8854
44.5855
61.9895
65.438
86.012
42.0971
60.7607
40.7915
40.2634
97.9428
43.516
45.2798
68.5024
99.7257
46.1931
99.3392
42.1016
54.7167
74.1667
52.1388
61.1021
59.4844
67.6793
61.1686
46.0753
41.9298
58.5392
98.781
45.3468
81.623
76.1631
84.2971
78.0827
63.1498
43.3025
42.6856
70.3086
59.1088
58.3497
44.2558
46.0713
67.0088
47.7012
40.8845
44.0812
94.8485
41.3923
42.7828
44.7146
52.1485
73.1273
42.9166
44.9246
72.839
52.3988
46.3402
40.8335
65.4881
45.1718
42.3516
40.5564
46.587
93.1667
58.1716
62.2631
78.9256
43.5201
95.7375
86.0973
70.2608
94.2457
87.3441
90.788
90.5139
59.3958
45.65
42.673
55.6132
57.6711
165.188
43.6341
79.647
68.2141
79.2827
93.8201
105.452
78.6069
70.4814
101.543
90.2751
85.2652
64.8882
126.793
52.5435
80.8286
70.5207
77.1894
70.1144
99.2025
62.6857
124.996
63.4123
55.5225
55.7385
103.349
93.9032
96.3328
130.909
84.6145
63.625
50.4657
84.9322
85.967
86.8209
66.2964
73.6679
78.921
39.8498
39.9572
39.7768
64.2618
40.9643
55.2339
49.1818
44.1864
105.858
40.7351
52.9457
41.137
93.3373
58.4584
77.6971
88.2135
68.8423
83.7063
43.0082
46.9083
69.4343
43.3806
42.5792
64.92
50.8375
68.942
78.6012
54.4124
63.509
159.394
160.26
70.3672
141.008
76.2012
49.8793
63.9836
81.828
91.5995
177.318
135.551