/*--------------------------------*- C++ -*----------------------------------*\
| =========                 |                                                 |
| \\      /  F ield         | OpenFOAM: The Open Source CFD Toolbox           |
|  \\    /   O peration     | Version:  2506                                  |
|   \\  /    A nd           | Website:  www.openfoam.com                      |
|    \\/     M anipulation  |                                                 |
\*---------------------------------------------------------------------------*/
FoamFile
{
    version     2.0;
    format      ascii;
    arch        "LSB;label=32;scalar=64";
    class       volScalarField;
    location    "0.0882685";
    object      p;
}
// * * * * * * * * * * * * * * * * * * * * * * * * * * * * * * * * * * * * * //

dimensions      [0 2 -2 0 0 0 0];

internalField   nonuniform List<scalar> 
3919
(
0.0876824
0.0482305
0.0365293
0.0122802
0.0215245
0.0644855
-0.0332815
0.533245
0.455515
0.0150328
0.0377666
0.173792
0.271886
0.118702
0.0253667
0.0538161
0.272815
0.164102
0.102086
0.0545073
0.41285
0.124441
0.332819
0.190368
0.458044
0.0759918
0.617695
0.327817
0.502715
0.397322
-0.0143755
0.113959
0.198017
0.0208461
0.163947
0.23808
0.177948
0.181285
0.29043
0.35921
0.16513
0.024879
0.297649
0.0954897
0.0719124
0.352375
0.081781
-0.00428972
0.261813
0.296707
0.475365
0.0682462
0.571464
-0.00832633
0.205337
0.00494814
0.114195
0.149539
0.0723305
0.262357
0.311267
0.243072
0.28168
0.0443497
0.108111
0.0752257
0.437653
0.0718678
0.00284979
0.214308
0.327437
0.0148061
-0.0200243
0.327472
0.146728
0.0940446
0.0324157
-0.0338729
0.299962
0.0950234
0.0779654
-0.00551925
0.32914
0.543264
0.332479
0.00447006
0.144761
0.0275516
0.156185
0.307945
0.0506109
0.0589255
0.0187136
0.570354
0.0318804
0.0401702
0.0736287
0.341416
0.0320309
0.108675
0.19226
0.155709
0.17301
0.0357227
0.144778
-0.0505565
0.0726969
0.317821
0.0280785
0.25661
0.109115
0.402852
0.0234539
0.00419214
0.519106
0.479201
0.29355
0.506062
0.4871
0.12212
0.40914
0.300514
0.430656
0.316703
0.488792
0.164852
0.75054
-0.012395
-0.00544008
-0.0371428
0.40098
0.0551754
0.0404208
-5.10737e-05
0.444014
0.100211
0.15633
0.116385
0.0113901
0.18947
0.0202708
0.206287
0.152179
-0.0419084
0.408604
0.122399
-0.0322708
0.201071
0.378856
0.0404212
0.135323
0.140921
0.247792
0.0548438
0.353403
0.304422
0.0216809
0.115516
0.1539
0.0425782
0.0994793
-0.0182691
-0.00927962
0.298399
0.183071
0.24508
0.310321
0.299298
0.339066
0.157385
-0.0205175
-0.0290458
0.18189
0.462041
0.112559
0.455378
-0.00589869
0.352733
0.740183
0.0771908
0.0181906
-0.00471096
0.0874298
0.0152891
0.236562
0.524727
0.0664579
0.322991
0.0703575
-0.077742
0.31224
0.0105961
-0.0633552
0.0174888
0.0250427
0.496912
-0.0584099
0.418373
0.473532
-0.0218376
0.112223
-0.0336334
0.547091
0.075732
0.379205
0.377411
0.553503
0.230304
0.106646
0.387469
0.318674
0.238748
0.285609
0.0687895
0.483913
0.276835
0.246592
-0.00862507
0.395106
0.0457834
0.0705349
0.0817737
0.235952
0.20441
0.0507036
0.447813
0.268366
-0.00589789
-0.0335813
0.438632
-0.00226937
0.108668
-0.0558734
0.0258611
-0.0294475
-0.0114263
0.287491
0.0289799
0.221546
0.551264
0.188716
0.426836
0.205598
0.229319
0.187541
0.308266
0.323158
0.335828
0.32791
0.342161
0.314215
0.294931
0.327922
0.282043
0.26619
0.463818
-0.0576616
-0.0184383
-0.00948472
0.16812
0.255613
0.138304
0.192395
0.193484
0.502819
0.578429
0.394696
0.406847
0.0908249
0.108772
0.0865933
0.37251
0.403876
0.00362872
0.0927658
0.0243222
0.509482
0.105284
0.023785
0.312697
0.415695
0.383054
0.226578
0.343784
0.507134
0.576771
0.215347
0.527806
0.391328
0.0402054
0.015849
0.198313
0.703666
0.343511
0.338463
0.117043
0.256524
0.271571
0.283979
0.0668975
0.520915
0.3704
0.191749
0.0496148
0.424227
0.3293
-0.00118807
0.475774
0.417691
0.155039
0.321225
0.105386
0.21579
0.340677
0.0400465
0.34081
0.494222
-0.0515684
0.357947
0.0482228
0.411728
0.338788
-0.0407604
0.346259
0.0473571
-0.0286774
0.0842834
0.455716
0.545572
0.380956
0.104445
0.392365
0.189832
0.222225
0.378686
0.107453
0.0649115
0.0562003
-0.012526
0.0177955
-0.00192056
0.213192
0.0227292
-0.00525787
0.0316023
-0.0155365
0.509379
0.327939
0.1533
-0.00871256
0.325831
0.0474775
0.0600341
0.489061
0.0587214
-0.0297179
0.0480263
0.410993
0.25807
0.417628
0.411895
0.361101
-0.0121285
0.259068
0.156952
0.414004
0.356569
0.388264
0.269477
0.336091
0.0931303
0.277219
0.156207
0.52429
0.0389477
0.109922
0.255989
0.277851
0.139111
0.442952
0.652857
-0.0348807
0.127865
0.438838
-0.0159379
0.0156797
-0.0529661
0.0244141
0.0453246
0.0321507
0.0269586
-0.0380221
0.063417
0.0852399
0.0993846
0.0927692
0.329734
0.284958
0.203464
0.402558
0.502024
0.259329
0.372322
0.425855
0.0346721
0.00325402
0.382702
0.394223
0.368143
0.403071
0.225153
0.14334
0.462052
0.110323
0.325136
0.353806
0.36701
0.274655
0.604042
0.264794
0.216214
0.493942
0.153202
0.366604
0.562746
0.0427587
0.497669
0.437616
0.388909
0.485474
0.069453
0.0335985
0.0854738
0.0528562
0.0191758
0.0352882
0.302563
0.389433
0.308105
0.278447
0.267352
-0.0666452
0.332475
0.407564
0.405215
0.416728
0.384843
0.385629
0.00946082
-0.0352334
0.00218206
-0.0322169
0.00137057
0.159309
0.184114
0.530051
0.468567
0.244373
0.126361
0.181507
0.167039
0.148537
0.15935
0.454351
0.076923
0.125852
0.420257
0.271724
0.163611
0.306128
0.051921
0.513835
0.0541219
0.0338355
0.104033
0.447112
-0.0805455
-0.00727584
-0.0349913
0.399187
0.349123
0.500696
0.298496
0.256184
0.282135
0.263268
0.227921
0.512331
0.311378
0.0371025
0.163184
0.0971744
0.0581746
-0.0346415
0.00721862
0.0593982
0.0107715
-0.0157654
0.0917979
0.0317692
0.171263
0.000892793
0.0399784
-0.0559025
0.197338
0.0737801
0.00959836
0.0219099
-0.0131732
-0.00593405
-0.0396344
-0.0328241
0.0490473
0.0247125
0.0143242
0.0720165
0.00433673
0.046971
0.101876
0.00873002
0.0186057
0.0557285
0.0747959
0.122472
0.028314
0.133984
0.155802
0.345362
0.130079
0.308382
0.343918
0.262442
0.341917
0.0824241
0.406718
0.436439
-0.0231884
0.0845238
0.0565777
0.0277663
-0.0156851
0.072922
-0.0321697
-0.00585639
0.0423384
-0.0330167
-0.016002
-0.0357673
0.11244
0.126806
-0.0238996
0.0605165
0.0490685
-0.0217523
0.176245
0.214319
0.321534
0.383874
0.373818
0.208586
0.176008
0.267813
0.72786
0.101047
0.385715
0.314725
0.34899
0.195103
0.179617
0.275219
0.325134
0.366398
0.332161
0.347672
0.281727
0.57855
0.259568
0.320079
0.294747
0.388515
0.557304
0.562643
0.598115
0.61109
0.605284
0.449076
0.156019
0.00745598
0.526629
0.351485
-0.00158659
-0.00265463
-0.0644044
0.0363359
0.112253
0.35455
0.206612
0.262278
0.232707
0.69478
0.573235
0.492524
-0.0409057
0.597071
0.756274
0.487504
0.521931
0.32463
0.378297
0.284272
0.494449
0.0802416
0.245089
-0.0107912
0.453141
0.0638072
0.282741
0.595918
0.0351272
0.284204
0.24958
0.227867
0.0454686
0.564457
0.47267
0.24191
0.36707
0.183538
0.394322
0.502124
0.380043
0.435068
0.58541
0.658825
0.317647
0.0815832
0.379171
-0.0258896
-0.0145412
-0.0569115
0.530133
0.433321
0.422232
0.0551316
0.111898
-0.0241592
0.274403
0.399885
0.128114
0.444975
-0.00707079
0.380409
0.439714
0.257677
0.431857
0.520081
0.32848
0.134911
0.324158
0.144531
0.165935
0.229909
0.176964
0.560134
0.471327
0.438265
0.243364
0.381534
0.0963218
0.332202
0.503087
0.507569
0.217812
0.494628
0.0462556
0.43724
0.338982
0.452238
0.541535
0.57001
0.381904
0.564932
0.316114
0.154793
0.237986
0.657467
0.238041
0.357478
0.498053
0.398768
0.329209
0.453093
0.0855385
0.050075
0.174174
0.474937
0.326988
0.523445
0.140852
0.183046
0.364533
0.251253
0.315734
0.619456
0.292117
0.367895
0.0743888
0.17676
0.313411
0.338496
0.475124
0.392196
-0.0451915
0.0960817
0.0855106
0.15775
0.337506
0.577666
-0.00908552
0.0250329
0.022723
0.224054
0.0786723
0.0828524
0.36087
0.258533
0.0731205
0.575266
0.144658
0.0126158
0.536522
0.105111
0.00801398
0.349769
0.520326
0.149541
0.51073
0.0643739
0.141424
0.325846
0.297515
0.135723
0.456697
0.414126
0.319027
0.522785
-0.0589401
0.703375
0.236503
0.273196
0.0598933
-0.0466606
0.0376459
0.511046
0.379202
0.120297
0.295134
0.317243
0.453981
0.226234
-0.05609
0.376459
0.297246
0.171034
0.178789
-0.0642107
0.364716
0.331258
0.0708286
0.229749
0.448462
0.121739
0.180093
0.0743044
0.379509
0.201674
0.132364
0.258662
0.0874649
0.481528
0.0110242
0.222739
0.401531
0.0116718
0.461599
0.45641
0.32414
0.386029
0.149544
0.0871641
0.128831
0.375741
0.426305
0.275674
0.198798
0.00192096
0.465183
0.104077
0.374164
0.190238
0.244877
0.406582
0.382473
0.554825
0.0468028
0.30465
0.0811724
0.1291
0.12085
0.421033
0.0435427
0.427656
0.395629
0.404579
-0.0381126
0.64247
0.328472
0.169379
0.601445
0.597779
0.281994
0.458301
0.409698
0.513142
0.371382
0.553432
0.253049
0.128142
0.610072
0.468494
0.368302
0.540923
0.649549
0.389096
0.153413
-0.0138155
-0.0144696
0.180894
0.273018
0.0822115
0.048785
0.0860113
0.108443
0.0817423
-0.0229478
-0.00848626
0.0800589
0.035522
0.0754503
0.126257
0.256247
0.0430703
0.254166
0.362611
0.079911
0.482498
0.547866
0.360461
0.492172
0.332906
0.352134
0.4005
0.36477
0.111714
0.121714
0.0819571
0.224311
0.27358
0.106958
0.132077
0.378868
0.297927
0.358505
0.362539
0.386999
0.476397
0.409874
0.199642
0.170499
0.457503
0.367804
0.437043
0.423431
0.223384
0.0389593
0.261872
-0.0702757
0.435325
0.0167872
0.11892
0.130438
-0.003915
0.161072
0.0620785
0.0491187
0.0121725
0.0552558
0.22372
0.190319
0.196888
0.117757
0.171808
0.219325
0.277511
0.469593
0.411292
0.201142
0.330794
0.487266
0.0331039
0.261501
0.385484
0.447425
0.489289
0.460078
0.332005
0.463327
0.180082
0.265175
0.0442174
0.377753
0.370389
0.315165
0.405909
0.345697
0.325487
0.370181
0.0868328
0.435484
0.31452
0.257174
0.227937
0.369965
0.20129
0.467446
0.399125
0.145189
0.197948
0.368636
0.390143
0.415994
0.569502
0.536495
0.520893
0.199513
0.111226
0.236054
0.00346675
0.490261
0.389411
0.429709
0.394763
0.39652
0.288765
0.313115
0.425419
0.285195
0.127648
0.291018
0.20861
0.27811
0.131013
0.440619
0.589169
0.421513
0.51877
0.404864
0.547452
0.163443
0.0593976
0.502572
0.398478
0.199448
0.385252
0.0837049
0.14088
0.162331
0.105188
0.109375
0.28705
0.201088
0.406974
0.519624
0.215272
0.472665
0.0870881
0.469146
0.344889
0.230568
0.134849
0.25346
0.301268
0.348853
0.332495
0.352436
0.409863
0.28559
0.525125
0.50199
0.428881
0.228347
0.338395
0.280832
0.300744
0.313745
0.28792
0.111546
0.211933
0.148383
0.515622
0.354075
0.518351
0.465965
0.341429
0.495746
0.397326
0.356818
0.370744
0.501806
0.484931
0.378302
0.393582
0.0190147
0.0552929
0.0124863
0.132586
0.050586
0.036516
0.240121
0.0854489
0.0771777
0.581637
0.468692
0.408219
0.335101
0.45063
0.373276
0.333791
0.535862
0.38239
0.383625
0.685466
0.465237
0.471072
0.589558
0.523567
0.320789
0.292451
0.133908
0.127908
0.111333
0.250144
0.290632
0.454697
0.186775
0.381208
0.400322
0.426277
0.393631
0.311913
0.4229
0.209267
0.255854
0.228125
0.350206
0.385226
0.546749
0.122925
0.118531
0.178789
0.368782
0.254019
0.256596
0.278124
0.407749
0.340024
0.445035
0.566223
0.524059
0.644286
0.386959
0.402851
0.343476
0.383806
0.405936
0.329176
0.448679
0.390558
0.270153
0.393181
0.567659
0.243999
0.308882
0.436774
0.361704
0.0921413
0.283189
0.32316
0.326188
0.136824
0.413069
0.350043
0.153156
0.0155868
0.226817
0.238303
0.29965
0.511195
0.492601
0.327417
0.415507
0.451855
0.325755
0.38761
0.613321
0.474457
0.505053
0.499106
0.656009
0.466004
0.532101
-0.0646741
0.0739281
0.342324
0.507085
0.39301
0.681338
0.482036
0.479756
0.4605
0.579887
0.472268
0.212808
0.205917
0.468261
0.351893
0.331817
0.557194
0.0157352
0.302551
0.0243625
0.12071
0.355281
0.338372
-0.00916944
0.553347
0.450504
0.36287
0.273571
0.30864
0.356408
0.349944
0.358117
0.400067
0.369559
0.511915
0.342592
0.0347858
0.0650126
0.341556
0.0943024
0.211417
0.410353
0.211036
0.143288
0.181759
0.267258
0.167992
0.0713709
0.218305
0.531525
0.587584
0.183553
0.547796
0.215683
0.540807
0.469178
0.308712
0.0881207
0.105758
0.295333
0.334316
0.1358
0.480935
0.36701
0.363579
0.297534
0.347949
0.480867
0.295674
0.354528
0.512661
0.185802
0.196408
0.23436
0.212767
0.275481
0.175165
0.253967
0.312316
0.694885
0.153965
0.304885
0.236
0.51025
0.620173
0.772237
0.359244
0.587496
0.527183
0.63991
0.229079
0.588746
0.634147
0.256096
0.652045
0.688823
0.439912
0.589251
0.62288
0.11588
0.262288
0.446408
0.0938711
0.169884
0.0624243
0.0551228
0.269095
0.219167
0.0952265
0.147318
0.12156
0.380094
0.190477
0.0224352
0.117436
0.24958
0.189734
0.502805
0.57886
0.509654
0.445873
0.159173
0.595357
0.052814
0.0224882
0.0348952
-0.0757144
0.235367
0.409033
-0.00969663
0.448456
0.355402
0.349381
0.136872
0.437381
0.395717
0.282652
0.575301
-0.0282904
0.355753
0.415186
0.397435
0.212419
0.26862
0.00334933
-0.0234581
0.0413655
0.199753
0.437939
0.385807
0.566461
0.559046
0.277309
0.416945
0.415977
0.286474
0.589825
0.521094
0.579548
0.485415
0.0624089
0.193089
0.211747
0.166755
0.24343
0.174436
0.276556
0.494214
0.321557
0.23444
0.125987
0.017052
0.311394
0.314408
0.257039
-0.0400602
0.0432608
0.0866187
0.15452
0.0574268
0.0672849
0.0783558
0.523491
0.407051
0.19194
0.300529
0.331207
0.161346
0.0739672
0.0566094
0.166651
0.373844
0.547934
0.405993
0.384657
0.639822
0.477403
0.364234
0.413159
0.326297
0.366551
0.396035
-0.0072713
0.331886
0.268268
0.142559
0.0845977
0.497997
0.135023
0.257772
0.0889463
0.0413564
-0.0233993
0.139316
0.0956864
0.115272
0.104447
-0.0503186
0.360227
0.390031
0.268908
0.604818
0.359789
0.519942
0.416007
0.369888
0.369617
0.468301
0.500644
0.466396
0.433798
0.564952
0.456694
0.508163
0.354813
0.0315562
-0.00521436
0.0315367
0.0214626
0.280522
0.329234
0.149747
0.357524
0.255608
0.178793
0.0425575
0.362328
0.242789
0.289045
0.392318
0.044424
0.457693
0.295105
0.229121
0.167964
0.191513
0.36366
0.241072
0.190061
0.391332
0.439517
0.313233
0.201465
0.364696
0.424095
0.41334
0.294
0.107208
0.364914
0.331801
0.0577398
0.158093
0.407555
0.0207645
0.470389
0.157566
-0.0284541
0.442424
0.377
0.400731
0.40163
0.409164
0.29903
0.358323
0.563156
-0.0104603
0.149071
0.532997
0.355739
0.423171
0.624718
0.483377
0.432015
0.441513
0.364195
0.451858
0.49614
0.48294
0.37125
0.445976
0.575844
0.235698
0.320646
0.353517
0.0602266
0.471774
0.642199
0.203018
0.211014
0.502569
0.604201
0.36355
0.438769
0.470201
0.474722
0.418866
0.24797
0.359009
0.398324
0.353691
0.143009
0.0933921
0.36646
0.396439
0.316082
0.0629647
0.179436
0.0306375
0.0122875
0.473023
0.0454733
0.459433
0.625246
0.653201
0.570811
0.61418
0.54898
0.225402
0.336539
0.412
0.502241
0.0331812
0.106356
-0.0238528
0.0698399
-0.0453103
0.457658
0.0614136
0.315587
0.477811
0.338232
0.197543
0.484617
0.471452
0.316912
0.128852
0.263546
0.442579
0.0202615
0.375443
0.114404
0.0088688
0.0731325
0.191839
0.554958
0.335545
0.403274
0.317982
0.43556
0.0560428
0.282724
0.246813
0.381658
0.423624
0.237003
0.10879
0.311875
0.516338
0.449138
0.783981
0.576435
0.138728
0.239921
0.483102
0.278003
0.734291
0.442428
0.369164
0.477439
0.418733
0.348339
0.309678
0.44952
0.21504
0.0935823
-0.132243
0.0266342
0.0671215
0.0188214
0.144219
0.0744055
0.111459
0.262696
0.0126338
0.118211
0.158118
0.0800467
-0.064404
0.593349
0.674322
0.503744
0.318755
0.330434
0.368828
0.274424
0.359786
0.373086
0.351607
0.260321
0.162299
0.172032
0.246853
0.177528
0.110704
0.179971
0.260812
0.113835
0.593763
0.428288
0.333354
0.587557
0.479098
0.507508
0.515019
0.397392
0.122445
0.0160639
0.278292
0.437904
0.427432
0.118795
0.0505447
0.187557
0.011011
0.0928372
0.055646
0.183109
0.559803
0.593315
0.515112
0.271881
0.438721
0.450877
0.460772
0.498889
0.144869
0.269958
0.730116
0.174765
0.383506
0.105335
0.0169382
0.34316
0.194842
0.455495
-0.0502167
0.435436
0.21586
0.32955
0.249943
0.433881
0.309291
0.460482
0.624378
0.292298
0.11083
0.293398
0.317398
0.284851
0.589778
0.109001
0.503169
0.357099
0.385235
0.110519
0.160069
0.512795
0.165107
0.252299
0.487508
0.315867
0.254316
0.387428
0.369107
0.288528
0.388991
0.316287
0.455319
0.418829
0.238878
0.244584
0.0344699
-0.0115752
0.182549
0.271522
0.00799555
0.378774
0.371944
0.426097
0.165742
0.0798152
0.0178713
-0.0104398
-0.00433071
0.425579
0.400454
0.276682
0.282451
0.0909276
0.0244385
0.501878
0.50885
0.457146
0.59133
0.360572
0.490216
0.115226
0.269517
0.21116
0.295757
0.429654
0.411552
0.405288
0.415544
0.270649
0.243097
0.173411
0.15025
0.611552
0.292967
0.488029
0.562181
0.533144
0.205431
0.482283
0.314944
0.211073
0.360361
0.555313
0.16107
0.202825
0.481496
0.349963
0.105938
0.457889
0.362575
0.267703
0.182378
0.431468
0.65586
0.64077
0.364248
0.452791
0.136514
0.0999209
0.329728
0.238812
0.432644
0.111335
0.113874
0.167407
0.153953
0.0563401
0.0932813
-0.038333
0.0906031
-0.016023
-0.119853
-0.00409856
0.41352
0.0148696
-0.00663875
0.386706
0.347709
0.402335
0.482274
0.662438
0.566604
0.415516
0.482169
0.48542
0.461232
0.455029
0.0766621
0.524184
0.040726
0.590577
0.358052
0.0173708
0.4486
0.0694214
0.164608
0.453664
0.494509
0.540308
0.381138
0.448843
0.382901
0.391125
0.313471
0.192436
0.152393
0.294083
0.238371
0.204416
0.140082
0.21346
0.244555
0.0792386
0.0520472
0.204147
0.113774
0.393411
0.249762
0.254419
0.214412
0.30934
0.295127
0.536848
0.458945
0.360054
0.0304169
0.0153392
0.30211
0.228857
0.0202527
0.173101
0.00284776
0.0481616
0.199672
0.230544
0.140088
0.154307
0.704161
0.216086
0.158465
0.0909039
0.0727596
0.131475
0.0592631
0.0455082
0.13139
0.129452
0.186745
0.192811
0.132879
0.412103
0.470057
0.430889
0.593425
0.48058
0.683928
0.679487
0.625031
0.524894
0.663642
0.710336
0.309088
0.207411
0.345241
0.368122
0.254026
0.283852
0.45778
0.355079
0.508186
0.451063
0.576089
0.498949
0.411823
0.473979
0.486582
0.557933
0.498203
0.120298
0.179786
0.193107
0.215641
0.144652
0.222374
0.242252
0.292861
0.159503
0.135629
0.19143
0.0567211
0.170914
0.0526266
0.101629
0.14215
0.151906
0.160977
0.140459
0.313855
0.295785
0.280301
0.779603
0.605177
0.65284
0.476788
0.632737
0.610779
0.599926
0.236742
0.124951
0.153815
0.493001
0.240117
0.443621
0.162157
0.234091
0.586903
0.490194
0.0658475
0.678724
0.0938708
0.0748718
0.0458514
0.154094
0.0177273
0.278109
0.357753
0.425894
0.337081
0.350308
0.244796
0.404535
0.237773
0.460786
0.325466
0.467697
0.355101
0.359185
0.344369
0.357113
0.731419
0.542641
0.586804
0.681321
0.505196
0.440824
0.393092
0.602278
0.617532
0.405774
0.430452
0.396498
0.411821
0.19621
0.0673942
0.213059
0.221337
0.349843
0.403151
0.415473
0.358846
0.622736
0.417958
0.358656
0.255778
0.286255
0.430686
0.102088
0.226486
0.136468
0.209096
0.262255
0.544402
0.322073
0.529748
0.285658
0.436681
0.403131
0.274944
0.276539
0.211919
0.757392
0.538475
0.559498
0.531666
0.125424
0.589799
0.158169
0.0270943
0.0899148
0.56299
0.277344
0.128127
0.340933
0.301761
0.000758047
-0.0520481
0.470187
0.244329
0.216149
0.145261
0.237177
0.210953
0.321587
0.328967
0.133456
0.242488
0.599238
0.405452
0.39576
0.479611
0.429811
0.297696
0.461332
0.23938
0.395039
0.542785
0.473283
0.45717
0.29991
0.278781
0.117234
0.109152
0.162979
0.231307
0.48949
0.379694
0.189345
0.415374
0.600035
0.39068
0.240144
0.36023
0.609859
0.434372
0.146983
0.108229
0.131639
0.303237
0.508366
0.475072
0.555874
0.445338
0.614696
0.541862
0.675873
0.528732
0.548988
0.398741
0.507288
0.414161
0.376448
0.339368
0.384393
0.394547
0.546438
0.109618
0.496403
0.352304
0.362333
0.381285
0.119422
0.333472
0.44951
0.450181
0.115673
0.0549695
0.340699
0.417372
0.340375
-0.0106155
0.412987
0.19576
0.310959
0.225511
0.462291
0.34367
0.401141
0.186212
0.5501
0.289498
0.584551
0.272576
0.0702005
0.0603195
0.0960468
0.0133135
-0.0125159
0.495818
0.236072
0.589577
0.402467
0.232046
0.311541
0.365783
0.0952841
0.141681
0.0546575
-0.0110529
0.00774082
0.00492109
0.466571
0.208473
0.115911
0.0549757
0.251159
0.361469
0.338167
0.26417
0.169457
0.173236
0.306904
0.186087
0.0680539
0.111184
0.128946
0.161997
0.093301
0.159973
0.404216
0.0839303
0.0750961
0.161635
0.351844
0.417066
0.318833
0.345404
0.221931
0.239866
0.149702
0.142121
0.32222
0.0497833
0.273006
0.35152
0.301691
0.346024
0.389524
0.201245
0.274978
0.187136
0.553149
0.129977
0.332851
0.417446
0.074894
0.412694
0.590349
0.451966
0.32877
0.315614
0.565093
0.405995
0.48743
0.588296
0.567073
0.541838
0.385682
0.257488
0.251853
0.327575
0.283869
0.386708
0.33028
0.350188
0.0403722
-0.00341662
0.178745
0.211552
0.131198
0.0819914
0.00329303
0.142731
0.0151499
-0.0199903
0.0629086
0.310239
0.0792681
0.631611
0.0852516
0.206383
0.525096
0.445469
0.565172
0.605688
0.46986
0.250112
0.130871
0.0429228
-0.0144885
0.208153
-0.0221189
0.229364
0.131206
0.290629
0.0810837
0.00619988
0.325217
0.230445
0.063051
-0.0262213
0.517403
0.0246276
0.107868
0.0589954
-0.00735821
0.0805019
0.134648
0.1418
0.0111981
0.460826
0.0271126
0.141807
0.51026
0.504574
-0.0129604
0.0277291
0.0441401
0.515258
0.0637043
0.298355
0.0288242
0.251899
0.151198
0.543043
0.422366
-0.00792605
0.399272
0.0136249
0.0417744
0.215084
0.0879199
0.223143
0.0566665
0.0514453
0.0978982
0.118814
-0.00878519
-0.0665836
0.15844
0.144448
0.48984
0.466073
0.408135
0.144939
0.133579
0.199668
0.135663
0.12278
0.175559
0.0784511
0.0131045
0.142304
0.0183275
0.31352
0.676277
0.32643
0.422262
0.46171
0.311225
0.376033
0.360542
0.132957
0.208357
-0.0788178
0.315436
0.621025
0.39092
0.118014
0.360489
0.213298
0.152737
0.383773
0.0952411
0.321376
0.295936
0.210584
0.550198
0.509473
0.417445
0.278312
0.35302
0.603429
0.281527
0.21052
0.191905
0.278576
0.524253
0.533705
0.233371
0.181985
0.363616
0.52174
0.170369
0.350478
0.0708882
0.258209
0.321416
0.271705
0.490715
0.37799
0.299624
0.2778
0.357235
0.344767
0.43912
0.231063
0.305711
0.320509
0.332549
0.53468
0.597018
0.483227
0.434979
0.570128
0.629322
0.702982
0.586497
0.424476
0.324014
0.327913
0.581959
0.0450304
0.123152
0.203755
0.164843
0.291431
0.197602
0.467194
0.363745
0.371812
0.444695
0.31476
0.228
0.318932
0.28735
0.264574
0.346429
0.275852
0.361875
0.386813
0.423212
0.327207
0.425396
0.28271
0.190137
0.284852
0.33805
0.423592
0.463188
0.308556
0.397683
0.368492
0.408724
0.109894
0.33033
0.484506
0.173641
0.520467
0.616111
0.516283
0.316295
0.451712
0.367261
0.293764
0.313201
0.345075
0.276513
0.198837
0.499818
0.262001
0.211101
0.335083
0.261518
0.109537
0.333923
0.150579
0.196313
0.103106
0.163104
0.100659
0.191806
0.14251
0.25787
0.146669
0.336578
0.355743
0.366623
0.289244
0.407275
0.377207
0.352858
0.33188
0.462025
0.0914174
0.183402
0.16134
0.543412
0.268157
0.156637
0.164996
0.101117
0.608738
0.440386
0.454736
0.523851
0.345942
0.346514
0.35911
0.44534
0.406641
0.316151
0.23792
0.269412
0.0374231
0.566458
0.559342
0.473808
0.481098
-0.0393919
0.174571
0.18586
0.216705
0.462211
0.46547
0.304103
0.395036
0.147209
0.419618
0.42373
0.431668
0.328501
0.465532
0.368268
0.491391
0.388228
0.594886
0.394829
0.442509
0.369205
0.520169
0.496783
0.248974
0.256921
0.398224
0.421977
0.305087
0.469449
0.221897
0.330268
0.222659
0.558234
0.572298
0.461151
0.644603
0.38599
0.32445
0.298644
0.263143
0.355414
0.348356
0.32623
0.633175
0.418749
0.620587
0.24745
0.384267
0.385054
0.223407
0.44701
0.512012
0.332905
0.389847
0.326821
0.57277
0.493801
0.653263
0.561748
0.658875
0.50495
0.43852
0.479664
0.518955
0.412339
0.587428
0.588715
0.594894
0.571726
0.695596
0.454139
0.316858
0.233794
0.114503
0.288128
0.294514
0.392071
0.554075
0.414725
0.229819
0.0560945
0.0186677
0.612948
0.02426
0.379432
0.367238
0.594921
0.572539
0.52223
0.542027
0.488619
0.584974
0.215277
0.163764
0.189196
0.255597
0.199008
0.288999
0.211867
0.162586
0.164742
0.178872
0.295813
0.164233
0.273778
0.363348
0.0838818
0.372055
0.38298
0.325614
0.155899
0.250005
0.0799201
0.0511886
0.258647
0.427518
0.33409
0.405172
0.340588
0.197557
0.332459
0.14596
0.337001
0.223236
0.185973
0.113049
-0.0152316
0.395276
0.305187
0.428393
0.404196
0.220436
0.238484
0.33301
0.145939
0.210034
0.278456
0.348815
0.314386
0.400756
0.406714
0.313735
0.135941
0.116978
0.0858176
0.301295
0.0700116
0.491004
0.488709
0.0724821
0.305892
0.281709
0.218554
0.149
0.179542
0.182671
0.108594
0.118555
0.291951
0.320796
0.105709
0.28144
0.0898164
0.195306
0.196193
0.275399
0.386117
0.512612
0.27576
0.348173
0.137189
0.280564
0.383182
0.363319
0.343481
0.0673867
0.26314
0.287432
0.388902
0.567917
0.331176
0.447874
0.395699
0.291738
0.414774
0.325332
0.391319
0.486929
0.478527
0.570667
0.298415
0.315505
0.742912
0.551022
0.337428
0.297697
0.386787
0.236359
0.35638
0.471403
0.395659
0.0639774
0.141823
0.379906
0.0853211
0.333857
0.173178
0.0905255
0.390993
0.0256754
0.0863544
0.149307
0.0828085
0.00842185
0.325842
0.248587
0.307021
0.280463
0.327987
0.318554
0.274192
0.152423
0.250693
0.152835
0.307961
0.157413
0.297737
0.193205
0.0206805
0.383902
0.51799
0.696976
0.0559185
0.189187
0.749655
0.656105
0.806554
0.212667
0.0758173
0.243525
0.432447
0.206999
0.179135
0.14112
0.265023
0.0175161
0.684161
0.313437
0.232158
0.582423
0.59325
0.134189
0.22687
0.148011
0.00629779
-0.00220259
-0.041227
-0.0707906
0.0991935
0.202496
0.529843
0.192737
0.0369638
-0.0956715
0.0249074
0.0221148
-0.0204988
0.0357613
0.0438828
0.0209737
0.593925
0.625168
0.710767
0.562478
0.44178
0.45534
0.58032
0.610472
0.451314
0.396386
0.326824
0.378377
0.369959
0.377833
0.360822
0.360916
0.356631
0.248256
0.298587
0.345171
0.426401
0.103367
0.155235
0.204137
0.463005
0.425387
0.479443
0.398544
0.345897
0.383392
0.439296
0.456641
0.139629
0.135858
-0.0336291
0.346472
0.251149
0.115718
0.111666
0.507167
0.216405
0.27519
0.366581
-0.0226514
0.154112
0.309992
0.293502
0.113276
0.0380503
0.101229
-0.0239638
0.224731
0.520076
0.503445
0.498053
0.439802
0.388996
0.44964
0.384822
0.418646
0.302142
0.456008
0.0750639
0.374841
0.213534
0.299616
0.454731
0.420885
0.121813
0.00799348
0.0332723
0.0790629
0.187
0.222347
0.401912
0.254735
0.275956
0.328024
0.363707
0.456108
0.41801
0.466951
0.602943
0.41595
0.480893
0.512286
0.357284
0.249744
0.405277
0.340547
0.570038
0.642043
0.696296
0.42845
0.548585
0.685792
0.746944
0.633915
0.662841
0.523699
0.410804
0.123738
0.0641967
0.237363
0.30006
0.228073
0.3271
0.551307
0.202559
0.367865
0.166564
0.240198
0.153431
0.338473
0.461454
0.297609
0.331145
0.418146
0.492746
0.677702
0.560622
0.459479
0.467441
0.486556
0.476643
0.46392
0.466065
0.433546
0.188886
0.223023
0.398399
0.245598
0.147409
0.0215259
0.322162
0.221792
0.27964
0.110371
0.303857
0.37499
0.284474
0.24843
0.246824
0.258045
0.222041
0.126825
0.315604
0.435921
0.298311
0.328662
0.369474
0.200121
0.207814
0.388982
0.382239
0.428567
0.323237
0.44906
0.127389
0.165728
0.474212
0.448108
0.519075
0.528755
0.129955
-0.0740337
0.117616
0.0483549
0.0840221
0.105093
0.152231
0.437949
0.414254
0.135195
0.363815
0.267185
0.279651
0.226377
0.298362
0.335539
0.372953
0.373844
0.186488
0.353589
0.241222
0.00390345
0.0433401
0.0114432
0.220354
0.434247
0.299092
0.425815
0.295453
0.528552
0.584524
0.0418232
0.11646
0.17262
0.115063
0.208188
0.112508
0.0262539
0.244338
0.0349442
-0.0584123
-0.0337296
0.0779508
-0.00948166
0.109766
0.040522
-0.0311194
0.0300202
0.0738384
0.0353763
-0.0426038
0.112761
0.196598
0.0444725
0.430998
0.458104
0.278873
0.417772
0.422708
0.270316
0.308322
0.482859
0.468686
0.306433
0.396264
0.17363
0.116026
0.174503
0.211069
0.323544
0.469787
0.404184
0.340005
0.704499
0.166978
0.390901
0.140402
0.445438
0.467181
0.456432
0.560703
0.595237
0.598996
0.61367
0.530955
0.496747
0.398616
0.417892
0.526786
0.519493
0.529666
0.525877
0.437153
0.261935
0.292412
0.265739
0.382306
0.325015
0.410759
0.270383
0.292875
0.350202
0.401838
0.342158
0.218445
0.25394
0.322894
0.338609
0.414557
0.40948
0.356946
0.0467847
0.0920362
0.0593576
0.119847
0.0560295
-0.0142888
0.0837332
0.0490466
0.112783
0.335119
0.304728
0.157903
0.670883
0.397079
0.737648
0.529631
0.450132
0.328886
0.313562
0.357209
0.250097
0.381703
-0.0604972
0.37108
0.420505
0.370123
0.410977
0.0615783
0.0400235
0.665592
0.623367
0.101932
-0.0191625
0.542346
0.377903
0.628426
0.116871
0.0705981
0.286567
0.180863
0.338791
0.37386
0.371261
0.306975
0.390529
0.470845
0.378822
0.186913
-0.0346378
0.127301
0.137473
0.144316
0.222717
0.303293
0.253624
0.318859
0.212145
0.267018
0.261746
0.278573
0.133067
0.162036
0.12804
0.445295
0.371396
0.37675
0.611496
0.526829
0.152164
0.0427231
0.368739
0.279179
0.262276
0.235554
0.246822
0.205994
0.323504
0.445736
0.342599
0.272537
0.386799
0.262999
0.185501
0.394015
0.322759
0.60697
0.481801
0.767572
0.409378
0.257785
0.219514
0.252176
0.620081
0.370121
0.559263
0.353474
0.550317
0.742469
0.83588
0.544277
0.497521
0.386929
0.531771
0.456787
0.199952
0.255229
0.297529
0.259587
0.219208
0.0912207
0.113079
0.444872
0.392036
0.236177
0.039233
0.44905
0.0645063
-0.0277818
0.394798
0.20081
0.345703
0.0318089
0.214102
0.0298617
0.348456
-0.0369062
0.263946
0.279631
0.210336
0.342637
0.509291
0.13422
0.430939
0.32614
0.331712
0.123807
0.204736
0.40154
0.308745
0.440737
0.493524
0.390422
0.34318
0.284333
0.251572
0.103469
0.311558
0.348284
0.414168
0.349773
0.442395
0.433146
0.469374
0.446112
0.339886
0.391876
0.443983
0.552208
0.180464
0.254891
0.117945
0.13947
0.13854
0.271633
0.390133
0.63486
0.108459
0.232837
0.328257
0.3976
0.101316
0.188525
0.0630454
0.194133
0.256969
0.21509
0.237152
0.3042
0.127267
-0.00481286
0.0669469
-0.074361
0.206497
0.0932592
0.0894909
0.17699
0.0576782
0.0383383
0.0706597
0.307481
0.234247
0.0031295
0.0480723
0.0396783
-0.0544814
0.1519
0.00137359
0.148534
0.0985151
0.118682
-0.00413586
0.119047
0.126661
0.0321596
0.366039
0.429884
0.324234
0.334118
0.302217
0.188334
0.23139
0.191392
0.133327
0.131373
0.166982
0.0969242
0.25087
0.221355
0.173393
0.196145
0.411218
0.43337
0.325503
0.372603
0.381091
0.362313
0.350577
0.119583
0.305974
0.346432
0.443386
0.427903
0.315745
0.341962
0.378452
0.165485
0.0907307
0.142385
0.415315
0.473459
0.533678
0.41082
0.42046
0.270302
0.235022
0.273664
0.358394
0.383291
0.270883
0.226396
0.323579
0.312147
0.264196
0.133295
0.26179
0.215632
0.0825723
0.106897
0.186031
0.170846
0.0924527
-0.00122992
0.0954116
0.495877
0.531877
0.459091
0.342377
0.397084
0.34495
0.694132
0.498878
0.633202
0.40787
0.201041
0.444525
0.267251
0.441631
0.466515
0.236798
0.075299
-0.0296936
0.239619
0.279096
0.0196797
0.0283132
0.0361796