/*--------------------------------*- C++ -*----------------------------------*\
| =========                 |                                                 |
| \\      /  F ield         | OpenFOAM: The Open Source CFD Toolbox           |
|  \\    /   O peration     | Version:  2506                                  |
|   \\  /    A nd           | Website:  www.openfoam.com                      |
|    \\/     M anipulation  |                                                 |
\*---------------------------------------------------------------------------*/
FoamFile
{
    version     2.0;
    format      ascii;
    arch        "LSB;label=32;scalar=64";
    class       volScalarField;
    location    "0.0501868";
    object      p;
}
// * * * * * * * * * * * * * * * * * * * * * * * * * * * * * * * * * * * * * //

dimensions      [0 2 -2 0 0 0 0];

internalField   nonuniform List<scalar> 
3946
(
1.21822
1.31397
-1.89398
1.27542
1.46749
0.39125
1.21489
1.23919
1.03673
1.25885
1.89938
1.47953
-4.1756
1.24984
1.25766
1.30648
1.38156
1.41243
1.29266
1.79553
1.26855
1.30842
1.26459
1.0792
0.81164
1.16147
1.16632
1.25881
1.28185
1.30099
1.89633
1.2839
1.04946
1.26335
1.25168
1.35395
1.56035
1.34228
1.29901
1.09813
1.19842
1.30668
1.05383
0.969047
1.15381
1.00702
1.45444
1.6346
1.16007
1.07646
1.23659
1.06209
1.38241
1.28047
1.23452
1.56646
1.38406
1.33979
1.2737
1.2222
1.85053
-28.824
1.59386
1.3037
1.5509
-28.6296
-29.5733
-28.4542
-28.4169
-1.21662
1.43905
1.48388
-19.3818
1.05235
0.1267
1.1485
1.30637
1.21853
1.15397
1.08469
-29.0055
-8.79217
1.25808
1.54036
1.14459
-31.2642
-14.9102
-28.6124
-29.9062
-30.1634
-42.3067
-31.0903
1.04714
1.08613
1.07104
1.15564
1.23068
1.10368
0.416529
1.32676
0.514071
1.13881
1.13659
-30.0329
1.22549
1.27123
-12.0449
2.78302
1.17308
1.0941
-7.81001
1.23209
1.3254
1.26524
1.23136
1.31363
-7.55736
-0.308564
-27.6296
-29.4079
1.57747
0.969615
1.49829
2.39009
1.40779
1.6782
-37.4882
-10.5836
1.56656
1.60313
0.840784
-33.7966
1.4836
0.615076
0.0409043
-11.749
1.13116
-36.5355
2.2754
-39.6996
-29.9441
-34.5021
-40.5572
1.23017
-7.60414
1.2003
1.52182
1.61141
1.09102
1.18802
1.17059
1.05112
1.47439
1.07713
1.38304
1.22717
1.31514
1.54285
1.76795
0.867517
1.02019
-0.251725
-27.5137
1.3258
1.26248
1.20761
1.12206
1.10932
1.20415
-23.5366
0.957294
-36.0207
0.974471
1.15657
1.25422
1.0535
1.39706
1.04213
-1.4027
1.36846
1.42383
1.28521
1.58459
1.29256
0.767057
0.734063
1.54126
1.20281
1.65549
1.41692
-2.85401
1.32261
-29.6899
1.34974
-29.5171
-29.5639
-28.8701
1.90272
1.7653
1.66325
1.2275
1.47204
1.67966
1.78358
1.77208
1.31586
1.03586
-0.702001
1.32273
1.17385
0.671882
0.678647
1.06957
3.37413
2.05588
2.38094
2.05844
2.6774
2.22614
1.96836
-30.6489
-29.3454
1.11288
1.71072
0.958001
-28.9708
-28.9032
-0.560625
0.73786
-28.4442
-3.88743
0.339822
1.84211
-9.23436
1.18926
1.25465
1.22756
1.27994
1.12187
1.37683
1.26804
-28.4824
-27.2088
-35.4174
1.1882
1.20789
1.15503
1.3112
-1.65001
1.26456
1.40139
-44.7857
0.490122
0.541416
1.41298
0.445628
1.21545
-0.463609
1.2426
1.34531
-0.737387
-27.0989
-32.0298
0.847311
0.911772
1.05713
1.01827
0.98646
1.01305
1.03738
1.26282
1.18975
1.31374
0.812533
0.5159
0.469899
0.475531
0.519308
0.55875
1.22375
1.00375
1.16538
1.63888
1.31069
1.22453
1.17939
1.00224
2.11669
1.11559
1.03212
1.13094
1.06715
2.61684
1.26433
1.36046
1.07823
1.19139
1.17858
1.36447
-28.651
1.89605
-29.1635
-28.7797
-28.4487
1.2528
-0.0170005
-41.94
-18.2339
2.18433
-37.0746
-36.3121
-29.1711
-28.7666
-28.9442
1.18645
-29.0252
0.909596
0.741234
0.89705
-37.5825
1.28743
-43.3926
1.14321
1.17964
1.62595
0.980502
1.51556
-0.40136
-3.58219
1.15811
1.14131
1.31036
1.13546
-35.8307
-52.5787
1.15646
-0.189363
-38.6347
-29.2068
-29.2237
2.19707
-30.2304
-30.3387
-0.386961
-38.3019
-13.2256
-1.77158
2.15756
-17.1157
-38.1293
-30.9251
-4.54503
-33.677
1.28812
-31.3479
-28.8732
-24.9787
1.37912
-35.8721
-29.4918
-32.3009
-27.3569
0.919358
-9.77361
-50.2321
-38.5942
-9.71787
-33.4747
-38.5424
-32.9209
-31.112
-39.341
1.01301
1.17309
1.01374
2.11071
1.18703
1.59387
-2.2647
-22.6258
-0.159506
-6.56929
0.573615
1.27594
-2.96906
0.188516
-3.51133
-1.45195
2.58775
0.355034
-47.1147
0.651886
0.699223
-41.1895
-3.04532
-28.9694
0.929544
-7.04057
2.03408
1.14444
-1.15192
1.9132
0.766486
1.11948
1.48817
1.16464
-13.5474
1.54131
1.84821
0.466044
1.09671
0.979489
1.31546
0.96753
0.579456
0.342622
1.35155
1.04769
-2.96876
-5.04974
0.972939
-4.82015
1.42261
-39.8863
1.63285
1.53593
2.00861
1.27737
1.46029
1.33023
1.89157
2.37687
1.41897
1.50387
-5.38948
1.3159
1.26292
1.05748
0.210585
0.0496039
0.554688
0.964289
0.392698
-0.135149
0.391632
-35.4488
-39.3064
-1.42749
0.750926
1.50881
1.29768
1.05168
1.425
1.28033
1.10253
0.994838
0.087754
1.22277
1.29707
1.49561
-4.52707
-0.311912
-29.4423
-34.4117
-37.5081
-33.8085
1.77478
-13.6971
-44.2941
-7.4144
-1.92992
4.58962
1.34653
1.30355
1.39003
1.30241
-0.553061
0.795408
-1.06627
0.430705
-32.7894
-33.2978
-33.0611
0.872694
1.12947
1.47537
-1.36031
1.66603
1.84639
1.37598
2.1125
1.88234
1.05249
1.61685
1.42731
1.09433
1.29354
0.583154
1.61067
1.60459
-0.285007
0.514536
1.42777
1.25134
1.49548
-0.178697
-0.0816834
-36.2519
-29.0224
1.21742
-30.0382
-31.7941
1.26059
-2.37197
-8.65156
-37.4244
-3.22128
-0.268313
-1.74559
1.1874
1.26836
0.00441943
0.268235
0.602527
-0.208379
0.57387
1.46697
1.54311
-1.72541
-40.9495
-36.8205
-20.4555
0.837889
-31.3982
-31.1188
-16.516
1.42354
1.10041
0.581307
1.22008
0.793884
1.07184
-5.88517
1.19664
1.30436
1.17643
0.224674
1.36606
1.3271
1.46964
1.03207
1.10059
1.15957
1.47479
1.10964
1.2673
1.09699
-0.289547
1.43689
0.990182
1.23596
1.37898
1.43093
1.30364
1.20557
1.15928
-3.1176
1.19549
1.08845
-48.8596
1.2604
1.4817
1.32455
1.2606
1.19193
1.57873
1.1609
1.38071
1.33279
1.79847
1.86705
1.81828
1.60222
2.02585
1.35917
1.24369
1.49791
1.7
1.84404
1.3092
1.18635
1.30058
1.34201
1.15231
1.43285
1.6703
1.28414
0.798478
1.35576
-13.0381
1.16826
1.13231
1.90205
-29.8638
1.61566
1.28093
0.477652
1.44418
0.297133
1.164
1.41065
1.20183
0.885951
2.53191
1.42155
1.21673
1.46012
1.34475
1.19761
1.23273
1.05397
-41.6343
-40.0951
-35.3214
0.997701
0.944721
2.52524
1.14996
1.33228
1.78641
1.08134
1.10871
-2.96844
-10.8426
-11.7694
-21.2585
1.0298
-6.66641
1.16048
-5.44595
1.18583
-6.60241
1.12171
1.24169
0.939936
1.49081
1.47576
2.84432
-1.17078
1.16439
1.24804
1.26072
1.27084
1.09975
1.26492
1.33233
1.38752
1.75677
1.51523
1.48645
1.22091
-0.682173
1.30073
1.07142
1.27429
1.40275
-0.958257
-10.8444
0.845273
1.25001
0.0221543
1.138
1.10201
-31.3294
-30.2784
-31.1252
1.40513
1.7975
1.26419
1.59611
-1.0545
-32.3092
1.19245
-31.1255
1.39299
1.14482
-0.0205688
3.42991
1.71706
1.46531
1.09086
1.31006
1.9274
1.29223
1.61216
2.02199
-48.9329
-48.3129
1.52884
-20.7536
-33.5902
1.16524
1.99747
1.23087
1.17681
1.45801
1.11396
1.14445
1.53661
0.781256
1.09047
1.06917
1.12276
1.50213
1.04571
1.07795
1.55183
1.01796
1.35178
0.980789
1.01321
1.38119
1.37198
1.2874
-0.497121
0.927933
1.13396
-3.70512
1.2089
2.21001
1.14927
2.35871
1.34395
2.43428
1.20796
1.44313
1.87129
-1.55093
1.34843
1.36315
1.5351
1.21733
1.36591
0.0748915
0.967782
1.1033
1.11404
0.109666
1.43427
2.73514
-30.7161
-36.5307
1.04635
-46.9004
-56.3265
-34.3244
-37.3446
1.4745
-31.4348
-32.2712
-42.341
-0.839256
-0.0650605
1.52741
-2.0603
1.23715
-28.9233
-1.9626
-6.68197
-4.22382
-0.996875
0.67646
-0.549616
-36.8624
-29.5179
-34.6157
-29.0729
-31.5821
-41.6395
0.364534
-2.12671
1.32993
-0.116949
0.625322
1.28477
1.42919
1.29896
1.11779
1.10901
1.02229
-24.1423
1.07391
1.49927
1.16328
1.70042
3.29384
1.19452
1.63058
-0.243095
0.923556
0.93778
1.17051
0.0445271
0.568581
0.904787
1.10231
1.24497
2.39339
0.824893
-2.45604
1.06257
1.35014
-0.0276971
0.436862
0.545249
2.00039
1.16068
-4.68673
-15.5413
1.75204
-3.89661
-2.55089
-1.89692
-0.202226
-2.53755
2.3292
-5.33763
0.0484275
1.92946
-0.738284
0.639745
1.13042
1.64862
1.38696
-0.669089
1.34271
-29.6111
1.14401
-1.45839
1.3203
-45.2692
1.50297
1.01899
-9.99562
0.290985
-30.3414
-30.1455
-30.5451
-28.6189
-5.70649
-38.6302
-32.9319
-12.4586
0.443762
-29.0551
-37.1254
4.99497
-6.49148
1.88504
1.40009
-0.909139
1.05917
0.390549
-0.0780663
0.644375
0.920221
1.02451
3.3472
0.419623
1.01402
0.0453465
-0.338585
1.57994
1.76562
1.31228
0.457735
4.44233
0.79736
1.05321
1.26343
1.20539
1.31443
1.42
1.27663
-0.10798
0.526291
-0.266494
1.73502
1.4664
1.64081
1.6949
1.32522
1.11519
1.56463
1.47282
1.02878
1.06588
1.36524
3.2787
3.12654
2.27284
2.20081
1.74501
1.89425
1.51231
1.73567
1.28363
-28.0099
-34.6774
1.59508
-14.4613
-31.206
0.639121
-1.18225
3.10546
-0.555963
1.21457
-22.7222
0.0585764
-31.3957
-42.9251
-23.6554
-29.7746
1.36821
1.38394
1.32427
-39.5774
1.26566
1.2037
1.74395
-34.6643
-29.2406
-46.4481
-60.0188
-55.4073
-29.753
2.47514
-26.7463
-38.8663
0.619285
-20.3856
-39.7202
-23.6887
-9.79352
-29.5936
-30.5873
1.80628
-38.9239
-5.49259
-30.4467
-33.7313
1.15809
-48.9274
-33.9875
-44.3297
1.20275
-10.7556
-32.9278
1.29674
-0.039843
0.668959
-43.5058
-32.4442
-1.51765
1.72658
2.85767
1.82625
1.54032
-1.95201
-3.21243
4.30367
-0.853143
2.15956
-0.724532
-28.098
-20.1275
-21.0948
-17.4154
-40.1498
-54.6923
0.707889
-0.141364
0.965939
-7.81472
-10.648
-2.11029
2.24465
1.72628
-25.745
0.59943
1.25799
0.829781
0.382133
1.13822
-0.354351
3.8911
-0.326099
0.108997
-0.39295
-1.70704
0.65014
0.719394
1.62946
-0.208392
1.21334
0.917963
1.15114
1.41625
-74.3213
-31.4679
0.907221
-4.13787
1.61618
1.02327
1.41167
-5.19919
1.58696
1.73904
1.89064
1.42622
-9.14082
0.654575
-11.6368
-8.69882
1.27447
-21.8015
0.879755
1.10916
1.04689
1.06788
1.13836
1.35755
1.31847
1.48314
1.35556
-1.10349
2.138
0.524628
0.578424
1.52463
-1.58678
1.41055
1.68213
-1.65077
1.56777
1.86669
-26.1102
-35.9421
1.91661
-17.333
-33.1408
-22.2905
-43.351
-4.63684
-50.1819
-25.6737
-38.7316
0.418992
-2.94912
1.59164
1.21399
-0.607183
-0.218621
-31.112
-34.5121
-0.456231
-0.575704
1.10806
1.68769
1.79167
2.29591
2.37526
1.98319
2.48529
1.25619
1.37697
1.40471
1.31416
1.32191
1.48984
1.6588
-2.50485
1.43329
1.64679
0.864143
1.32659
1.50724
0.67653
0.422604
0.498307
-0.187443
1.48703
1.50588
1.49369
1.30675
1.54899
1.43597
1.48238
0.46149
-45.0805
-26.9443
-13.9888
1.17907
-3.16245
-4.04891
0.482954
1.29142
1.34263
1.54622
1.56999
3.32313
1.78559
1.23581
1.29226
1.20546
-4.28667
-30.4731
-31.4946
-32.3541
-31.5073
-36.5208
1.1401
2.7861
1.18584
1.22832
1.40571
1.32803
1.22248
1.24065
0.827511
1.06022
1.21695
1.5958
1.00132
1.82613
1.0745
1.66036
1.84833
1.21324
1.20299
1.28531
-17.7561
-8.86284
-3.7632
0.767754
0.517451
-7.85003
1.41586
1.58018
1.4983
1.22219
1.36746
1.52039
1.58386
1.59964
1.75469
0.368109
1.66024
1.9081
1.15673
1.12667
1.14317
1.22723
1.11824
1.33413
1.21905
1.13619
1.11621
1.28044
1.35726
1.37728
1.79718
1.37515
1.10367
1.21095
1.28772
1.17761
1.85861
1.12819
1.69017
1.28381
1.2227
1.71541
1.63164
1.58893
1.51841
1.34837
1.18001
1.39882
1.25863
1.42981
1.40437
1.18287
1.11623
1.16857
1.1017
1.45002
1.30678
1.45997
1.15689
1.14298
1.75735
1.08529
1.66929
1.52033
1.6093
1.3531
1.75247
1.2849
1.20963
1.32291
1.37598
1.8153
1.44891
1.12908
1.34651
1.05504
0.191063
1.02546
1.1771
1.67252
1.24903
1.82235
1.25893
1.26872
1.8158
1.64962
1.25765
1.23821
1.68105
1.34931
1.32974
1.31097
1.12693
-38.7011
1.41225
1.30899
1.27052
1.98272
1.32065
1.19197
1.06718
0.766626
0.861651
0.958502
0.880931
1.16873
0.966039
1.38598
1.37361
1.50062
1.09803
1.16048
1.59816
1.1086
1.24766
1.01342
1.3443
1.39391
1.35657
1.22371
1.28553
1.36739
-22.9839
1.04416
1.40951
1.11783
1.06006
1.3368
1.32576
1.36284
1.34634
1.40863
0.581747
0.520571
0.201201
0.646668
1.25841
1.42235
1.1353
0.709863
0.598425
0.239702
1.19587
1.181
1.43948
0.621957
1.18732
1.10042
1.08018
1.21403
1.00376
1.3273
0.637728
1.08094
6.17228
2.27091
1.38933
1.49685
1.48932
1.9646
1.83336
1.38102
2.10827
2.95477
3.00553
1.37522
1.50015
1.96844
1.1327
1.35034
1.02482
1.20521
1.29112
1.2222
1.4416
1.22005
1.12064
1.56566
1.03419
-11.1263
1.42079
2.08127
0.896853
2.19032
1.05881
1.20974
1.359
1.25055
2.38312
1.39358
1.59577
1.43193
1.35084
-38.4342
1.78533
0.154126
-1.38345
2.73307
1.67721
1.51214
1.5433
1.18381
1.31416
1.21121
1.21677
1.16438
-22.7991
1.76988
1.24269
1.834
1.46305
1.35121
1.58881
1.31884
0.493039
1.48093
1.26613
1.26468
-7.59875
1.21249
1.40981
1.34907
1.0293
1.20386
-29.2304
1.22717
-28.6429
1.51241
1.56347
1.62528
3.20645
3.1304
1.26721
1.60086
1.53932
1.89831
1.68941
-10.7779
1.59091
1.24992
1.25936
1.44097
-31.5146
1.15892
1.06673
1.13476
1.10277
1.85195
1.54404
1.98183
1.12848
0.341054
1.43559
1.64854
-0.191943
1.17507
1.0046
1.144
0.94356
1.22819
1.63751
0.456042
0.784407
1.5349
1.22961
1.077
1.05832
1.17389
1.21497
1.4304
2.11138
1.9894
1.12773
1.02727
1.42847
1.20039
1.26965
1.44764
1.24608
1.41247
-30.3769
1.79772
1.11338
1.53577
1.55846
1.60253
1.42055
1.56862
1.30843
-31.3344
1.43144
1.32685
-30.0455
-31.6527
1.21035
-35.6913
-30.1709
-38.1169
-34.4178
-35.7409
1.26476
1.09394
-27.5172
-15.6566
1.13813
-26.7332
-29.1816
-33.65
-30.6116
1.23377
-9.95355
-33.2482
-22.0623
-32.6727
-19.5281
0.638444
1.15216
-38.939
-29.3282
-33.0153
1.17313
1.1901
1.18349
-34.3539
1.1116
-31.696
0.0512799
1.36557
1.60374
1.12375
3.0135
1.14341
2.16077
2.36434
0.562673
0.638813
-1.34611
1.15416
1.1127
1.08156
1.7479
0.789977
0.243767
0.927633
0.526268
0.15561
1.2395
2.03529
1.13318
1.25458
1.11601
0.952606
1.1619
1.50282
1.81487
-0.316854
1.24729
2.0988
2.49545
2.62862
1.48328
-16.5755
2.68231
-22.6345
1.28207
1.83186
1.24519
1.07611
1.16842
1.36598
1.53544
1.58365
1.66832
1.2201
2.12437
1.13338
1.32458
1.24054
1.15278
1.38089
1.48925
1.47346
1.6183
1.95951
1.79755
4.34515
1.39773
2.40534
1.33726
1.7759
1.46357
1.39073
1.09268
1.90728
1.52282
1.17308
1.55044
1.61617
1.36292
-44.1386
1.30541
1.35436
1.35323
1.50287
0.845772
1.66773
0.727201
-34.3542
-31.033
0.216052
-5.32967
1.22079
1.27438
1.1511
1.31113
1.19601
0.703447
1.5562
0.0461828
0.543829
1.39973
0.461486
-47.494
0.687592
0.618125
-0.939009
-0.404178
-37.6051
-20.247
-0.881901
0.599649
-38.0657
0.677102
1.21992
1.25617
4.24077
2.62883
1.65947
1.01956
1.28057
1.1806
1.24231
1.59014
1.13293
1.40026
1.20022
1.20014
1.31363
1.10842
0.816696
1.278
0.974166
1.34585
1.14523
1.19704
1.05342
1.19205
1.2014
1.21703
1.21098
1.2455
1.29604
1.25293
1.56399
1.35111
1.36912
1.34594
1.66719
1.34789
1.46397
1.34126
1.54214
1.50012
1.55847
2.529
0.190067
0.272302
0.307916
0.441321
0.366855
1.1001
1.25059
1.31724
1.24369
1.07311
0.972378
1.05644
1.09619
1.23561
1.25535
1.2133
1.07361
-27.7795
1.35623
1.47995
1.60708
1.34678
1.37272
1.22137
1.18195
1.4693
1.37057
1.02453
1.73157
1.88225
1.63066
1.75523
1.72054
1.54529
1.1042
1.1557
1.16968
1.2549
1.09401
-2.20789
-1.37782
-3.32434
-2.70082
1.80108
-12.4944
-4.5298
1.39359
1.49171
-3.09571
-2.9993
-1.71194
1.19918
1.20638
1.18726
-25.6519
-36.5614
-29.2067
1.40518
1.04067
-10.8894
0.267931
0.550152
-1.91443
-1.91836
1.58188
3.89699
-29.6648
-10.7771
-35.2625
-34.9635
1.31288
1.39636
1.20096
1.42608
-29.3498
-33.4465
-36.6631
0.385161
-34.4258
-15.6499
-14.3839
-24.5172
1.6593
-72.2744
-51.4094
-35.6963
1.01371
1.2491
1.46453
1.42694
1.32876
-0.959513
-9.10609
-30.8589
-0.289463
-0.214255
-0.637948
-29.8404
-39.1592
-26.8835
-5.24841
-29.7756
-43.1202
0.950293
1.10463
-0.401593
-0.360425
-6.80405
1.13802
1.3018
1.18806
1.56245
-57.7217
-42.5135
-0.478725
-0.319205
0.112732
-0.124797
0.137202
0.358135
1.16907
1.48751
0.680098
1.81074
0.479222
0.624632
0.418638
-45.1181
0.327019
1.21872
1.31343
1.14819
1.21992
2.33156
1.15276
1.08064
1.20985
-48.2075
-2.27405
0.386127
0.671342
-3.81605
-0.475146
0.795388
1.55258
1.10968
-0.897245
0.645111
1.75065
3.20763
-2.94951
1.60175
1.04028
3.26241
-6.41224
-1.19644
-0.545363
0.953066
1.31993
1.79584
0.552391
0.809576
1.16887
1.29802
1.22789
0.956881
0.712094
1.3887
-0.509049
0.604551
-1.22519
1.61201
0.67531
1.27016
1.26837
1.32101
1.2083
1.27431
1.8734
1.07965
1.36702
-16.3644
-15.9278
-16.7197
1.29425
1.18762
1.33106
1.37631
1.78274
1.37332
1.37702
1.73651
1.5836
1.36651
1.97862
1.76143
1.43065
1.50746
1.27124
3.10988
1.17994
1.35211
-0.430715
3.76851
2.73642
1.07748
-1.28053
1.73277
1.96324
2.09664
1.95327
1.84548
2.30727
1.27176
1.23653
1.20103
1.38617
-1.21872
1.51565
1.59539
1.48482
1.44919
-0.805074
1.25525
1.4588
1.63034
1.51432
1.21876
1.6103
1.49868
1.58018
1.10811
1.26283
1.14295
3.10202
3.76221
1.81932
1.38479
1.36299
-31.4516
1.13643
1.19594
1.44755
1.17469
1.37345
0.630367
1.28866
1.18162
1.267
1.30148
1.84171
-36.3086
-33.8146
1.28123
1.20345
1.083
1.1485
2.24752
2.03721
1.7591
0.66983
-38.2414
1.42259
1.36296
1.44455
1.11338
1.26582
1.12973
1.2534
1.25906
1.30948
1.17086
1.22897
1.35073
1.23015
1.14059
1.24714
1.15728
1.32968
1.10576
1.11
1.03359
1.03185
-16.8074
1.36267
-0.469643
1.16876
1.22265
1.51957
1.56291
-19.6074
-19.6978
-28.8378
-27.2486
-37.1276
1.62529
-47.9125
-28.4756
-35.6757
-29.3483
-0.437614
-0.0733224
0.792505
-32.1211
-29.3969
0.402338
1.85132
-2.35952
-31.7594
1.6932
-0.166924
1.30568
1.17501
0.965467
1.1145
1.29592
1.38924
1.09144
1.26147
1.53007
1.51705
1.65491
1.97034
1.1981
1.58674
1.11883
1.0824
1.19459
1.34312
1.05994
1.63329
1.21215
1.20249
1.40639
1.54305
1.22971
1.08289
1.14152
1.27665
1.35383
-10.5036
1.51527
1.08191
1.22277
1.1089
2.14193
1.23671
1.18486
-29.4632
-29.1978
1.77176
1.99465
1.74168
1.53441
1.43748
1.20358
1.52143
1.45232
-2.52181
1.39574
1.70832
1.61428
1.58551
1.58967
1.6716
1.56841
1.07817
1.29651
3.39384
1.15383
1.46345
1.37182
2.24352
1.24269
1.041
1.02779
-2.85776
-3.00489
1.37384
0.290225
1.05665
1.07461
0.958131
1.38304
1.25448
-4.41109
1.30473
1.11563
1.1068
0.951015
1.12855
1.19978
1.75595
1.67255
1.20715
1.16231
1.11898
-31.6495
1.1436
1.08354
1.10765
1.48317
1.11191
0.708769
0.925475
-12.6479
1.39668
0.0120758
1.32988
0.82719
0.0102336
-0.0703579
1.12336
1.04058
1.31476
1.09017
1.12358
1.0706
1.38674
1.20254
0.220683
-2.72732
1.21083
1.38406
1.32557
1.48447
0.966016
-0.329919
-0.27601
1.27226
0.632939
0.18329
1.3739
2.02664
-0.981344
1.8017
2.27687
1.46591
1.47924
1.33444
1.52905
1.64213
1.60494
1.4967
1.55371
1.9771
1.42661
1.42286
1.36849
1.58149
1.61183
1.50877
-3.51417
-0.0335603
2.16952
1.64535
1.47569
1.35216
1.27312
1.34995
1.47963
1.29544
1.19807
1.04
1.05994
1.57813
1.3829
1.6108
1.52825
0.791735
1.64981
1.65363
0.710297
1.51823
1.60198
-34.0497
1.45671
1.56907
-0.351976
1.01451
0.939174
1.59763
2.26153
1.42197
1.59593
1.76795
0.856506
1.24964
1.67374
1.38768
1.41702
1.37853
2.41173
1.26645
1.5626
1.52692
1.84702
-30.5113
-29.6066
-34.2378
-39.4076
-29.5122
-45.7093
-33.5725
-36.7758
-31.3024
-32.9897
-30.6232
-29.6335
-30.9485
-31.7245
-29.1365
-31.374
-29.444
-34.2276
-30.3306
-29.0873
-30.2344
-35.7696
-33.667
-28.9782
-30.6258
-28.394
-33.2469
0.336701
0.529608
1.03935
1.56784
1.33823
1.21933
1.23815
1.29533
0.576512
1.26861
1.22898
1.11158
1.01624
1.02709
1.28997
1.21974
1.00128
0.635898
0.718345
-8.37093
1.46392
1.27922
1.79307
2.07731
0.988664
1.14905
1.12601
1.21833
1.10984
-4.76608
1.65406
1.07745
0.132972
1.69285
1.59043
-1.57618
-1.69848
1.37518
1.74149
2.05123
1.77236
1.3252
0.984474
-2.48524
0.0874893
-7.35795
1.36244
1.38475
1.57837
1.35932
0.799588
-0.148264
-23.0299
1.02249
1.3506
0.700794
-0.752951
-0.84988
-2.88367
-10.366
2.12302
2.98145
-15.4822
0.565169
0.944638
1.32684
0.988527
1.13583
-31.0536
1.60411
-28.947
1.7331
-46.1517
-36.7258
-36.2772
-32.5169
-28.1844
-36.3271
-35.8875
-35.0688
-24.6949
1.72431
0.911242
1.69011
3.68895
1.22825
1.35664
1.58037
1.28927
1.45717
1.77061
2.14386
1.51323
1.2761
1.64839
1.32066
0.595205
-28.8457
2.02844
-1.10262
-44.5776
-33.6941
-37.152
1.53156
1.13134
1.6187
-39.8476
1.75817
-39.5725
1.12478
-1.08455
-18.9986
0.247084
-15.6594
-38.6766
-39.6766
-15.2385
0.219462
-0.195077
-11.2757
-25.6116
-10.7952
-34.3843
-28.9706
-32.0006
-29.1158
2.50832
1.52372
3.65091
2.24996
-5.40879
-27.3904
-43.4245
1.33229
-56.4161
-29.3817
-17.3404
-22.6435
-10.6128
-46.7261
-16.7867
-13.3273
-37.7812
-39.7332
-42.7032
-29.6848
2.13187
2.56696
-24.7292
0.0916007
-21.806
0.557676
-0.175423
-4.36334
4.31119
0.954027
1.37728
1.1072
1.94743
-2.54958
-1.57842
-0.178336
0.672836
-21.1726
-1.33974
-1.2672
-1.64822
0.754026
-0.472977
-3.14399
-1.09095
-1.373
-0.602327
1.41921
-0.619271
-1.50381
3.49698
-2.363
0.230296
1.32158
1.44919
1.32453
1.44443
1.90693
1.51824
2.1102
0.671922
-0.0896181
1.04975
0.922302
0.757729
0.895115
-3.16683
0.4273
-44.9669
-0.220575
-3.0656
0.933887
1.01547
1.17217
1.72675
0.742917
-4.97911
-0.434017
-0.0640636
-0.519178
0.390091
0.430424
0.648624
-0.332088
0.305041
-0.273893
0.452523
-0.00344039
0.811693
0.449098
0.625674
0.131909
0.30003
1.08574
1.26127
0.907848
1.57534
1.98732
1.31175
1.88776
1.17339
1.2546
-16.02
1.82071
1.91856
0.557773
-31.9466
-0.0149888
1.45815
2.09018
-31.3995
-28.6802
-32.6802
-44.1921
-36.284
-31.3218
-36.8208
-0.0187654
-33.6798
-32.3049
1.08769
1.07031
1.07702
0.454116
1.96439
1.36827
1.36567
0.125142
-0.0244029
0.699205
0.955707
1.387
1.0669
-33.4538
-32.571
-30.9274
-29.4523
-35.2445
-30.5909
1.33302
-25.5188
1.46524
-2.55774
-40.6576
1.35562
-20.6918
-29.9936
-30.5228
-30.7978
-36.3097
-36.217
-41.3338
-37.9381
-35.966
-37.1096
2.21987
2.70492
2.89065
2.51534
1.34031
1.06816
1.04067
1.13696
1.02856
1.27753
1.39685
2.37786
1.1803
1.37546
1.41557
1.46209
1.31118
1.28218
1.32198
1.18491
1.05212
1.20202
1.2755
1.3265
1.42174
1.51122
-24.9338
1.51382
1.52583
1.47628
1.13731
1.10254
1.28023
1.30562
1.21463
1.01156
1.32788
1.23794
1.61309
1.36435
1.32443
1.32642
1.23623
1.52771
1.39714
1.47606
1.17957
1.3716
1.25894
1.57991
1.33816
1.7559
1.45494
1.57642
1.51744
1.66514
1.59504
1.89683
1.93794
1.8582
1.61977
1.87053
1.10547
1.53058
-4.08593
-33.7422
1.09795
0.959845
-15.3623
-39.9698
-3.02106
-14.2224
-38.2185
-27.4163
-16.9141
1.14497
0.854667
2.08262
0.574308
0.75729
0.739037
0.231749
1.42913
1.17541
1.0747
1.2252
0.859311
0.902604
0.989809
0.99566
1.08079
1.12936
0.294595
1.32917
1.13723
1.52923
1.06158
1.07605
-3.27789
1.11982
1.21298
0.982348
1.10325
1.16507
1.01868
1.0401
1.24687
1.23085
0.303778
1.27858
1.63395
0.106091
2.45405
1.53149
1.59113
2.02449
1.68817
1.84361
2.0467
1.65789
1.44177
1.74054
1.68585
1.51987
2.04776
1.68722
1.21645
1.48036
1.2887
1.4944
0.601816
0.972405
-25.2565
-30.9748
-34.39
0.517934
0.919976
1.32436
1.35384
1.14834
1.41421
-1.49831
-0.649703
1.12865
1.38699
1.00888
1.29312
1.2382
1.33197
1.22747
1.20973
1.29426
-3.82624
1.5653
1.76699
1.53095
1.64023
1.6606
1.72378
1.57896
1.19933
-1.78485
1.99883
1.65556
2.16171
1.51517
0.918574
1.28539
1.18673
1.03767
1.40616
1.28008
1.19151
1.30556
1.21665
1.16542
1.19019
0.796231
2.11032
2.15803
1.0032
2.24949
1.01189
0.92015
2.21008
2.17696
1.72589
0.841895
1.32634
1.27979
1.37865
1.26641
1.33266
1.94433
1.63372
1.22512
1.30802
1.18874
1.1791
1.27177
0.612208
1.19424
0.974233
1.28416
1.43269
-29.1837
-30.5109
-30.6384
-36.8336
1.32281
-31.5616
1.60063
1.46417
1.39733
-39.0237
1.94886
1.69284
1.34168
1.84168
2.00089
1.19183
-34.0083
-19.1183
-52.079
-34.8915
1.73822
1.58732
1.73015
0.984556
1.36664
1.67461
1.47381
1.55751
2.00323
1.59532
1.51405
2.09688
1.47197
1.5213
1.90262
3.16738
2.02232
-0.138263
2.05468
2.97868
-0.163076
-43.5179
1.44613
1.60078
1.75672
-66.5149
-38.2474
1.71134
1.87206
-30.8462
-30.4176
-29.0107
1.60733
1.45684
-33.3722
-18.2378
-18.3699
-21.7279
-20.3639
1.336
-34.6682
1.66056
1.45363
1.36846
2.14709
1.37274
1.2671
1.4713
-29.2037
2.03571
-28.8836
1.07257
2.09867
0.904399
-2.28354
-0.728312
1.45909
1.45764
1.45089
1.10085
1.11252
1.13114
1.10962
1.17719
0.726865
1.09
1.0907
0.959688
1.3007
1.39567
1.22762
1.84664
1.33604
1.4875
1.60205
1.68473
2.66249
1.1934
1.30427
2.07483
1.29997
1.48062
0.644356
-16.8483
1.0951
-21.2814
1.52594
1.60768
1.58812
1.7892
0.781858
-12.5549
1.28224
1.86914
1.24798
1.41403
1.27851
1.47796
1.30747
1.26027
1.69565
1.28355
0.00216724
-19.7439
-6.76048
-6.7282
-8.79436
0.48979
1.18693
0.202408
-0.0706253
3.06524
-0.242048
1.35665
-0.846369
2.34264
-23.2148
-10.7412
-35.8219
-33.1512
-0.0975874
-2.25287
2.24407
0.526617
-37.5561
-37.8798
-3.14174
0.225766
1.12997
1.58244
-11.2815
-4.60407
1.62119
2.19193
4.76534
0.2977
1.35065
2.06338
1.82807
1.76454
1.95653
1.95546
1.62007
1.09995
2.35042
1.10463
1.25418
1.25572
1.51241
1.74432
1.39212
3.25093
-34.0279
-29.7415
3.02539
2.01067
1.72685
2.01861
-12.7962
-33.4441
2.41004
0.25758
-12.5353
1.55534
-13.0107
-40.2645
-6.84326
-8.7477
-39.8852
2.46844
-35.087
-27.0619
1.97759
-1.66274
1.46413
1.75043
0.906627
1.32259
-4.31912
3.14767
1.64581
2.55762
0.427275
1.77995
-0.518443
0.822399
1.58586
-30.278
-38.2462
-31.6151
-36.3484
-30.964
-29.0711
1.86957
3.17663
1.79259
-5.18145
-30.0464
-35.5182
-6.41049
-31.609
-31.0633
-24.3684
-25.9961
1.23039
-44.4498
-27.8313
-16.1227
0.447581
-0.013261
-40.1232
-4.71393
0.366299
1.36335
1.47134
0.42205
0.53997
2.05465
0.615801
1.3097
0.605068
1.53542
2.03353
-6.65632
-0.471245
1.17688
1.29557
-28.98
1.24326
1.37565
0.848276
1.35621
-0.94956
2.08992
0.468629
1.72192
-39.2095
1.51845
1.04413
1.10598
1.03657
0.76976
1.30234
1.92588
3.01759
1.34144
1.50052
0.358582
0.906461
0.956786
0.26235
1.26968
0.498152
0.499746
1.48849
1.16139
1.05
1.14822
1.18092
1.30013
-30.9876
-33.0538
-33.9289
0.659672
-43.4556
-21.506
1.47523
-15.1027
-40.3192
-31.4233
-36.6857
-39.1957
-31.7756
-33.9301
-35.0296
-32.7644
-36.5939
-21.6695
-35.4274
-37.9418
-50.1126
1.30217
-46.6435
5.28324
0.268141
0.555657
-0.214117
0.0501392
-0.127618
-0.166727
0.849872
0.824863
0.716945
1.14746
-32.6441
-37.9271
-30.0372
1.30443
1.49519
0.305329
2.92981
1.40063
1.64478
0.978477
-2.08666
-3.6435
-4.11857
2.93929
-34.4303
-31.8128
-42.0977
0.380442
0.603307
1.42113
-46.4911
0.936834
1.02062
1.02195
1.8718
2.16676
1.16407
1.20513
1.28374
2.04661
1.69759
1.06489
1.02089
0.967083
1.15779
1.22099
1.3188
1.19321
1.23362
1.12297
1.41888
1.34096
1.19379
1.153
1.49236
1.27137
1.50564
0.234529
1.50114
1.37651
1.62437
1.34161
-0.525528
1.22982
1.21962
1.29439
1.88403
2.69656
-0.181803
-0.317685
1.75679
1.55133
1.49565
1.46639
2.57524
0.718607
1.39191
1.37926
-0.0118977
1.48393
1.5166
1.68823
-13.933
1.38026
2.22109
1.36875
1.93311
2.21145
1.74601
0.903005
1.21572
1.12175
1.20566
1.10641
1.22865
1.3372
1.59648
1.07422
1.07369
-6.40732
1.94868
1.60825
1.98597
3.12951
1.24445
1.03293
0.88914
0.482701
1.20385
-11.7262
-5.60431
1.35222
0.753566
0.447691
0.911413
1.27699
1.0552
1.78087
2.10815
2.10762
1.23182
1.56551
-1.28024
0.795146
0.856989
0.552017
-1.86758
1.21668
1.36312
1.37309
1.26981
1.07734
1.18662
1.16153
1.22702
1.51262
1.53341
2.29827
-0.923571
-0.00926714
1.44386
1.40908
1.41068
1.47295
1.34245
1.4845
1.29361
1.29929
1.30941
1.37234
-1.15967
2.07488
1.27761
1.47394
1.55322
1.27427
1.65982
1.49739
1.17283
1.21882
1.39203
1.49684
1.27406
1.2008
1.54494
1.44972
1.52842
1.28845
1.33659
1.51652
1.58561
1.40494
1.0946
0.342797
0.123631
1.17101
0.532451
0.663273
0.482682
0.88847
1.84376
1.33862
1.24821
1.0509
1.23657
1.35693
0.79626
1.60814
1.14253
1.1891
1.4725
0.845253
1.21695
1.11945
0.793534
0.118386
0.697873
1.42836
1.67049
1.54909
1.33992
1.62878
1.50321
1.55736
-3.28704
1.46503
0.222639
-2.8193
1.18791
1.28752
-42.8053
-43.1429
-31.1383
1.24426
1.15687
-33.2907
1.19649
-37.7827
-39.7002
-2.10592
-38.604
1.56838
1.47625
-7.69889
0.57763
1.53565
1.46389
3.04929
1.22222
1.61507
1.04436
1.01141
1.09213
1.0302
1.2795
0.825341
-32.769
0.842732
0.469822
0.295702
-36.4517
-36.4551
-29.6729
-29.2217
-29.7129
0.36296
-32.5907
1.37724
1.3007
-28.9131
-30.2983
-26.4141
-30.1722
1.04626
0.994555
1.22407
0.915575
1.13443
1.25133
1.49976
1.34703
1.55967
1.15779
1.07645
1.07828
1.1783
1.82022
-0.689997
1.10319
1.16189
-33.3523
0.928228
1.32835
1.46049
2.5507
1.68651
0.748055
1.56219
1.89369
1.20847
2.01764
-30.4255
1.45628
-32.2017
-4.05312
-24.016
-35.9135
-30.4136
1.52745
-29.0615
1.22
1.43269
-35.2548
1.25513
1.28787
1.2408
1.24996
1.28474
1.77947
1.52163
1.72177
1.44831
-34.3579
-31.1568
-30.7649
-29.1632
2.24443
-7.4529
-7.54246
-0.0230895
1.71544
-28.526
1.40196
0.415086
-6.61207
-22.0632
0.187316
-47.6606
-29.0002
1.69844
-31.6321
0.590178
1.78831
2.56074
0.236363
1.20594
-0.0619994
1.1821
-0.514589
-0.901877
-4.22337
-7.41178
-29.1165
-16.9179
-40.0723
-3.74428
-5.3801
-8.4429
2.05233
-4.00809
-6.96262
-0.237869
-38.3941
-29.5089
2.72125
-45.1246
-9.18944
1.19256
0.597131
2.22077
0.922497
1.17992
-21.1688
1.12878
1.23638
1.03844
1.38775
1.31379
1.40233
1.20111
1.10332
1.05827
0.975928
-14.4388
1.06896
1.11982
-41.2249
-39.0556
-33.0595
1.15255
1.28089
1.33473
1.18165
1.35057
1.43378
-2.38336
0.696643
0.5987
1.5674
-36.4001
1.15738
1.23586
-30.4972
-12.6556
-2.4939
1.61601
1.61562
1.57052
1.65789
0.0384645
0.710164
1.17905
1.03024
1.38203
-8.91757
-6.93218
0.48285
-2.46984
1.69767
-4.41058
0.869716
1.18458
-1.88666
-36.3044
-10.1118
-4.91052
-44.1828
-7.37328
1.25007
1.3186
1.26769
-36.3082
-31.2162
-33.2245
-36.3681
-35.1652
0.387967
1.13313
1.17649
1.44244
1.44059
0.911295
-2.38849
-7.04959
-1.69723
-36.1238
-25.338
1.48154
1.36264
1.10899
1.87113
-3.59661
-2.90404
-9.22634
-13.5996
-4.67039
1.3613
1.24411
1.42869
1.30437
1.27174
-0.920303
0.144641
-0.301637
-51.8694
-40.3624
-47.5584
-44.6039
-35.5825
-37.6725
-21.0085
1.11257
-36.1598
1.14823
1.18665
1.14793
1.16959
-33.9379
-28.6486
-1.21425
-10.7222
-34.3402
-33.5571
-30.6263
1.09136
-2.35011
-54.1485
-38.413
1.0519
1.40246
3.00047
2.48774
0.80961
1.35508
0.888685
-0.429444
1.2611
1.10014
0.414214
-0.227767
3.05954
1.22054
0.905712
1.01952
1.9225
1.693
0.143228
0.251095
1.75413
2.81099
1.10817
1.15047
-1.14426
-1.81208
-13.6107
-13.6151
-8.88914
1.65385
1.58537
1.79666
1.3936
1.46011
1.19182
0.978582
1.0523
1.00117
1.02704
1.08239
1.09387
-1.99839
0.918998
-1.49116
0.0310537
1.40393
1.46392
1.09412
0.847536
0.609039
1.19624
0.726779
1.34841
0.752858
-0.232733
1.18879
1.12417
1.43859
1.52981
1.66253
1.32266
1.03157
1.16032
1.22332
1.15426
1.13713
1.17538
-2.24752
1.18535
0.205573
0.709441
0.904629
1.38675
1.69771
1.16367
1.11621
1.14482
-4.69853
1.66435
-28.7073
-29.8726
-28.9089
-28.1962
-10.4995
-10.6485
-3.42163
-1.33059
1.31181
0.285921
-4.17603
0.355983