/*--------------------------------*- C++ -*----------------------------------*\
| =========                 |                                                 |
| \\      /  F ield         | OpenFOAM: The Open Source CFD Toolbox           |
|  \\    /   O peration     | Version:  2506                                  |
|   \\  /    A nd           | Website:  www.openfoam.com                      |
|    \\/     M anipulation  |                                                 |
\*---------------------------------------------------------------------------*/
FoamFile
{
    version     2.0;
    format      ascii;
    arch        "LSB;label=32;scalar=64";
    class       volVectorField;
    location    "0.0501868";
    object      U;
}
// * * * * * * * * * * * * * * * * * * * * * * * * * * * * * * * * * * * * * //

dimensions      [0 1 -1 0 0 0 0];

internalField   nonuniform List<vector> 
3946
(
(10.1577 0.136347 -0.0150481)
(10.0244 -0.117144 0.0128912)
(10.933 0.372483 -0.127918)
(10.0121 0.0200858 -0.00924807)
(9.873 0.0787747 0.0149547)
(9.33316 0.288538 -1.05382)
(10.0116 0.0675346 0.0233794)
(10.0515 -0.0112998 -0.0132801)
(10.0124 0.0135619 -0.0142549)
(10.1613 -0.104294 0.0355377)
(9.8692 -0.00436715 0.0656916)
(10.1343 0.0610922 -0.0204012)
(10.8997 0.714175 -1.76508)
(10.0219 -0.042127 0.00969971)
(10.0117 -0.00625835 0.0100421)
(10.2151 -0.24182 -0.0116656)
(10.143 -0.0186159 0.00843523)
(10.0807 0.14976 0.0350719)
(10.0865 -0.0463421 0.00471262)
(9.46434 -0.0551541 0.0290226)
(10.1954 -0.0168814 0.00386554)
(10.2723 -0.0420069 0.00160554)
(10.1207 -0.0784338 -0.00294359)
(9.98307 -0.00285984 0.0141009)
(10.2819 0.457755 -0.0344413)
(9.97778 0.0320013 -0.00229695)
(10.0093 -0.0237266 0.0265897)
(10.1671 -0.0298426 0.0355796)
(10.0318 -0.0861909 0.0092622)
(10.0812 0.111934 0.0368295)
(9.76536 0.110993 0.119649)
(10.1889 -0.132177 0.0188538)
(10.0341 -0.0338844 0.0367779)
(10.2402 -0.044456 0.0110761)
(10.0305 -0.446029 -0.0709627)
(10.1687 0.125396 -0.0242034)
(9.90598 -0.154889 0.0112185)
(10.014 0.143072 0.0160114)
(10.1278 -0.121401 0.0201898)
(10.1847 -0.0244795 0.0108458)
(10.0799 0.0692275 0.00497239)
(10.086 0.0464496 -0.000289645)
(10.0581 -0.00516329 -0.0113945)
(10.4734 0.47814 -0.0259263)
(9.95351 -0.0155269 0.0103109)
(10.0505 0.0455552 0.0218372)
(10.1386 -0.204149 -0.0201356)
(9.89721 -0.170746 0.0103831)
(10.0917 0.118765 0.00360225)
(10.0483 0.00167491 0.0202487)
(10.0747 0.0941455 0.00498553)
(10.05 -0.000888169 0.045061)
(10.239 -0.0537678 0.0428415)
(10.0623 -0.0767958 0.0162666)
(9.98822 0.0340409 -0.00413082)
(9.88485 0.0744078 -0.00496918)
(10.0587 -0.118783 0.0268727)
(9.97019 -0.0812104 0.0175132)
(9.91215 -0.00509983 0.0188901)
(10.0823 0.11273 0.00693444)
(9.83211 0.0549498 0.130485)
(-0.294717 1.98282 0.878935)
(9.93378 0.0576935 0.0993617)
(10.0122 -0.0307434 0.0241576)
(9.85149 0.0545778 -0.0364859)
(-0.17905 1.84652 0.603003)
(-0.926089 1.72793 0.918767)
(0.0323128 1.93105 0.531651)
(-0.0010804 1.95443 0.837564)
(10.9365 0.770249 -0.480003)
(9.98706 0.116172 0.0339569)
(9.89256 0.13235 -0.00664017)
(7.06026 0.536361 1.99431)
(10.1125 -0.0702733 -0.020468)
(8.81733 0.138698 0.341069)
(10.0517 0.0238243 -0.0115601)
(10.1181 -0.115993 0.0315845)
(10.0819 -0.00725019 0.0137472)
(10.0553 0.0126195 0.00539829)
(10.2191 0.0452243 0.021077)
(-0.426612 1.84023 1.49855)
(11.2767 -0.033128 0.490714)
(10.005 -0.0118351 0.0127898)
(9.91399 0.113603 0.0373498)
(10.1331 -0.0333361 0.0180965)
(-1.46619 1.10148 0.412957)
(10.9751 -0.390297 -1.80725)
(-0.464611 1.99298 0.833572)
(-0.356641 1.93248 1.70891)
(-0.433253 2.20166 1.68788)
(-1.09016 0.418654 2.88135)
(-1.01665 1.78464 1.81111)
(10.4029 0.165795 0.0585197)
(9.98467 0.00442054 0.0274728)
(9.96661 0.004334 0.0218729)
(9.97702 0.000606676 0.0190502)
(10.1289 0.106328 -0.0324608)
(10.0434 -0.00162865 0.0437069)
(10.6478 0.0422868 0.0567271)
(9.99289 0.0815423 0.00761039)
(10.4114 0.176876 0.014931)
(9.99314 -0.0102197 0.0218807)
(9.98577 -0.0114817 0.0108516)
(1.89077 1.90672 -0.991457)
(9.97231 -0.00801206 0.00338571)
(9.86534 -0.0644697 -0.0598288)
(5.49257 0.726889 -1.97227)
(9.94811 0.212073 -0.182808)
(10.0648 0.0433983 0.0149006)
(10.0693 0.0429364 0.0121903)
(12.1821 -0.119584 -0.0357127)
(10.1173 -0.00456226 0.00326031)
(10.1679 -0.00844046 0.00632214)
(10.0085 -0.000671018 0.00674299)
(10.0591 -0.00374288 0.00449455)
(10.1813 -0.0155105 0.0125921)
(10.6059 0.0899423 1.05251)
(10.6421 0.516362 -0.125559)
(-0.376111 1.80596 0.528713)
(-0.699965 1.93451 0.851023)
(9.85145 -0.236757 -0.0580513)
(10.0264 -0.0165922 0.0348472)
(9.90895 0.0627212 -0.0486338)
(9.9531 1.34728 -0.407513)
(10.1755 -0.214361 -0.0238201)
(9.93953 -0.223029 -0.362972)
(4.31664 1.07181 1.91408)
(11.8393 -0.0977451 -1.0247)
(10.0053 -0.0997955 0.0316805)
(9.92505 -0.121927 0.136338)
(10.2852 -0.0121636 0.0683738)
(9.07765 -0.994907 2.66393)
(9.95134 -0.146911 0.126521)
(10.387 -0.0352722 0.214199)
(10.4045 -0.0228737 0.129621)
(6.64353 -0.0555283 -1.94437)
(10.222 -0.0178542 0.00246307)
(-1.60097 0.671616 -0.169937)
(9.84307 -0.328416 -0.0920612)
(-3.38733 3.50416 2.2646)
(11.4445 -0.16704 1.04911)
(0.312211 1.37511 2.37338)
(-1.74071 0.48535 0.234281)
(10.1603 0.122259 0.0270647)
(12.2594 -0.319586 -0.00123534)
(9.939 -0.00802998 -0.0302177)
(9.91519 0.0515608 -0.0048462)
(9.87921 0.274962 -0.0112654)
(9.93383 0.00712739 -0.0100047)
(10.0465 -0.0116507 -0.0161481)
(9.93121 0.017309 -0.00713917)
(9.92088 0.0224594 -0.00203817)
(9.9332 -0.0152 -0.0213898)
(9.9951 0.0184113 -0.00463447)
(10.1209 0.128187 0.0175502)
(10.0028 0.031814 0.00582807)
(10.0151 -0.0242729 0.0233192)
(10.0103 0.0971903 0.0223695)
(9.82897 -0.104039 -0.131496)
(10.4678 0.0739462 0.024953)
(10.3321 0.199739 0.0874809)
(10.7256 0.436361 0.0557984)
(9.69775 0.188902 2.04254)
(10.012 0.00439802 0.0188241)
(9.93909 0.0459744 -0.000162802)
(9.97908 0.00945963 0.00691685)
(10.007 0.000782002 0.00546832)
(9.93395 0.0372857 0.0371735)
(10.0159 0.0379746 0.00834036)
(-1.54574 0.261101 3.20495)
(10.1838 0.00764635 0.00746088)
(4.96293 1.35799 0.451125)
(10.0245 0.019478 0.00407506)
(9.97105 0.0307222 -0.0011535)
(10.1921 -0.0733973 0.0300256)
(10.0177 0.0448106 -0.0273383)
(10.0093 0.0457901 0.00302748)
(10.0057 0.0420265 0.0468051)
(10.7389 0.22245 -0.430199)
(10.0562 -0.155583 -0.0202982)
(9.98754 -0.00147818 0.0120095)
(9.91319 0.0512383 0.0070227)
(9.90451 0.0795759 0.0305257)
(10.3535 -0.137588 0.0249788)
(10.3867 0.0533804 0.0302988)
(10.3314 0.0536646 0.0236192)
(9.86933 0.0889814 0.0134143)
(10.106 -0.0379853 0.0162143)
(9.84558 0.218231 0.0300316)
(9.94608 -0.0728532 0.0152998)
(8.7869 0.402394 -1.88076)
(10.2335 -0.102375 -0.00701705)
(-1.4553 1.90141 0.461956)
(9.98717 0.152953 0.0091917)
(-0.58376 1.41615 1.08209)
(-0.448818 1.35392 1.23026)
(-0.252773 1.39786 1.53164)
(9.82994 0.07164 0.114335)
(9.93406 0.0629191 0.0680451)
(9.97219 0.104256 0.0338504)
(9.95493 0.00191112 -0.0311935)
(10.2222 0.165409 0.199621)
(9.92871 0.0684449 0.112766)
(9.97887 0.120729 0.0991532)
(9.91293 0.0330877 0.0588919)
(10.1452 -0.244527 0.00147637)
(10.3085 0.167759 0.077105)
(10.5988 0.075681 0.136)
(10.0832 0.169068 0.0201477)
(10.2961 0.0655555 0.00439644)
(10.3812 0.0695652 0.0151976)
(10.3436 0.162768 0.0751156)
(9.02578 -0.210004 -0.00616813)
(9.10999 -0.221221 0.352121)
(7.04245 0.10473 -0.319044)
(9.61822 0.540473 -0.213373)
(9.34766 -0.224624 0.373837)
(9.89923 0.0875294 -0.335525)
(9.70803 -0.0953815 0.112972)
(9.81896 -0.0233396 0.17047)
(-0.937324 0.123225 0.521354)
(-0.364731 1.37032 0.564735)
(10.2657 0.0403664 0.032446)
(10.0218 0.0476051 0.126331)
(10.4076 0.159402 0.0505762)
(-0.226965 1.5921 0.514497)
(-0.3253 1.0809 0.41994)
(9.79401 0.102473 0.206018)
(10.2012 0.162818 0.330372)
(-0.143522 0.53426 0.463701)
(10.9347 0.00194948 0.295954)
(10.6673 0.437765 -0.0642597)
(10.0978 0.00791513 0.283494)
(10.8357 -0.1481 -1.77845)
(10.0626 -0.103223 0.0106957)
(9.98462 -0.0381056 0.0124079)
(10.1621 -0.0705895 0.0389107)
(9.96585 -0.0268481 0.00583642)
(9.93716 -0.0300467 0.00710583)
(10.1167 -0.057669 0.0230399)
(10.0301 -0.0213058 0.0378804)
(-0.417127 2.18107 0.91836)
(-0.532422 1.73262 0.592885)
(-2.03293 2.46768 -0.646404)
(10.0067 -0.0110358 0.00791015)
(10.0595 -0.0667614 -0.00726924)
(9.97598 0.00157085 0.00648258)
(10.0018 -0.0555039 -0.00286018)
(11.0219 0.350188 -0.148583)
(9.98338 -0.0173399 0.0138805)
(10.0724 -0.0624538 -0.00420221)
(-2.04233 1.89862 1.79268)
(10.4925 0.0475084 0.00363998)
(10.5027 0.0228614 0.001276)
(10.0999 -0.121033 -0.00854161)
(10.5384 0.116759 0.137972)
(10.21 -0.0293298 0.0105831)
(10.7429 0.259109 0.163363)
(10.1178 -0.0221966 -0.0150306)
(10.0144 -0.0618406 0.00218254)
(5.13449 1.33408 -1.35322)
(-0.762289 1.6987 0.404081)
(-1.85593 1.27098 0.671355)
(9.92038 0.0323712 -0.0120139)
(9.89857 0.0204357 -0.00153171)
(10.0576 -0.00622252 0.0548561)
(9.95204 -0.0143772 0.0123931)
(10.0108 -0.0249813 0.0318165)
(9.96681 0.00382572 0.0237421)
(10.0732 -0.0319191 0.0585736)
(9.9795 0.0713454 -0.0105932)
(9.94667 0.0564067 -0.00140479)
(10.0735 0.028295 -0.00790545)
(10.5397 0.0819605 0.0310443)
(10.5841 0.084606 0.0110766)
(10.6362 0.0792262 0.0186237)
(10.6663 0.0694389 0.0135446)
(10.5887 0.0452416 0.0146695)
(10.5247 0.0451592 0.0242982)
(9.9326 -0.023102 0.0122918)
(9.92551 -0.0196434 0.00804227)
(9.92758 -0.00166666 -0.00133518)
(9.95188 -0.354501 -0.0308925)
(10.1563 -0.0155798 0.00224664)
(10.2436 -0.0723265 -0.0102079)
(10.1939 0.10589 -0.0378124)
(10.2789 0.085392 -0.00485149)
(10.1363 -0.451488 -0.19655)
(10.0973 -0.067048 -0.0168019)
(10.1754 0.0371331 0.00560516)
(10.1082 0.0425008 0.0131495)
(10.096 0.0100036 0.00116814)
(10.0558 -0.162886 0.292101)
(10.2662 -0.0331655 -0.000215436)
(10.2245 -0.124068 0.0182035)
(9.9358 0.0207095 -0.00496757)
(9.92545 0.00531239 0.0132345)
(9.91181 0.00540181 0.0197585)
(9.65283 -0.281758 -0.0541907)
(-0.196463 1.85639 0.794561)
(9.93201 0.151812 0.104771)
(-0.280893 1.74843 0.67868)
(-0.111344 1.903 0.593811)
(-0.358646 1.5137 1.55103)
(9.91553 -0.0605719 0.0104644)
(10.6306 0.421867 -0.103277)
(-0.487168 0.870312 0.92421)
(4.83429 2.07354 -2.37187)
(9.75156 -0.144651 -0.0497642)
(-1.13701 -0.629983 0.578855)
(-0.927257 0.0315846 1.54341)
(-0.493343 1.81479 1.05542)
(-0.604344 1.97356 0.207589)
(-0.418627 2.00516 0.0152913)
(10.0697 0.0407734 -0.00411556)
(4.83719 0.957108 1.54041)
(10.2483 0.0487714 0.0129445)
(10.2339 0.0282458 0.051771)
(10.2949 0.0583798 0.0131427)
(-2.02558 0.799287 1.56668)
(9.97204 -0.0111546 0.00831921)
(-1.16209 0.781525 -1.4031)
(9.98401 -0.00548541 -0.0104438)
(9.98259 -0.0103183 0.0046232)
(10.1753 0.33704 0.0884898)
(10.2738 0.106444 0.0873279)
(10.2196 -0.286125 -0.0134628)
(10.3093 0.0326115 0.338055)
(9.78119 0.237018 -1.66535)
(9.95434 0.0158638 -0.00429594)
(9.98088 0.00693258 -0.00231985)
(9.99754 0.0176229 -0.0166517)
(10.0594 -0.00635833 -0.00345516)
(-1.88456 0.913844 0.218898)
(-2.85015 2.10448 1.2451)
(10.0511 -0.0618427 0.0178676)
(10.5155 0.314518 -0.842769)
(-2.66483 1.52661 1.15809)
(-0.394333 1.71608 0.129029)
(-1.43952 1.91329 0.414567)
(10.0359 0.255302 -0.290915)
(0.0650483 1.10116 2.09329)
(-1.29358 1.51931 1.03831)
(10.7298 0.193473 0.0964067)
(-2.89181 2.32363 1.77606)
(8.0175 0.556371 2.01361)
(10.5433 0.369414 -1.17697)
(9.73666 0.71317 -0.374067)
(0.165282 4.98915 -0.726847)
(-3.28154 2.66061 0.338238)
(-1.50949 1.386 0.381029)
(9.40835 0.0133936 -1.80887)
(0.0835578 1.57273 2.03943)
(9.23282 0.874133 0.0355466)
(-1.6364 1.14286 0.610768)
(-0.299659 0.610135 0.171462)
(0.657264 1.05024 -0.179608)
(9.82734 0.0796315 -0.0238048)
(-2.2853 1.31237 1.22961)
(-0.251815 1.29763 0.172424)
(10.3118 -0.485966 -0.112954)
(1.38579 0.879778 2.21951)
(10.47 0.281768 0.080705)
(11.272 -0.00339736 0.410243)
(-2.14527 0.744842 1.65908)
(-3.36588 2.93186 0.312923)
(11.3446 -0.06318 -1.42982)
(-2.26982 2.25134 0.758831)
(-3.80426 2.89287 0.599935)
(-1.68994 1.9256 1.81011)
(-1.92315 2.12775 0.565011)
(-3.87732 2.73705 0.472354)
(10.2402 0.0416756 0.0201204)
(9.12076 0.682397 0.015454)
(10.2067 0.29059 0.110123)
(9.20577 0.686296 -0.243349)
(9.953 -0.0107894 -0.0148893)
(9.93728 0.0688788 0.0687899)
(10.15 0.20225 0.510355)
(-0.439004 -0.522782 1.06908)
(10.7975 0.184866 0.0836785)
(11.0446 0.030394 0.324115)
(10.6378 0.125619 0.0324042)
(10.2969 0.620714 -0.269552)
(11.0409 0.827925 -0.566458)
(10.5279 0.517139 -0.131378)
(7.38527 0.0687661 1.54368)
(10.3997 0.720777 -1.20177)
(8.52465 1.84852 -1.33253)
(10.5416 0.0687526 0.146633)
(-0.733877 0.243759 2.11715)
(10.5617 0.341564 -0.00201187)
(10.5315 0.246967 -0.00362695)
(-2.0183 1.57611 1.11325)
(11.1374 0.761935 -0.385025)
(-0.329284 1.62041 2.17486)
(10.4469 0.177401 0.0505433)
(8.26828 0.636932 1.58377)
(8.53803 2.44828 -1.75447)
(10.3401 0.503529 -0.0967254)
(10.4097 1.18629 -0.481297)
(10.0878 -0.146117 0.0741219)
(10.5653 0.13735 6.81304e-05)
(10.2075 0.084156 0.0168515)
(9.97506 0.10394 0.0104319)
(10.0689 0.029129 -0.00546456)
(7.85638 0.378816 -1.98503)
(10.3597 0.948136 0.00850573)
(9.97583 0.635191 -0.110615)
(10.569 0.257346 0.101951)
(5.31198 2.28737 -1.52179)
(10.1364 0.541474 0.0868549)
(8.41069 0.097174 0.0787895)
(10.4757 0.201697 0.0616178)
(10.6157 0.238929 0.053325)
(10.7212 0.135985 0.0258785)
(10.0003 0.0808557 0.0402646)
(10.0201 -0.0276712 0.0418074)
(1.9473 3.94164 -0.837017)
(11.5047 0.143936 -0.551251)
(10.0812 -0.0413467 0.0151254)
(1.85589 4.22042 -1.24788)
(10.0146 0.0920795 0.0165265)
(-2.17736 2.78027 0.312734)
(10.0282 -0.354219 -0.0393334)
(9.97033 -0.21677 0.0152694)
(9.63866 -0.369203 0.120619)
(9.96481 -0.0229101 0.0108352)
(10.1412 -0.179199 0.0444105)
(10.2547 -0.0604096 0.0414894)
(9.88993 0.0538986 0.334685)
(9.48138 0.243673 0.134147)
(10.1781 -0.118418 0.0400955)
(10.1313 -0.368141 0.0150933)
(11.2273 0.232078 -1.13035)
(10.1746 -0.244775 0.00173955)
(9.93513 -0.0198865 0.00145416)
(9.97716 -0.0108698 0.036335)
(10.7326 0.0613956 0.0181045)
(10.6146 0.345292 0.277091)
(10.5371 0.393515 0.293864)
(10.4993 0.392455 0.299417)
(10.5408 0.342505 0.32657)
(10.6236 0.327451 0.266428)
(10.4653 0.28514 0.268947)
(0.12925 1.33879 2.60453)
(-3.26354 2.36737 0.883684)
(9.4911 1.5706 0.316684)
(10.5136 0.341367 0.307839)
(10.0368 0.324432 -0.0618611)
(10.0287 0.303126 -0.0334704)
(10.0827 0.410866 -0.0215683)
(10.1923 0.426042 -0.014396)
(10.1017 0.40968 -0.0765922)
(10.0723 0.362786 -0.0379132)
(10.2152 0.443961 -0.0368437)
(10.757 0.0517464 0.0015033)
(10.1393 0.402014 -0.0488938)
(10.1366 0.454777 0.151554)
(10.1667 0.374269 0.127923)
(9.96939 0.0369791 -1.76877)
(10.2351 -0.0283253 -0.60624)
(-0.354989 1.58674 1.66339)
(11.1996 -0.0672047 -0.521263)
(0.17625 1.05778 2.16756)
(-0.491706 0.521916 1.26269)
(9.78943 0.146861 0.108029)
(11.4273 -0.212322 -1.30165)
(-2.58723 1.10414 1.58258)
(10.8534 0.174371 1.15576)
(8.85683 0.414029 1.08619)
(4.98154 2.11176 -1.13024)
(9.9175 -0.0635189 -0.0360302)
(9.96094 -0.0729267 0.0213479)
(9.96788 -0.0786034 0.0461759)
(9.96042 -0.106508 0.00805441)
(9.85696 1.31905 -1.33187)
(10.4534 0.333798 -0.0116007)
(10.9038 0.603814 -0.123424)
(10.6743 0.101821 0.00545388)
(-2.63931 2.28052 0.654711)
(0.165718 1.89832 1.50073)
(2.79034 1.14797 2.09103)
(10.3964 1.12863 -0.0962251)
(10.0233 0.00498921 -0.00886113)
(9.93053 -0.10199 0.054405)
(10.5668 -0.123326 -0.272331)
(10.17 0.321023 -0.0223398)
(9.99214 0.728311 -0.179195)
(9.92952 0.868014 -0.190503)
(9.66355 1.01416 -0.484261)
(9.82252 -0.216726 -0.0308736)
(9.76554 0.804686 -0.690118)
(9.90217 -0.163856 0.0401516)
(9.94229 0.32631 0.0348157)
(10.1783 0.610466 0.107055)
(10.0573 -0.174545 0.0506336)
(10.5703 0.203889 0.0513075)
(9.81008 -0.197902 -0.0205114)
(9.75808 -0.174925 -0.0179376)
(10.7344 0.268866 0.0933928)
(10.6626 0.121804 0.0359704)
(9.8242 0.0605772 -0.00872721)
(9.88178 0.026056 -0.033747)
(9.83797 0.073215 -0.0080557)
(10.6268 0.298845 0.1762)
(10.6937 0.2959 0.180768)
(-3.64433 0.758035 0.803809)
(-0.268112 1.69299 2.06964)
(9.99227 -0.0807518 -0.00363094)
(0.117651 1.24794 2.24011)
(-1.527 1.27871 0.849549)
(10.0707 -0.0904679 -0.0105112)
(8.73626 0.122682 -2.04245)
(12.2151 -0.161788 -0.458288)
(-4.1376 4.02708 1.53861)
(10.5745 0.330903 -1.60647)
(9.51594 1.03783 -1.37829)
(11.0958 0.42409 -0.330795)
(9.86031 -0.0110327 -0.00961376)
(10.1767 0.0224738 -0.00417135)
(10.7532 0.106709 0.00856128)
(10.6195 0.115052 0.00704498)
(10.5629 0.131513 0.0488854)
(10.692 0.142583 0.0341916)
(10.4194 0.226984 0.118313)
(10.3055 0.281496 0.30396)
(10.2492 0.293548 0.41773)
(10.6514 1.04973 -1.6703)
(0.00860511 1.90238 -1.21297)
(-2.72208 2.33851 0.15271)
(0.632515 2.38159 0.0854724)
(10.3646 0.434962 -0.0465721)
(4.68186 0.951835 1.92861)
(-1.63275 2.16389 0.541298)
(2.91327 1.37653 2.23025)
(9.85992 0.0733007 -0.00357124)
(10.0259 0.0159352 0.00381737)
(10.4524 0.0572622 0.0177815)
(10.0485 0.105432 0.0281103)
(10.4995 0.183405 0.0592435)
(10.3691 0.194251 0.0604825)
(10.9149 0.0201828 0.144206)
(10.027 0.049283 0.0116844)
(10.1068 0.0527578 0.00367162)
(10.1841 -0.0370067 0.029414)
(10.4076 -0.0715021 0.103416)
(9.96255 0.0110326 0.0124728)
(9.94074 -0.0258663 0.00953425)
(9.92918 0.0596132 0.00135477)
(10.0225 0.0159892 -0.0290295)
(10.011 0.0229025 -0.00546994)
(10.0158 0.0154463 0.0228289)
(9.92866 -0.0222802 0.0132715)
(10.0319 -0.0323516 0.025919)
(10.0529 0.0602718 -0.00231232)
(10.0303 0.0222069 0.00307377)
(10.6145 0.186256 0.195258)
(9.92691 0.101469 0.0119656)
(10.0285 0.0304748 0.0133965)
(10.1183 -0.0331799 0.00731094)
(10.0542 -0.145862 0.0322975)
(8.99713 0.0913214 0.325175)
(10.2129 -0.102162 0.0549876)
(10.0716 -0.066078 0.0213938)
(10.08 -0.0463477 0.0122677)
(7.78009 0.629176 0.200792)
(10.0065 -0.0208422 0.0152706)
(10.0569 0.0224652 -0.00862851)
(-2.39102 0.824905 2.74267)
(9.87876 0.0615623 -0.00756392)
(9.97226 -0.0781281 0.0289052)
(10.1936 -0.144363 0.0256963)
(10.0717 -0.0897545 0.0154203)
(10.1217 -0.00129544 0.00864958)
(9.92915 0.0440424 0.0422083)
(10.0034 0.031728 0.00207383)
(9.98729 0.0177915 -0.0189583)
(10.1158 0.110598 -0.00304993)
(9.93192 -0.139261 0.089173)
(9.816 0.142887 0.0421769)
(9.89693 0.000696319 0.0926505)
(9.7624 0.0538201 0.161924)
(9.6732 -0.128823 0.0418553)
(9.83858 -0.0148131 0.0312897)
(9.96096 -0.0215499 -0.0204244)
(10.0858 -0.139423 0.0241018)
(9.94459 -0.127693 0.0654101)
(9.59507 0.0704374 0.138314)
(10.1264 0.205795 0.0480198)
(9.94319 0.0308555 -0.00150328)
(10.064 0.113285 0.020621)
(9.90098 0.0782583 -0.000976918)
(9.99564 0.051559 -0.00274556)
(9.86597 0.0646769 -0.0421526)
(9.60917 0.664189 -0.266424)
(9.94376 -0.00836529 -0.0191001)
(10.2977 -0.0887338 0.0598494)
(10.0153 0.0323304 0.00611297)
(12.3764 -0.274037 -0.518994)
(9.98992 0.0247125 -0.000367996)
(9.97453 -0.0268062 0.00331849)
(9.75536 -0.198799 -0.107584)
(10.4128 0.134167 1.71436)
(9.91085 -0.0738149 0.0307614)
(10.0019 0.025467 0.016449)
(10.7442 0.138971 -0.0205314)
(10.1102 0.196184 0.0673276)
(10.7021 0.206552 -0.0340689)
(10.0495 0.176404 -0.00996077)
(9.8629 0.0205747 -0.0492158)
(9.31826 0.637483 -1.36566)
(9.98103 0.22797 -0.19386)
(9.66683 0.356635 -0.104573)
(8.01484 0.516007 -0.218884)
(10.0817 -0.0302946 0.0123494)
(10.0541 -0.177367 0.0343748)
(10.2297 0.169081 0.0371788)
(9.86787 -0.0266661 0.0181219)
(10.048 0.0211893 0.0218589)
(9.87979 -0.0180569 0.0518799)
(-3.84948 1.4101 1.22789)
(-3.29155 2.06463 1.13068)
(-2.36447 1.60188 1.12086)
(10.2541 0.135923 -0.00712572)
(10.4096 0.563908 -0.166783)
(9.80064 0.0151848 0.286291)
(10.0319 0.0287853 0.00917083)
(9.87419 0.0809749 0.0187957)
(9.78996 -0.161738 -0.00349887)
(9.93178 -0.0045653 -0.0128157)
(9.85642 -0.0128798 0.0198307)
(9.2427 0.574006 -2.02667)
(9.67143 0.112076 -2.33233)
(4.85382 0.740775 -1.5306)
(8.26699 -0.425338 -1.67262)
(10.0771 0.00116935 -0.020024)
(7.56708 0.837947 -1.85185)
(10.0216 0.0339234 -0.0160655)
(9.47989 0.373753 -2.10745)
(9.91536 0.0095331 0.00993233)
(10.3688 0.398657 -1.87919)
(10.1125 -0.0726566 0.0232302)
(10.3111 -0.0833176 0.0349087)
(10.3718 0.0864394 0.051395)
(10.1167 0.255741 0.0363494)
(9.9683 -0.0167115 0.00211487)
(8.51232 1.97399 0.24964)
(10.8134 0.433631 -0.146798)
(10.0332 0.0220671 -0.00704382)
(10.1601 -0.0126132 0.0185424)
(10.0073 0.0611244 0.00141994)
(10.0315 -0.0714647 -0.00920274)
(9.95834 -0.0372302 0.00634059)
(9.98239 -0.0214742 0.0218328)
(9.98543 0.0636271 0.0157263)
(9.99844 0.0921155 -0.00681066)
(10.0557 -0.34666 -0.0281709)
(9.93484 -0.0720767 -0.00726239)
(10.2692 -0.177727 0.0208071)
(10.168 -0.155501 0.00275236)
(10.698 0.419937 -0.526302)
(10.1673 -0.015644 -0.0044879)
(10.0668 0.05838 0.0270405)
(9.90675 0.0769776 0.00670114)
(9.84552 -0.191199 0.00303711)
(10.4989 0.622806 -0.759752)
(12.521 -0.252075 -0.373988)
(10.5973 0.152877 -0.0194316)
(9.92581 -0.0352698 0.00418837)
(10.7109 0.475072 -0.0667206)
(10.229 0.0351993 0.00247843)
(10.0643 0.0551757 0.0180089)
(-0.861663 1.70496 1.76234)
(-0.403583 1.85879 2.01413)
(-0.912943 1.62614 2.0858)
(10.1515 0.0961245 0.020845)
(10.0525 0.0810456 0.483477)
(9.91223 0.0764738 -0.0189353)
(9.89267 0.078737 0.0323546)
(3.1701 0.599666 0.29187)
(-0.971103 1.7849 2.10792)
(9.99686 -0.109439 -0.00116297)
(-0.479548 1.61952 2.30298)
(9.95401 -0.102448 0.0287553)
(9.98231 -0.0115178 0.0198863)
(10.3323 0.131899 0.291861)
(8.96445 0.408639 -0.70978)
(10.3552 1.05115 -0.0795836)
(10.2662 0.488485 -0.0395344)
(10.1199 0.00197846 0.0282191)
(10.0264 -0.112678 0.0338194)
(9.87597 0.0437051 0.139137)
(9.91953 -0.00226377 0.0159532)
(9.85796 -0.0628556 0.0557044)
(10.0225 -0.0921946 0.0949481)
(9.75486 0.129063 2.7847)
(-2.43599 0.635023 1.5506)
(9.94718 0.101455 0.000665473)
(-1.85696 2.65849 2.38906)
(-2.27618 0.600232 1.35615)
(10.0981 -0.0756528 -0.0148485)
(9.83495 0.63936 -0.418212)
(9.95755 0.0677461 0.0101246)
(10.1432 -0.148909 -0.0323363)
(10.0767 -0.11569 0.0211747)
(10.1517 -0.0253944 -0.000358499)
(10.0839 -0.00811942 0.0457314)
(10.0713 -0.328573 -0.023044)
(10.543 0.12717 0.0217705)
(10.0591 0.00901377 -0.00557745)
(9.3996 0.203176 0.229119)
(9.99445 0.0221998 0.0871564)
(9.98305 0.099505 0.056771)
(10.1197 0.0376847 0.0130446)
(9.97476 -0.00178709 -0.00512795)
(9.89777 -0.029398 0.0429115)
(10.0556 -0.00254169 -0.000159982)
(9.91692 -0.0301164 -0.00862598)
(10.2093 0.0407302 0.0091003)
(10.111 0.0130587 0.0114092)
(10.0076 0.0955251 0.0162099)
(9.99313 -0.0822387 -0.0032485)
(10.1245 -0.151468 -0.0295856)
(10.5872 0.0918718 0.113078)
(10.2865 0.158346 0.0257966)
(9.90244 -0.0143421 0.0331585)
(11.1493 0.807553 -0.619084)
(9.97916 -0.0551047 0.0253975)
(10.0584 -0.060041 0.16485)
(10.1192 -0.0765199 0.00340261)
(9.75089 -0.0889023 0.0557769)
(10.001 -0.0833739 0.0133585)
(9.8409 0.262901 0.193371)
(10.0019 0.0933713 -0.0264559)
(10.0312 -0.099962 0.0158102)
(9.90828 0.00764967 0.118543)
(11.0464 0.663105 -0.706671)
(9.97796 -0.0463356 0.0262487)
(10.0078 0.0869524 0.0189424)
(9.97161 -0.0500776 0.0133788)
(10.0561 -0.0814077 0.020266)
(10.0156 0.0712103 0.0097891)
(10.551 -0.0612271 -0.376113)
(10.5046 0.716858 -0.396936)
(10.1176 0.0983689 0.0171438)
(10.1138 0.493643 -0.0561024)
(10.7356 0.165584 0.0204881)
(10.0936 -0.0761558 0.273222)
(7.72233 0.562253 -0.132188)
(-1.4121 1.3821 0.641917)
(-2.32587 1.26004 -0.040135)
(10.0198 0.00433852 -0.00387794)
(-1.87122 0.676769 0.96036)
(-1.08587 0.796082 -1.96526)
(-3.3812 1.16144 0.842804)
(-2.34316 1.61491 0.104912)
(10.1694 -0.131028 -0.416723)
(-0.587135 1.84935 1.96728)
(-1.97126 1.96673 0.819222)
(-4.22993 2.74578 0.80064)
(4.54674 1.47864 1.14143)
(10.6957 1.01467 -0.0533832)
(9.96011 0.0358085 -0.0475026)
(11.0499 0.492206 -0.113576)
(10.1994 -0.0875619 0.0135749)
(-0.614368 1.82156 0.237199)
(10.5953 0.0692822 0.39963)
(10.5071 0.141528 0.84341)
(9.71688 0.305477 0.842408)
(9.61885 -0.0162553 0.666599)
(10.213 0.599704 0.231811)
(10.6084 0.694196 -0.471535)
(-0.502036 0.790574 -0.160516)
(-1.00915 1.59085 1.08817)
(1.20477 0.911612 2.92221)
(-0.738901 1.62929 1.14015)
(-1.76452 1.59138 0.689021)
(-1.71138 0.436892 1.83488)
(10.3854 0.721944 0.090193)
(10.7551 -0.00235429 0.217328)
(9.94852 0.0890393 0.0381086)
(10.3877 0.111392 0.0786538)
(10.6658 0.0374817 0.0853281)
(10.1837 0.165924 0.0435386)
(10.1192 0.214802 0.0741743)
(10.2368 0.156588 -0.00411945)
(9.93466 -0.00192812 0.00368159)
(10.0897 0.0836617 -0.0335593)
(10.2834 0.211114 0.0935652)
(5.33936 -0.413628 2.92228)
(10.0365 0.0213514 -0.0142627)
(9.84604 0.107348 0.00235489)
(9.9212 0.0605704 -0.222705)
(9.92476 0.0614538 0.0712101)
(9.30607 -0.206362 -0.281149)
(10.0105 0.0443525 0.0198153)
(9.83135 0.147436 0.00249097)
(10.7698 0.419959 0.0927561)
(10.1984 0.0211542 0.0349568)
(10.3915 1.08972 -0.111306)
(10.3739 0.222823 0.0161576)
(10.6368 0.415567 0.171736)
(10.4014 0.0469941 0.0193649)
(10.1371 1.0148 -0.37565)
(10.2127 0.0640334 0.0199942)
(10.2574 0.334003 0.139411)
(9.28947 0.886582 -0.998942)
(9.56733 1.55593 -0.911911)
(11.111 0.651297 -0.154655)
(10.0734 -0.00720652 -0.000906881)
(9.96665 -0.0838408 0.0278698)
(7.43799 1.42763 0.230779)
(10.2733 -0.394762 -0.116109)
(10.4446 0.723114 -0.131088)
(10.0677 0.147265 0.137339)
(9.95819 -0.0827151 0.0336463)
(4.04459 0.437234 1.58863)
(-0.120262 0.262927 2.57616)
(6.77747 0.926307 -0.86988)
(3.05235 0.869536 -0.918291)
(10.6475 -0.0753076 0.142743)
(10.6933 0.0184673 0.158619)
(10.7651 0.204662 0.0917866)
(10.7839 -0.0645397 0.162055)
(9.86401 -0.125438 0.354086)
(11.4336 0.259891 -0.858557)
(10.5226 1.36418 -0.798294)
(9.95172 1.56267 -0.612605)
(10.5635 -0.0911244 -0.474531)
(10.5486 0.0298717 0.00629089)
(9.98365 -0.0401488 -0.0184791)
(9.90685 -0.0677424 0.0801085)
(9.99883 0.149238 0.00796882)
(10.7489 0.689083 -0.578217)
(9.97789 -0.116426 0.0338429)
(-0.430137 1.53849 2.2221)
(9.91558 0.0446242 -0.000450156)
(10.9823 0.68814 -0.333414)
(10.1455 -0.0597255 -0.0237407)
(-3.56482 2.07393 1.7095)
(10.351 0.670277 -0.347456)
(10.3374 0.0865093 0.0255405)
(6.85155 0.190602 1.62232)
(10.6677 0.564047 0.0253231)
(4.34131 1.19249 1.27277)
(-0.296221 1.82555 2.30332)
(8.91639 -0.799174 2.12211)
(10.0832 -0.355425 -0.557806)
(11.0733 -0.0157913 0.392031)
(-2.60646 2.48033 0.398793)
(11.6313 -1.40337 -0.254093)
(8.93221 0.0449782 -2.07313)
(10.2653 1.41213 -0.677733)
(-1.15623 1.68717 0.649852)
(-3.44816 1.98651 0.418706)
(8.21306 1.64417 -0.332862)
(6.46477 -0.0855413 -1.98486)
(9.14613 0.712211 0.0213609)
(10.2266 0.36307 0.0606312)
(10.7889 0.611982 -0.758587)
(9.83333 0.538383 -0.476938)
(10.5237 1.0131 -0.0854241)
(10.7663 0.321703 -0.0284284)
(10.4347 0.0398881 0.0112752)
(10.33 0.0626037 0.0120301)
(10.3395 0.157212 0.00454498)
(9.36921 0.255416 -0.0747659)
(9.00198 0.0458898 -1.6444)
(10.0784 -0.0368525 0.0259988)
(10.7153 0.182836 0.0561476)
(10.752 0.127851 0.03162)
(5.98633 0.719753 -0.752811)
(7.03829 0.326189 -1.49756)
(9.99964 0.167034 0.0180543)
(10.2451 0.0952287 0.377231)
(8.88511 -0.212726 -0.598538)
(10.4354 0.057519 0.0236789)
(10.1737 0.0479252 0.018029)
(10.1047 0.0598454 0.00274778)
(10.0824 0.0958856 0.0235681)
(10.1154 0.116341 -0.00681727)
(10.1187 -0.494146 -0.0988302)
(10.0445 0.0971731 0.0221159)
(10.4546 -0.018144 0.239115)
(10.1311 0.000442159 0.391704)
(10.5151 -0.0699954 0.157401)
(10.2191 -0.149526 0.191789)
(10.2254 -0.104067 0.0974002)
(10.1792 -0.0936126 0.243611)
(9.83338 -0.125609 0.1196)
(10.1869 -0.0618697 -0.0217591)
(10.3225 0.159592 0.134683)
(10.1298 0.179153 0.0576057)
(10.1007 0.221439 0.114314)
(10.047 0.881717 -0.312811)
(10.0182 0.0350084 -0.000203898)
(10.0053 0.189627 0.106962)
(8.49227 1.41324 -0.202915)
(8.06588 2.14282 -1.59913)
(9.31368 1.19396 -0.363996)
(10.0841 -0.311768 -0.191865)
(10.0144 -0.0613607 0.0363432)
(10.0537 -0.180228 0.0914829)
(9.87092 -0.148967 0.0197117)
(9.82582 -0.05244 -0.00116178)
(9.99181 0.105575 0.01792)
(11.7703 0.0103604 0.165621)
(0.784958 1.79428 1.7587)
(10.0639 -0.110027 0.0515598)
(-0.0600765 0.727288 2.10571)
(-1.2253 1.17338 0.461174)
(10.0951 0.296966 -0.229759)
(6.01974 1.41236 -0.798719)
(9.81617 0.166152 0.395082)
(8.58173 0.46178 -1.58177)
(8.46478 -0.0379561 -0.530697)
(7.67531 0.212869 2.12327)
(10.5491 0.0307692 0.105085)
(-0.80961 0.778748 1.16925)
(-0.907617 0.657159 -1.33409)
(4.71034 -0.4534 2.32982)
(-0.393331 1.15669 1.50537)
(9.98676 -0.0551813 0.0143597)
(9.99631 -0.0690909 -0.00110881)
(10.0146 -0.0951977 -0.00228438)
(3.12127 0.770866 1.86379)
(10.007 -0.0718243 -0.00632297)
(9.99549 -0.0659075 -0.019655)
(10.1566 0.0350398 0.178339)
(5.30799 1.1889 -0.0906863)
(-0.124432 1.33814 2.05435)
(-3.95024 3.31312 0.989806)
(-2.54124 0.532808 1.1704)
(-3.12537 2.66808 -0.0963895)
(-0.801035 1.78936 1.01756)
(9.95935 0.799054 -0.805156)
(2.37351 0.245362 3.48167)
(-1.97532 0.680515 0.546813)
(9.73231 0.826414 0.395287)
(2.90042 0.514687 1.81466)
(-1.25647 1.57689 -1.23825)
(9.08758 -0.117841 2.24583)
(0.105424 2.73815 1.34522)
(-0.789995 1.57657 1.4682)
(-1.15695 2.22405 0.498711)
(10.0966 0.22102 0.222544)
(-2.73011 2.32717 0.347116)
(11.5846 0.0132442 -0.113868)
(2.27566 1.18969 2.11715)
(-0.790524 1.19432 1.22549)
(9.76299 0.1376 0.420742)
(1.3698 -0.52658 1.32141)
(-2.82515 2.26133 0.512731)
(-3.29318 2.20579 1.30434)
(10.0269 0.0690183 0.0126161)
(5.7114 1.08863 2.1557)
(-2.3851 2.39226 0.305972)
(9.9454 -0.0256486 0.0162356)
(10.7659 0.234066 0.0812355)
(10.46 0.132468 0.00726103)
(-3.18743 3.63567 0.539777)
(7.99477 0.31007 2.23931)
(10.6723 0.00383045 0.148523)
(10.0727 0.928072 -0.169651)
(9.86122 1.32093 -0.224717)
(9.90318 0.569837 -0.0638279)
(10.129 0.546902 -0.12963)
(10.7427 0.895693 -0.33184)
(4.92418 0.887489 -0.785931)
(8.45412 2.72512 -0.766724)
(10.7006 0.7998 -0.402956)
(9.69151 1.08765 -0.584662)
(10.588 0.109836 0.335813)
(2.96635 1.22851 2.53314)
(5.17053 0.66884 2.53426)
(1.93513 1.63385 2.54098)
(3.86778 0.723689 2.51701)
(-1.92002 1.94658 -0.445488)
(-0.768613 1.43613 0.710772)
(10.5641 0.416838 -0.0433175)
(6.76049 0.469263 0.195184)
(10.0805 0.00443681 0.0486202)
(7.66588 0.830539 1.81547)
(8.96721 0.460696 1.58413)
(11.1856 0.220764 -0.495252)
(6.99964 0.516608 -1.30979)
(8.48698 1.49194 0.0526345)