/*--------------------------------*- C++ -*----------------------------------*\
| =========                 |                                                 |
| \\      /  F ield         | OpenFOAM: The Open Source CFD Toolbox           |
|  \\    /   O peration     | Version:  2506                                  |
|   \\  /    A nd           | Website:  www.openfoam.com                      |
|    \\/     M anipulation  |                                                 |
\*---------------------------------------------------------------------------*/
FoamFile
{
    version     2.0;
    format      ascii;
    arch        "LSB;label=32;scalar=64";
    class       volScalarField;
    location    "0.01535";
    object      p;
}
// * * * * * * * * * * * * * * * * * * * * * * * * * * * * * * * * * * * * * //

dimensions      [0 2 -2 0 0 0 0];

internalField   nonuniform List<scalar> 
3923
(
-4.12344
-2.88944
6.19229
-17.6987
-13.1828
-15.6477
-15.1917
-43.1242
-27.0762
-42.8243
-89.3987
-4.95857
5.39646
-9.4617
5.9508
6.70253
6.41754
6.47645
6.6554
5.85328
-3.57487
-6.78608
6.97602
-5.33663
7.07954
-8.43528
-6.77007
-3.65166
-6.50411
-8.03457
-4.8763
-5.46368
-6.57802
-12.1431
-15.9937
-79.185
-58.4054
-58.6662
-9.90386
-12.6709
-74.0135
6.45689
-67.6661
-76.7291
-78.4941
-70.6943
6.3636
-43.2176
5.65179
-68.0416
-80.8547
-32.3421
6.6847
7.0341
6.69812
6.7411
6.82855
5.76478
4.18414
-6.32867
5.07855
-25.0459
6.78613
-1.77108
6.50649
5.76657
-5.55857
-75.9218
-9.7366
-11.7576
6.07263
-26.3088
1.33145
-13.9605
5.63714
-18.9741
4.05327
-3.03681
-95.4498
-7.8235
-72.8906
-18.9626
-4.14185
-0.757163
-70.8706
-102.192
-7.37871
2.32459
2.83487
-7.96728
1.26823
-88.0312
0.445756
3.26973
5.93993
6.37138
7.17935
7.03837
-0.0103652
1.21103
2.85828
-1.40861
5.49958
3.22117
-5.81968
3.07189
-11.5767
-54.8243
-57.7453
-63.0898
-66.5643
-60.7193
5.54094
5.9184
-49.6205
-49.4948
-46.9824
-9.45488
-34.1031
-46.1084
6.7031
-106.213
-1.65497
4.22443
-21.9073
-12.1126
-10.3628
-47.7085
-46.6604
-8.88402
-6.65115
-56.7755
-53.1885
5.89291
6.88264
6.32796
6.20174
-49.3972
4.23118
0.24448
-7.90998
-21.1294
0.512098
6.88289
-2.76124
6.42218
-95.661
-43.7329
4.22552
6.84749
6.81369
-5.71853
-1.63457
3.71593
3.12686
-10.1772
5.98499
-0.751975
5.46499
-12.0191
-7.25131
-46.4794
-7.31124
-8.42085
-39.3951
7.13098
0.977366
4.86548
5.08834
-53.5714
3.4167
6.16334
-31.2473
-79.9705
-79.989
6.50475
6.15965
-59.3147
0.430067
6.92423
-9.07198
-109.43
6.22207
-76.4189
-5.86992
4.59049
6.20108
5.02844
4.54445
3.74622
-8.22688
-0.766933
5.01345
7.32484
1.45617
-49.4224
-23.4584
-74.1809
5.15222
-38.6585
-34.9836
-8.89049
-10.5953
-4.01749
3.36318
-19.1785
4.34261
-86.7988
6.01524
0.119955
-63.6035
2.49318
-71.8196
6.59328
-9.18346
-16.2791
4.92957
6.34498
-8.02746
-47.2721
-46.1377
-44.0611
-81.7077
-81.7082
-18.6571
3.4972
2.87006
5.92735
7.76357
5.25142
5.33034
2.63885
3.10066
6.29392
4.05952
5.66852
4.20194
5.28757
4.52253
3.69459
4.3831
5.36012
-20.0161
4.50325
-13.2764
-49.9639
-21.313
6.6868
6.96751
5.81523
-10.5022
3.11184
6.17698
5.182
4.65553
5.18831
-11.7486
-16.1069
3.61805
4.38196
-19.8879
-19.0643
4.13739
3.37624
4.79571
5.67535
-12.0743
-9.231
3.82608
4.33646
3.65396
-13.1817
6.56386
5.89961
6.28124
6.26052
5.86665
6.04024
6.43756
5.24664
6.09614
4.80708
6.48625
6.45682
-11.7962
5.20977
5.38266
4.00511
5.91052
4.84648
3.14528
6.62548
4.86611
5.40828
6.04638
-15.1446
-11.3607
-52.6497
-53.149
-13.059
-23.8299
-11.3398
-55.3406
-15.3354
-14.5052
-16.4847
-32.1875
-11.1383
-20.6958
-15.8199
-19.5647
-25.3394
-15.6573
-2.07069
-1.92733
-0.653501
1.45286
-7.6054
-3.03399
-2.25866
-0.677765
-0.448674
-1.55581
-2.63245
-0.0963826
3.37925
-2.49955
-23.1427
-41.7318
-7.1401
-8.02472
4.30687
3.21684
-0.227489
-0.0278452
0.538796
1.77679
-2.1528
-0.691044
-0.262038
-0.786523
0.847308
-0.5016
-1.38449
3.45348
5.70813
5.23554
2.01282
5.79786
4.25013
5.4507
4.37229
4.48138
3.99029
3.61857
4.98427
4.5243
5.17695
5.40361
5.43101
5.91602
6.05805
6.17508
6.12005
6.03516
6.11491
6.0392
5.7801
5.78609
6.31897
6.05863
3.64818
3.18063
4.52056
-28.7658
-27.0441
-21.279
0.951055
3.26656
-0.224064
-3.38508
0.186858
0.39472
7.07426
7.33074
6.39032
6.88412
6.59058
6.56912
-40.9673
-42.6372
-53.7839
-2.90638
-1.42838
0.173805
0.145191
-2.02224
-3.70063
-11.2371
7.55056
7.0308
7.33564
6.21435
7.14183
-4.14605
-2.51347
1.35059
-1.57393
-2.57755
-7.68465
-12.7054
-7.78289
-5.70176
-7.98512
-7.53806
-8.4162
-6.60549
-4.68368
-4.47129
-3.68691
-2.84345
-0.510301
-3.4215
3.11913
4.15922
6.0407
6.07412
-0.134666
4.78315
-91.9455
6.05934
-9.96165
-1.82421
-14.0863
-1.45286
-76.6185
-18.9146
-59.134
-6.60083
-3.70307
-38.3616
6.23679
5.31056
-27.133
6.56349
6.39694
1.37518
-29.2203
6.11801
-25.3357
-13.5639
-25.7219
-39.7921
-65.1912
-1.35492
5.74928
-20.3499
5.32769
5.65245
4.06405
0.908253
7.68957
-13.9866
6.33896
-14.1244
-15.2315
6.60332
3.2898
-7.71447
-66.7535
4.48837
2.85848
-14.5086
2.65691
-6.49094
-20.2755
-16.0699
1.92631
6.08248
6.18393
1.83637
-18.2929
5.21902
-20.6088
-33.5717
5.50457
6.44267
5.86641
6.48006
-12.0666
-40.7908
-11.7003
3.33446
-22.0435
6.32436
6.66902
6.56531
-74.2764
3.9032
-50.7413
6.22978
6.17122
5.96934
6.52563
7.59177
6.00646
-11.9225
5.33178
6.7609
4.98558
2.98043
-75.0979
3.16136
1.23519
7.57228
-10.2965
5.34153
6.48338
-3.22183
4.07845
-14.3956
6.74526
2.72193
3.60544
6.29647
0.694806
5.60315
-11.5092
-19.4818
-0.963531
6.23248
-26.6869
-0.75355
-2.95229
-4.96143
0.805121
-7.91175
4.32798
-24.2934
-0.504069
-10.3873
-5.26566
-13.1703
4.66141
1.52446
-7.06103
-1.77068
2.85093
1.85975
-86.9303
-16.6536
-8.64684
-7.33926
-17.9266
-1.63219
-37.9144
1.26116
1.38351
-101.302
-2.65494
2.73258
-89.5956
-16.261
-2.96439
3.03944
-10.7339
-70.1533
-52.5005
4.64987
-10.8831
-1.13526
-0.020234
5.85051
0.461707
3.01717
-13.2427
6.42852
5.12899
6.37643
6.29999
-6.30978
-6.2719
-62.9278
-36.7656
-59.3567
-13.5849
-73.8125
-82.0025
-12.3371
0.408395
6.61327
-3.25217
-0.201389
4.02371
6.44853
-88.3515
3.36146
-6.93253
6.13767
-13.8027
-0.237222
5.47331
6.18241
4.10148
-7.22223
-1.91292
0.613556
-13.7646
7.06873
-16.7415
6.21047
-3.7337
1.89788
-3.56161
-36.0322
-80.3533
-106.445
-74.9143
-50.2997
-37.1175
-42.1573
-8.94249
-90.3533
-25.0434
5.91562
-108.877
6.59244
4.13477
-74.7027
-82.2405
-53.9661
6.00115
-34.4433
4.80534
0.580047
6.0442
-83.7421
-99.6326
-91.8438
1.88742
-73.2843
-48.1873
0.734837
-104.162
2.99917
-90.3855
5.80806
2.23394
-59.7447
-23.9932
-16.2803
-10.7764
-23.7264
-17.3465
-83.7616
-10.7286
-9.9498
-77.1331
-29.1884
6.98724
-29.8725
-60.994
-65.4303
-33.8822
-7.15456
-10.6599
-10.672
-75.9356
6.52259
6.57381
6.69446
6.83392
3.96021
5.42889
6.11724
6.40591
5.70558
-19.3575
-17.1582
3.90221
-20.665
5.13091
5.81208
6.39876
5.47275
6.27105
0.0707669
-71.0604
5.83262
6.02688
7.55006
4.76834
5.407
6.05233
5.89642
6.6623
-103.927
5.78809
6.8415
5.22331
6.83929
-90.6859
-7.95558
3.19464
-57.1026
-10.1391
-12.4894
-57.4357
-84.009
-35.0226
-8.90413
-13.8005
6.62891
-58.0034
-10.8864
-84.484
-94.5215
-88.2189
-5.78475
-79.9425
-69.6675
-86.3606
-104.336
-5.88985
1.52908
-81.0662
-52.1675
-3.91263
-75.7626
-87.4651
-92.6684
6.04381
6.23078
6.16907
5.27679
-0.471271
5.75225
-45.7331
6.70993
3.52898
5.61071
6.61065
6.19477
-45.1714
6.78385
5.71468
2.15567
-0.679252
5.38304
6.37993
7.03459
-17.2447
-47.6538
-49.5615
5.61422
-0.945085
3.57693
1.11839
6.50494
5.97714
4.42536
-8.55805
-43.4804
-12.0652
5.43393
4.94831
-94.9355
-98.7074
-53.247
-22.3909
6.65594
-2.30984
-12.9618
-72.0925
-73.2026
-100.823
-37.6453
-42.8279
1.7264
-53.435
5.77056
-23.5302
-19.4983
-44.8205
-0.019535
4.37407
-14.1717
-22.9807
-61.9829
3.32517
5.73042
6.16238
-13.0485
6.86765
6.24118
-13.6912
2.57105
-6.69175
0.810913
3.05538
-0.154404
4.82666
4.64671
-103.04
6.12269
5.98194
7.3049
5.46318
6.52264
7.52752
7.4165
5.31283
4.30508
-80.0286
-96.6913
-6.07699
1.35577
-13.8873
-0.758141
-93.4504
2.22751
3.86555
-29.5405
-30.2693
-95.1562
2.01793
2.86384
4.52619
3.99738
4.49293
2.71458
2.65017
5.1894
-79.8891
-14.2191
0.313341
-13.6594
-3.8697
-3.76912
-38.3864
0.521909
-6.03401
-12.7537
-4.87673
0.583864
-48.8431
6.32455
0.870391
-74.2928
-0.350339
5.51434
6.56346
5.83588
6.77629
-1.49477
-2.34031
-2.79378
-6.26234
5.55314
4.14212
5.61126
5.89154
5.68731
6.05858
-101.995
-98.5118
-24.604
-7.34568
4.97379
4.84908
5.89248
5.49103
-23.8357
5.64012
5.87362
-80.0734
-68.1798
-95.3212
-95.2703
-48.4465
-19.7855
-28.0556
-18.0934
-14.857
-52.4352
-0.199522
0.483017
1.83004
1.81697
-103.252
-45.4546
-98.7473
-67.1262
-105.472
-103.295
-24.434
-102.068
-56.3666
-53.1965
-38.5119
-77.9757
-52.8065
-73.6659
-59.0681
-10.8471
-10.7169
-57.5517
5.73851
-48.148
-0.626594
0.55367
-48.1625
6.87613
5.02663
6.64197
-48.0627
-55.5399
-33.3412
5.73898
2.39111
6.06776
-13.9101
2.72812
2.49676
2.72412
-37.2442
2.47865
-48.9663
-10.3965
5.49292
-15.5564
-16.3517
-28.8445
-2.38856
-57.0153
-44.5451
-30.5831
-26.53
-20.5135
-0.422909
-36.9963
-86.0214
-18.5675
-13.5429
6.70944
5.71369
-19.6732
-49.2665
7.19629
-0.411883
-3.22865
-10.6408
-70.3446
-66.7321
-28.8134
-15.1811
4.60892
-7.38176
3.89634
-29.5172
0.0870666
-13.5178
-0.30141
-9.17016
0.707359
-4.5014
-14.2567
-2.97472
-4.40173
-7.86624
2.12641
4.95316
-5.89805
-5.58493
6.78603
6.24596
6.07847
0.738466
-6.5127
5.66804
4.29166
-0.371708
5.6229
-11.9898
5.21848
5.50095
5.79154
6.29239
6.21421
-31.0643
5.67806
6.04223
6.64303
5.86738
5.47642
-54.2705
-37.1868
6.45197
6.28515
6.10397
6.69026
4.10388
1.99745
6.20238
6.66778
2.57335
-6.7013
5.88423
5.73651
-26.4075
-1.61968
-1.14294
-12.587
3.19095
6.24013
3.91216
-1.73057
-80.8794
-23.2353
-2.40183
-12.3811
-16.3141
0.977634
4.01538
0.491574
-8.42074
-27.4811
-10.8149
-5.2901
-87.9478
-3.16954
-29.9734
-12.3305
5.28648
-12.5674
-40.7241
-6.38681
1.75508
-8.77055
1.77669
-11.0291
4.11752
7.45326
6.78426
-0.915202
-15.9782
-3.82019
-10.0516
-11.9068
-16.5009
-66.6086
-5.11064
7.73104
-28.4305
2.13401
-65.2341
7.4173
-30.5261
1.26455
0.475571
-13.7465
5.22908
6.69779
-2.20066
-3.59934
5.42626
2.40411
5.47357
0.823507
-13.9622
-17.686
3.61568
-13.1184
-13.6593
-7.70791
-1.61386
5.38163
5.40332
-0.729613
-6.06365
-33.6108
1.1875
-42.1902
6.22275
-0.648563
-44.2021
1.90226
-31.1363
-37.8933
-93.4655
-58.4413
-74.7979
7.26271
-75.7333
-46.572
6.76808
-94.2507
6.25678
-92.026
7.36049
7.60967
-10.7553
-43.2546
-20.8822
-24.0454
-9.0863
-31.381
-22.292
-16.6796
-96.0895
-91.0552
-53.0598
-4.75593
5.92643
-23.3579
5.19207
-41.1491
-39.0891
-50.7512
6.14963
5.68128
-46.3063
-96.807
-93.0261
-94.8646
-104.499
-105.15
-61.3943
-69.75
-1.105
-42.2699
-77.6247
-74.0553
-36.6964
-29.5361
-28.2625
-82.2794
-10.8575
-61.6235
-46.3397
-0.539704
4.77393
2.54518
-2.61411
-36.8286
-21.7287
-31.2365
5.81842
-17.1911
-27.4158
-72.6323
-51.0426
-2.79935
-31.5516
-8.35241
-3.75571
-3.84336
-30.0911
5.57682
-5.69306
-2.51269
-3.65283
1.14788
-11.542
2.55728
-42.1294
-4.97304
-56.5634
0.641202
-42.6673
-47.5448
-66.4282
-33.8254
-4.22866
-16.3869
-105.782
-47.3122
-102.765
-87.9872
-20.9983
0.560301
-81.6155
-62.6097
-100.664
-83.6181
-101.379
-4.92878
-2.9252
5.96399
6.48289
5.62038
6.35987
6.40381
6.96335
5.85506
5.1766
6.0734
6.23419
5.84832
6.06187
5.70356
5.64066
6.44872
5.97559
6.90665
6.80397
5.97597
6.15111
6.08887
-3.17197
6.96589
5.57986
-102.989
-102.441
7.18604
6.40812
7.43506
6.20352
5.98825
5.86979
-64.5454
-48.7131
6.43692
6.49372
6.3536
-9.6768
-6.5713
-15.0533
-10.3729
5.07063
-4.23583
-88.5055
-88.4039
-25.4159
-43.6802
-25.1358
-24.1562
-39.8676
-24.6469
-22.037
-19.2559
-75.4168
-11.5952
-92.0578
-71.2054
-79.32
-24.4931
-81.0897
-43.5752
-7.9799
-45.8795
4.73356
-69.5147
-57.6729
-46.3441
4.2157
-101.829
-74.9017
-68.8399
-83.3541
-1.11443
6.67252
1.1974
4.87206
6.15317
-36.9591
-1.79657
-29.4771
-13.9375
-18.1304
-41.8689
6.79312
5.82814
-16.6265
6.57308
-8.46573
5.65969
4.76442
3.24093
-17.8494
6.60031
4.43214
5.58421
5.7529
5.07875
7.37684
5.33942
-60.649
-84.6684
-32.7433
5.88304
6.20538
5.61234
6.5302
5.35481
5.20597
-1.77547
6.08528
6.0788
7.56164
1.72999
-71.5717
-30.1473
-76.2973
-3.60783
-83.2098
5.5682
5.60118
5.92251
-93.0599
5.97053
-67.1739
4.59916
6.07914
6.38466
6.11013
6.19573
-12.2775
-45.1166
-15.951
-77.7042
-16.1707
4.62263
-8.67421
-28.2876
-82.5297
-51.5973
-50.6292
-19.0994
5.74753
6.67023
7.79436
6.1692
6.66186
6.64175
-23.9276
4.74386
1.14219
5.52024
-8.06397
-3.58007
-87.1604
-52.628
-30.5104
9.01119
-34.5551
4.24914
1.44752
6.31178
-17.8836
4.19978
-3.08739
6.43541
6.73334
7.31077
2.29154
-27.9877
5.69252
5.1185
4.98197
5.67382
6.1679
7.71863
6.77139
7.13291
6.17468
6.969
-100.308
-99.5565
-63.5505
-51.9585
-51.029
-93.4633
-99.2991
-83.4776
7.60413
7.12656
-90.6705
-89.3652
-96.5187
-80.1209
-103.121
-81.6944
-82.6004
-78.2669
-79.0186
-86.1825
-83.8383
-82.5332
-32.7919
-80.0791
-76.534
-82.3847
-82.9714
-89.9968
3.28998
-104.968
6.73785
0.258827
6.81297
-90.5566
-11.2268
7.56998
6.23751
-2.80133
6.93585
4.94061
5.7251
6.49926
-5.59671
-31.3066
-45.3869
-38.6097
5.41399
-1.67926
-0.600554
8.00672
-17.9068
-48.7382
3.64261
-22.2665
7.50113
-42.0008
-15.862
1.7764
-20.349
-15.345
-15.3919
-10.4588
-3.22683
-4.20197
0.968174
-14.5515
6.25658
6.20111
6.14525
-14.7719
7.39961
6.96236
5.15129
-10.4918
-58.2564
-13.715
-57.2823
-13.744
-5.5678
-9.73925
-5.97996
5.55862
6.599
6.28099
5.50825
1.52421
6.57533
4.81864
3.66712
0.527453
6.05765
6.06554
6.20919
5.64811
2.99384
7.54395
2.46815
4.57834
1.54614
0.429105
-7.56672
1.81377
-18.4596
4.47597
2.24973
6.44376
5.98964
0.815969
3.11813
4.03851
5.29414
-5.91638
-4.71795
2.9748
-58.9234
-11.148
-11.2821
-13.0099
7.30291
-5.46332
-5.19923
-10.6426
-32.1221
-97.8455
-19.775
-14.2124
-6.93082
-70.562
-1.92549
-45.5333
-55.8667
-12.3864
-38.622
-37.7718
-21.6629
-7.3605
6.117
8.42163
-1.77481
-1.90235
-11.1815
-7.34276
-26.294
-35.3526
-4.19422
-31.4031
0.848572
-11.2041
5.94925
6.945
3.7434
-9.09349
-35.9289
-22.1819
5.63073
-25.1798
-4.68902
-7.56619
1.77956
-14.9517
-11.8407
-7.8597
-22.8516
1.15475
4.89024
2.37315
-9.77535
5.29369
-7.00651
-11.6759
-4.19649
-5.58116
-10.6847
-10.4369
0.479005
-3.79193
-33.1956
-86.2124
-75.3501
2.62168
4.21127
-69.3713
-14.3185
-83.3385
-87.6855
5.8611
-11.7517
-13.5079
6.58271
-90.3218
-34.6961
5.7417
4.89542
-16.8372
-43.0078
-48.8918
-11.5052
-8.85342
-24.1241
-28.2427
-9.66054
-85.1869
-9.47835
-12.7641
-15.6081
-20.1859
-65.354
6.99718
5.01444
-35.1008
4.26984
1.43339
7.69601
-23.1043
-76.9815
-79.8038
-42.4782
-23.378
-6.89344
-38.3871
-65.834
-30.718
-84.7857
3.23645
-7.42283
2.78756
0.756591
8.43884
-4.88389
3.6707
-12.5378
-19.022
-27.2693
-23.8671
-39.871
-73.6443
-83.833
-69.175
-38.607
-21.1458
-30.5974
-16.8635
-17.9513
-14.0772
-15.4318
-15.381
-54.3711
-23.2538
-40.7336
-77.039
-109.511
-10.2417
2.1048
-39.643
-49.1933
-89.9223
-17.3401
6.18515
6.39787
5.74672
-56.301
-67.1074
-11.5361
-4.93679
-7.96131
-48.9963
-44.5792
-14.8441
-9.10377
-11.6408
-10.4346
-14.0517
-62.0896
-6.10289
-5.15242
-12.5246
-27.8662
2.61489
-51.9228
-1.95786
5.78458
-0.897992
4.60517
0.589485
-12.4156
4.25578
0.110555
-5.65793
6.00031
-106.833
3.56868
-44.4322
-22.0636
-2.98128
-21.8585
-5.30991
-11.336
6.00398
6.47029
-3.06506
3.41024
1.57109
-16.0653
6.12125
5.99502
5.58052
2.82898
3.60902
6.62107
5.83788
5.52301
-52.4834
-57.8973
6.40915
-10.4492
-16.7631
-43.8999
-52.7616
7.30342
6.96586
5.87238
5.40865
5.81228
5.4745
4.87424
5.93288
5.7236
5.96584
-8.95966
1.67672
4.8145
6.26635
5.6848
6.34065
4.41366
6.71954
6.12384
6.06026
-46.4885
-11.6349
-14.4848
-55.2235
-35.4555
-19.6142
-49.2469
-9.90768
-17.0572
-75.1003
-11.5686
-84.7072
-74.7824
-32.9716
-67.5299
-53.003
-86.8225
-93.785
-94.804
-42.4191
-30.7002
-12.5292
-23.4091
-36.0676
-79.595
-93.5517
-86.3815
-11.9391
-78.0083
-36.2182
0.838527
-55.9451
-3.33286
-50.8813
-3.82527
-26.9809
-35.3054
-72.5597
-76.2363
-49.4536
-49.304
-58.1371
6.68497
6.46938
4.82189
-79.9632
-54.4727
6.08803
6.11217
5.29755
6.04886
6.46559
6.25526
5.99844
6.63701
2.32356
-14.2617
6.98404
6.66998
6.27913
6.36116
5.3104
5.35981
-1.39107
1.61258
4.11958
6.19058
4.60866
6.24242
6.12395
5.81653
6.65582
5.88877
5.56376
6.00551
6.16651
-85.8446
-78.6333
-61.3206
-2.94772
-69.2371
-7.12368
1.23781
-4.48899
-0.726293
-20.1917
-48.5496
-12.5268
-51.4817
-50.8005
-86.8576
-47.3013
-71.4826
-15.0503
2.63624
8.2377
-107.662
-48.3099
-52.6294
-50.3519
-55.0854
-59.5522
-37.8448
-3.68551
0.863166
-5.5974
-2.46413
-2.50028
-2.76512
6.30693
-11.5472
-98.7876
-3.93063
3.94282
6.97644
4.812
3.36499
-22.7597
-0.238929
-11.2314
-69.0946
-5.80846
-20.0813
3.91579
-90.0693
-75.416
-46.7068
-46.2414
-49.2531
-46.0136
5.14925
6.04354
6.32564
5.96661
6.56403
-8.19888
-11.4905
3.4841
6.90559
-63.8851
-25.4576
-99.477
5.60337
0.983489
-1.24145
1.72784
-40.2012
-60.6965
5.78369
6.29496
1.93393
-31.3818
-0.337191
5.07015
-3.56959
-34.4095
5.21853
-96.9668
-20.163
-20.785
-27.8121
5.1176
-12.7643
-26.1095
-18.3846
-14.2522
-11.9816
-12.0465
-9.22921
1.33259
1.6214
0.603698
5.13194
5.21961
-1.36766
-7.10925
-3.92817
5.91087
-15.4062
5.84016
-14.489
5.20347
0.653894
5.62521
6.131
6.24341
5.15121
5.3816
5.64552
6.45738
6.51164
6.19295
2.07499
0.437655
1.73613
-9.14581
-54.8569
-51.169
-26.1108
-22.5326
-19.4618
-25.2511
-17.85
-13.0625
-14.2004
-5.54398
-2.74404
-16.9686
-13.6329
-0.990242
0.260146
0.766612
0.270952
-10.8469
-1.19541
-8.30667
-5.35428
-19.1206
-19.8815
-22.4432
-0.301103
-7.3194
-0.651826
-1.6557
6.31691
5.45954
3.22524
-6.37867
1.92118
-2.7956
-29.2725
-0.585818
5.16858
3.87096
6.86645
3.83505
4.27489
-21.4878
-4.60136
-0.157629
6.20284
5.68397
6.56585
6.29287
6.16749
6.68418
5.94841
5.75495
6.07216
6.2109
5.60684
6.11782
6.22869
6.17718
-11.4856
-13.4623
-12.4574
-95.0098
-80.6041
-70.6171
-42.8472
-3.58613
-1.89016
6.37385
0.47344
5.75931
5.64032
-9.13397
-8.75084
-44.6215
-24.633
-44.2296
5.20734
-8.27581
-25.1332
-18.8797
6.17512
-25.1575
2.78978
3.8017
7.83571
2.53035
5.47608
8.52561
-0.39192
3.46063
-3.70387
-14.5568
-13.0062
-5.79921
-6.05964
-4.83583
-6.73715
-10.5743
-1.463
2.41839
-1.54555
6.13869
6.58109
6.69185
6.24757
-51.6011
-61.5712
-60.3457
-27.5302
-45.2998
-50.8399
-57.6939
-40.9226
-61.8093
-52.595
-53.6577
-43.255
-40.81
-4.10434
-11.2321
-1.23706
4.25034
-23.8866
-24.6504
-9.74444
-14.3498
-2.40749
0.794557
4.06265
4.60258
5.6622
4.68063
-28.8476
6.41397
-5.07277
-8.31379
6.47157
6.96171
4.7663
2.37031
-0.28042
-2.33406
3.08922
-2.75715
-7.63764
0.596406
-43.1654
6.2912
6.41509
6.89996
6.54257
6.43838
5.58109
6.41959
6.52786
6.37549
5.66345
2.48071
-10.5392
6.97357
0.486625
0.400042
5.36419
-10.9735
-15.7819
2.97221
-6.72945
-3.28415
-13.2207
4.91367
-82.4966
-5.97098
-12.9189
1.88311
-67.5318
-21.5297
6.5646
-5.51542
-24.4347
7.93159
6.42276
5.24113
-5.6541
-10.6569
6.63346
4.14612
6.88045
3.61096
5.68834
6.21504
5.94875
6.52362
7.13164
6.46285
5.5427
6.20474
6.00481
5.13955
6.8337
6.54677
0.869151
3.50804
0.911555
4.32596
6.39944
5.99319
5.24093
3.52054
-11.0355
4.17971
-2.59039
3.01821
-0.193935
4.72096
5.52557
5.1977
1.22346
4.01674
-6.99722
-30.4746
5.69563
-62.8169
-10.1161
-20.4601
-0.471984
-4.48707
-11.0744
-3.47228
-4.71069
-10.3798
-34.0169
1.65484
-29.9742
-6.50936
-6.20628
1.51747
-2.73471
-7.64747
-19.3295
5.64223
-2.38926
-20.1212
-6.28787
-6.52055
-15.4932
-4.65055
-27.1494
5.91187
-51.0152
0.421119
6.65125
3.87146
-2.59634
-17.009
-31.9597
-18.9274
2.32563
4.25944
3.46638
-2.24306
0.712914
-1.96581
6.54671
7.23174
6.63136
6.10756
5.83212
-0.358384
3.37677
5.31762
6.5014
-8.16216
-0.498432
-5.28597
-4.85297
-5.62592
0.734688
-4.92361
-16.0115
-15.5468
-63.7651
-18.3534
-28.1219
-6.12278
-36.9301
-37.4933
4.83527
1.94673
0.713356
6.37124
0.574186
2.9888
-2.85629
-5.25052
3.3138
-82.7871
-43.4882
-66.5108
-4.34493
-43.0113
-41.8065
-12.8407
-31.0294
-91.4017
-6.77115
-106.033
-56.4645
-7.89053
-15.4647
-9.5631
-2.56522
-48.2814
-17.6181
-43.0573
-58.4369
-39.2515
-51.5823
-65.0362
-46.4135
3.41941
-45.6066
-46.2491
-45.7306
-22.8835
-9.84597
6.42053
0.446331
6.96146
-23.0944
6.92382
-5.99176
3.73021
-100.735
-64.6043
-96.5296
-98.981
-83.2053
-7.85276
-32.1846
-99.7606
-103.206
1.56924
-65.6189
-7.11694
-21.6573
-43.0482
-18.9133
-22.5743
-97.3522
-98.3529
-74.8226
-103.831
-68.8382
-43.5696
-19.9904
-9.95015
-2.00748
-19.0891
-11.9627
-34.4327
-62.5587
0.692716
-8.99051
4.8279
-16.1765
-75.0095
-82.7179
-65.2856
-5.75282
-85.3094
-68.1487
-85.7383
-100.502
-95.5243
-96.0403
-100.326
-48.6752
-50.4816
-58.1721
-27.8299
-58.4649
-54.6186
6.5659
6.11999
6.52812
5.38447
6.7436
6.19188
7.60001
6.74221
-1.83686
2.80868
6.1601
6.58432
6.5722
7.03293
6.40755
5.65114
2.88867
6.00294
6.58898
6.53859
6.86926
-99.2978
4.97697
5.47772
3.85514
-82.8721
-90.0511
3.17894
-8.14095
5.54501
-77.7875
7.31432
5.72794
2.94562
-46.9064
-21.8268
-20.2943
-13.8843
-6.22216
-72.8782
-79.3004
-79.7961
-4.08331
-4.05887
-3.353
-93.4116
-107.459
-4.84692
-45.4246
-107.066
-48.6946
-50.0333
-37.9555
-11.1329
-30.8959
-101.995
-2.30793
4.08149
3.37556
-0.521268
6.34528
6.12218
6.87071
6.25845
6.20625
4.32966
0.737936
5.95197
5.72832
6.17995
-45.883
-50.3528
-47.4267
6.5022
5.81773
-84.2758
7.47844
7.34734
3.4821
-22.692
-26.6192
-25.6335
6.09222
5.79271
5.26809
5.88347
7.01445
7.99769
6.27439
6.44503
-60.2363
-22.24
-17.5331
-20.9982
-24.5258
-71.806
7.20369
6.26154
-47.1989
-96.065
-38.9053
-45.5339
-46.8839
0.0307485
-0.19437
-15.3131
-20.2214
-85.9592
4.91777
6.43428
6.8754
6.30386
5.50417
6.3537
-44.3627
6.09484
4.74398
6.03318
6.75878
5.76628
5.85138
5.65465
-3.2189
-2.14699
-4.58507
-37.5552
-44.5016
-45.2437
4.71282
-60.5748
6.4338
6.86943
5.62065
5.06087
6.81891
1.86432
5.14299
5.93657
2.6919
4.90196
6.45544
6.60648
6.4105
0.052848
-80.7889
-24.0018
1.81791
-10.8723
-56.7933
2.83971
5.67739
5.23686
5.43012
6.41945
6.43856
6.73302
6.39673
6.81854
3.46012
5.79804
4.85342
5.76823
4.89459
-2.68311
-1.85222
2.85779
-2.02969
1.20214
-4.39628
-1.50535
5.63972
-4.46864
-21.4746
-11.7394
-20.743
-44.6222
5.93021
5.26196
6.04935
6.54925
-6.74084
-22.3456
-4.42192
-45.3425
-2.32229
-60.4486
6.03468
7.07396
4.44176
6.87821
-15.4279
-14.8367
5.67699
6.26371
6.53708
6.24923
6.29936
-26.2956
5.85749
6.32235
-95.5502
6.37368
-84.9181
-70.9044
6.44715
-62.1156
-69.2782
-84.0944
-16.3385
6.65865
-8.07411
7.07906
1.72111
-21.0665
5.1091
5.03043
4.78897
5.82876
5.69318
6.28615
7.11237
7.4199
5.88133
6.52619
6.05959
3.72497
0.174185
-1.7562
-3.15012
-1.82055
5.43714
4.54068
9.03404
5.95599
5.67591
0.170607
1.87667
-8.88413
-26.8235
-6.99883
-68.8495
-8.98907
-63.5752
6.79882
7.68054
-13.4894
6.24431
3.48068
6.09469
1.22787
-15.1078
-1.25551
-5.0077
-26.6685
-84.3404
-33.7711
-87.604
-38.3219
-13.5302
-5.73408
6.70447
7.1088
-5.96049
2.63523
-0.0460607
-6.90075
2.95166
-55.3073
7.94904
-15.6226
-1.21018
-10.0532
1.53449
6.48877
-30.9792
-26.2827
-8.63898
-41.5084
-72.916
-1.38213
-32.9644
-18.133
-12.6852
-26.6007
-12.3003
-28.5024
5.9467
2.30481
-36.016
-52.2329
-58.4909
-60.7907
-30.5628
-16.4727
5.97755
5.08888
6.25227
5.99343
5.70865
5.58974
6.45046
-7.57417
6.72801
6.06542
6.33713
6.98654
6.59374
-4.77381
7.21496
-9.90741
6.10223
6.32843
4.48704
4.02955
4.54812
-0.185295
-1.31092
3.23213
2.46037
3.64861
6.46304
-1.99068
4.40479
5.12635
5.20298
5.18374
-12.025
2.45188
-3.74543
3.04854
-17.0649
0.850426
6.43428
6.85307
6.00444
2.27664
-9.0404
-8.62745
7.2642
7.69985
-5.02789
3.61657
-50.967
-6.6184
-48.7409
-9.47819
0.517213
1.87952
-7.17615
-4.05623
1.82268
-19.402
0.443939
2.46963
-2.36616
-34.0226
-35.1787
-5.34706
6.62083
-12.2514
-2.74042
0.752275
7.49008
-13.0312
-8.6999
-10.3051
-4.59072
3.27075
-14.3898
5.30563
-11.7794
5.12571
-13.9193
-31.5544
-38.9191
-22.8885
-32.7821
-37.2497
6.86074
6.40878
6.16294
-64.3681
6.27741
5.87727
-74.3316
-62.498
5.89173
2.93851
-32.952
-39.2943
-10.2925
-77.24
-11.5932
-0.21172
-17.5455
-1.96224
-5.73164
-15.8434
2.09402
-7.74801
-1.64375
-11.8223
-1.56349
-2.56889
4.30366
-11.6416
-4.30888
-8.3544
2.57995
-38.8469
-56.9529
-16.2934
-49.882
-57.8634
-47.9521
-73.7559
-40.7215
-42.6372
-39.364
-94.2894
-66.6676
-88.3981
-39.3257
-28.0769
-75.7412
-41.39
-28.9389
0.598441
4.13746
4.5097
4.92167
2.77083
2.22075
-24.2623
-36.542
-17.6385
-67.6993
-51.1623
2.73192
0.868062
-69.8403
-92.7172
-0.117059
-100.002
-16.6373
-19.6124
-41.5299
-50.2439
-50.6836
-9.87116
3.97494
-16.2876
-48.5461
-57.469
-89.8974
-47.6574
-7.42736
-25.6662
-7.35364
-8.37174
4.01722
4.61426
-87.2325
-30.864
5.09857
3.71262
5.61896
4.50856
7.11444
6.94127
-55.0846
6.17638
-7.54492
6.06532
6.89462
6.92399
-41.7657
-8.4885
-52.5927
-54.3818
-8.17892
-27.3997
2.72221
6.22116
-4.55407
-10.091
-40.606
6.56105
-15.2179
-3.00887
-10.2622
-5.27097
6.42856
-2.09696
6.85783
6.87205
0.654513
-2.37157
-29.8473
-7.59672
-45.8368
-2.84634
1.70617
4.54366
3.70315
3.30793
4.82331
4.39565
-2.72365
-14.1357
-48.3932
-59.6165
-32.2035
-11.3053
-0.993239
-1.97881
-0.356692
-70.9405
-36.7836
-2.44862
-68.3304
-71.6977
-44.9606
-68.3669
-24.8021
-12.2729
-40.9487
6.8714
-17.5474
-71.4603
-74.5053
-47.8849
-32.2691
-27.5121
-11.1402
-24.9119
-16.415
-20.6894
-28.814
2.58365
-19.8293
-19.9414
-37.6253
-63.9913
-38.9716
4.05481
-4.28346
-74.02
-85.8806
-5.17528
-17.9729
-8.99981
-8.41843
-24.6665
-25.0155
-88.4904
-88.8735
-95.511
-100.749
-92.7815
-105.011
-105.559
5.45404
-4.62868
-31.9111
5.7371
-48.0164
6.3112
-53.6062
-43.9625
-64.9676
4.08436
6.33264
7.14652
-4.80914
5.92005
-0.539418
-0.207855
4.48645
6.51359
-2.25853
-9.90114
5.69384
6.03459
6.07016
4.32562
-13.199
-88.6351
-81.3257
-88.6432
-85.6506
5.24624
5.52489
4.47867
7.11831
3.75211
6.2896
5.20478
6.15716
6.39265
-78.8184
5.82211
6.73782
6.41525
-83.0809
-10.6695
-10.5824
-6.488
-8.51388
6.19729
6.04785
6.67457
6.61507
6.45413
2.09303
6.21495
4.00407
5.44029
4.15778
5.92278
-52.0736
-60.6249
-51.6006
-54.6981
-56.282
-60.2122
-48.2235
5.36707
6.07107
3.24127
5.89246
4.43333
6.51165
5.51745
6.66304
6.27255
6.14383
6.74221
5.57316
-17.4649
5.32202
-94.0291
6.08116
-7.0676
-8.28723
-6.42504
-91.7293
-14.919
-20.6283
-9.61379
-8.29139
5.59141
-75.221
-12.5631
-1.53208
5.77311
-48.8742
-55.2081
-62.4467
-92.6876
-93.0502
-46.9341
-46.8952
-21.7718
6.30282
5.88328
-12.0398
-34.7275
-13.2823
-3.41776
-16.5984
-18.0844
-22.9292
7.26838
8.15416
6.94575
5.20272
6.07343
5.54575
-81.287
5.98179
-52.1786
-17.0306
-25.1568
-31.7597
-35.0325
-11.0293
-21.9882
-26.822
-14.4048
6.41621
6.12908
-46.2571
3.89039
-31.2269
-15.2715
-8.74453
5.63795
0.487112
5.71661
-2.83178
-2.3988
-1.68811
-0.471871
4.66783
-0.0745114
-1.12116
-74.9838
-56.7956
-4.88197
-58.5493
-69.4092
-1.95392
-4.24213
-46.5461
1.6773
-46.1291
-47.4463
4.49746
4.80998
5.34736
5.16967
5.56107
5.72753
6.02608
-45.4551
1.69236
1.74469
5.93552
5.84532
5.09338
6.2665
2.86631
2.90338
1.95914
-10.9024
-9.2436
-11.094
-14.0243
-46.4516
2.60244
6.07428
-46.3795
6.58816
-5.593
-3.45711
-8.65905
6.18349
5.5362
-26.204
-96.7565
-104.22
-16.984
2.0416
-102.836
4.74496
-68.7571
1.67111
-8.05456
-11.337
-12.5203
-14.5855
-23.6208
-31.6482
-8.51992
-31.9592
-35.7558
-10.9549
-9.4707
-17.9107
6.61558
-28.1939
-13.726
-7.76623
-0.513657
-10.946
-7.13613
-3.80055
3.7697
-6.48845
-4.41709
-7.49622
7.35359
2.9452
-8.116
2.60729
3.95393
4.57672
-102.295
-11.0643
8.31623
6.29335
-9.75242
8.05923
-6.31527
-3.67449
-11.1597
6.83167
-2.86731
-40.1898
-71.3604
4.35483
-0.602006
6.24174
7.22699
4.17078
7.26426
6.1718
6.84065
7.14784
6.14858
6.05858
2.90038
3.57866
-3.96582
-21.3163
-76.6794
-22.0176
-2.05326
-3.12738
-6.04903
-11.6261
-17.5062
-9.65998
-3.75599
0.0405732
6.78177
6.15426
4.4393
3.03418
6.09666
5.82726
-3.31735
2.07349
2.5587
-1.97301
-46.7018
-61.1719
-8.98038
-4.70183
-18.1617
-0.115332
5.1318
-0.83844
-3.9971
-7.29992
-1.40559
-5.34998
-14.5191
-13.9555
-13.7
3.45005
-13.2015
6.55387
4.56801
4.2486
4.69726
-2.18627
4.20803
-2.52054
-53.8001
-40.133
-56.9847
-4.0226
-1.98943
-3.58531
0.0257392
3.30272
6.55025
0.953627
5.29391
7.68659
7.54654
-0.11572
2.71553
-10.9716
-8.79663
6.73373
1.50244
-6.34494
4.90318
-14.284
-13.7887
1.12334
7.63664
-11.3668
6.85336
3.74569
2.54472
6.17876
-67.4626
-76.6547
-2.36237
-25.3321
5.13796
1.25792
-1.72522
1.4447
-63.3606
6.58142
-81.741
-21.6559
-12.9152
-13.621
-14.7167
-1.90518
-12.8293
-14.6206
-58.0057
3.83217
5.92138
5.38937
6.39203
6.57533
3.35367
5.87003
6.63029
6.03294
6.04611
-3.9765
-3.98382
2.30473
-30.6037
0.45391
-27.2497
-17.363
-21.5042
-26.1427
-6.79717
-3.42419
4.74086
3.91427
4.82164
-10.4503
1.94268
0.326134
-78.5432
3.20893
-1.16778
6.13567
6.42173
5.8344
6.55142
5.18256
5.46591
5.6293
-13.1009
-12.7514
-14.026
-12.1191
5.64714
7.42714
3.57341
-14.3978
1.42495
-0.823324
-12.3702
-1.32513
6.29959
-0.158206
1.92704
-7.5322
-22.3273
-14.3735
-8.89075
-13.5318
0.290717
-0.53796
1.0959
-0.453279
0.352298
-5.94478
-75.3131
-81.095
4.47589
-0.624895
-2.98185
-12.68
0.873439
-6.70731
2.87027
6.15773
-84.9601
-72.6955
-79.3786
3.26784
-4.0284
-5.23714
3.78212
5.93677
-4.42532
4.14597
5.28072
5.63216
4.56532
5.79487
1.53852
-2.67109
-12.1271
6.1795
6.10598
-9.48342
6.45118
6.16619
6.60472
-13.2938
-4.3321
6.31252
-7.41385
-6.00758
1.72876
6.20678
-12.3326
6.08727
6.01077
6.19187
6.16399
6.21481
-38.6998
-43.9918
-38.2587
-6.19178
-7.75806
3.77635
2.66168
5.61826
5.57232
4.24024
6.76463
6.44659
2.06352
1.86551
6.34075
6.57371
6.41987
6.86456
-0.948889
6.76728
4.37221
-5.16416
7.52828
6.11029
2.55257
-8.24894
-8.20687
-7.05866
-7.60582
-8.11537
-9.66866
-6.31461
-2.86289
-11.9565
3.70298
7.91548
4.78944
2.32762
-8.55756
4.14001
4.20063
2.61972
-11.9107
-4.01117
-13.8297
-25.8453
-15.8325
2.7015
3.7101
5.88702
6.23377
6.3487
6.06073
-30.8281
-45.4838
4.43817
4.43618
-2.45775
3.19661
3.76506
4.58366
6.94914
0.705696
3.15716
-18.3867
-51.4177
-17.4782
5.86445
-18.2973
4.48953
4.10772
2.9172
-13.3592
5.80073
-31.6942
-8.60512
-6.56308
-5.61174
-9.65405
-7.80925
-19.2552
5.80453
5.73621
5.80126
6.29257
7.18012
6.69913
4.37109
6.20603
7.03204
6.14425
7.37247
6.15342
-3.30293
-7.05691
-11.6125
6.06264
2.15817
2.65669
-10.0615
-25.0656
-12.7296
-12.0031
-10.2377
0.368867
3.22467
-3.16034
-0.0808433
5.40499
7.38131
-4.50674
-1.48931
-3.62696
-16.429
-6.28351
-28.1035
-32.9497