/*--------------------------------*- C++ -*----------------------------------*\
| =========                 |                                                 |
| \\      /  F ield         | OpenFOAM: The Open Source CFD Toolbox           |
|  \\    /   O peration     | Version:  2506                                  |
|   \\  /    A nd           | Website:  www.openfoam.com                      |
|    \\/     M anipulation  |                                                 |
\*---------------------------------------------------------------------------*/
FoamFile
{
    version     2.0;
    format      ascii;
    arch        "LSB;label=32;scalar=64";
    class       surfaceScalarField;
    location    "0.01535";
    object      phi;
}
// * * * * * * * * * * * * * * * * * * * * * * * * * * * * * * * * * * * * * //

dimensions      [0 3 -1 0 0 0 0];

oriented        oriented;

internalField   nonuniform List<scalar> 
7426
(
0.00125392
-0.000474211
-0.00549436
0.00471464
0.00539928
0.000308497
-0.000942696
0.0289463
-0.0318145
0.00381091
0.000220003
5.29121e-05
-0.000108646
-0.000164269
0.000418765
-0.000942986
-0.000668878
0.0011931
0.00110743
-0.000437663
-0.000251001
5.49531e-06
1.20026e-05
0.000868614
-0.000886112
0.00126218
0.0002584
-0.00085346
-0.000667119
-0.000406862
0.000559718
0.000690148
-0.000843004
-0.00137149
0.000960645
-0.00156591
0.00197676
0.000618599
-0.000272973
-0.000345626
-0.00104227
-2.93483e-05
0.000544573
0.000527045
-0.00535065
-0.0433851
0.00453462
0.000687157
-0.000231758
-0.000697949
0.000242551
0.00470269
-0.0513289
0.0279896
0.00389886
-0.0397517
0.00786321
0.00263054
-0.00558139
0.0142313
-0.0112804
0.00766395
-0.00575323
-0.00844385
0.00653312
-0.00363305
0.0144807
-0.00318373
-0.00114681
0.057312
-0.0571029
0.000937672
-0.004018
0.00698776
-0.00995377
0.00698402
0.00105954
7.70054e-05
0.000675531
0.0229198
0.00845742
-0.00290727
-0.0284699
-0.000908834
0.000569992
0.00139838
-0.0439046
0.00012026
0.0437843
-0.000471687
0.000304418
0.000972958
-0.000805689
-0.000257357
-0.0012566
0.00200756
-0.00117895
0.000227793
-0.0010564
0.000482319
0.00178719
0.00193499
-0.001746
0.00029332
-0.00184504
0.000925921
0.000889772
0.00024555
-0.000303404
0.000142452
0.00203809
0.000349735
-0.0001242
0.000881893
0.000245744
-0.00102431
0.0011283
-0.000571428
0.00219027
-0.00145999
-0.00248093
0.000525904
-0.000943337
0.00289837
-0.000155483
-0.000335751
0.000334035
0.000373381
-0.000371664
0.00334538
0.00134111
-0.00187979
-0.00280669
-0.000420958
0.000465036
-4.40779e-05
0.000406439
-0.0698911
0.0946939
4.60417e-05
-0.00042539
-4.16103e-05
-0.000173546
-2.03024e-05
0.000658885
-0.000565753
0.00051121
-0.000119003
-0.000429583
-9.0128e-05
-0.014217
0.0420742
-0.0210946
0.00170493
-0.000344404
-0.000959313
-0.000401216
-0.0739285
-0.00959012
0.0283518
0.0551668
-0.0012119
0.000195318
-0.000200931
0.00121751
0.000919289
-0.000831899
0.00170303
-0.00179042
-0.00104542
-0.000809897
0.00210474
-0.000249416
-0.0333848
-0.000375739
0.0339388
0.0231269
-0.0743896
0.0173238
0.000554021
-0.0361021
0.000323009
-0.0218671
0.00889188
-0.131465
0.0150777
-0.00909485
-0.000140359
0.00608928
0.00135141
-0.00730033
-0.0012954
0.000475247
0.000118911
0.000701241
0.00080212
0.00317061
-0.00214452
-0.00182821
-9.40368e-05
-0.000710247
0.000804284
0.00906347
-0.0174888
0.000339678
0.0080856
0.00561555
0.00360795
-0.0068055
0.00241914
-0.00168529
0.0272558
0.00241191
0.0740805
-0.0365771
-0.0399154
-0.00537261
-0.00791368
0.0033229
0.0099634
0.000800376
-0.00111122
-0.000818536
0.00112938
-0.000321699
0.00141888
-0.00241943
0.00132225
0.00525933
0.000615798
0.126859
0.0317549
-0.138192
-0.020422
-0.000268893
0.00143854
-0.00221508
-0.000204006
-0.0014008
0.00728727
-0.00568247
0.00170961
-0.000550428
0.000645642
-0.00180483
0.0101654
-0.00732641
0.000395211
-0.00323424
-0.00100859
-2.70297e-05
0.00106518
-2.95588e-05
0.0380739
0.0112624
-0.000575251
0.00264298
-0.00189807
-0.00016966
0.00120917
0.000815757
-0.00108312
-0.000941799
0.00231259
-0.00411603
0.00195317
-0.000149726
0.000284957
0.0021875
-0.0019281
-0.00054436
7.99158e-05
0.000703623
-0.000560954
-0.000222585
0.00250964
-0.000154252
-0.000431702
-0.000733495
-0.00144237
0.00260756
-0.000355719
-0.000672851
6.84883e-05
0.000960082
-6.53301e-05
-0.000375932
0.00041134
0.00140059
0.0042598
-0.0025341
-0.00104056
-0.00432269
0.00581848
-0.000455228
0.00212479
0.0036368
-0.00203552
-0.00372606
-0.000191466
0.00119874
-0.000475923
-0.000531353
0.00195216
0.00566594
-0.00694016
-0.000677937
-0.000635409
0.000583211
0.00021577
-0.000163572
0.00219987
0.000456467
-0.00993611
0.00727977
0.000528732
0.00129809
-0.00128625
-0.000540569
0.012417
0.00219999
-0.00845508
-0.00616188
-0.00257969
0.0105181
0.0149814
0.0525831
5.22134e-05
0.0736762
-0.00114585
-0.00228374
-0.00294433
0.00371335
0.00151473
-0.000955388
0.00136756
0.00168872
-0.00210089
0.0522716
0.00887223
-0.00495978
0.00231862
0.00181563
-0.0026046
-0.00152966
-0.0528843
-0.091913
0.101412
-0.00164069
0.00121297
-0.0122017
0.0126294
-5.18653e-05
-0.000339808
0.00151589
-0.00112422
-0.0032035
0.0032816
-0.0119993
0.00641572
0.000367582
2.46624e-05
-0.000178476
-0.000213768
0.000424099
-5.65167e-05
-1.29102e-06
-0.000513168
8.22936e-05
-0.000313381
-0.000175124
-0.0545648
0.0265751
-0.0553103
-0.0129456
0.0111938
-0.04544
0.0471918
2.14066e-05
-0.000192072
0.000170665
-0.000325932
6.05946e-05
0.000286744
-0.000399014
0.000742536
0.000124299
-0.000467822
0.000443468
0.00149189
-0.00269351
0.000758158
9.20936e-05
0.000144596
-0.000546679
0.000309989
-0.000186937
-0.000212077
-0.0170287
0.0141517
0.0155219
-0.0126448
-0.000270099
0.000112513
0.00317939
0.00183515
-0.00267306
-0.00234148
-0.0107746
-0.00579667
0.00784901
0.00872226
-0.000407939
0.001457
-0.00261484
0.00156578
0.00684467
-0.000209811
0.000311059
0.000615626
-0.00538245
0.00538262
-0.000626299
0.000245166
-0.000270779
-0.000423297
-0.000203002
0.00187869
0.000957288
-0.00239251
0.00339084
-0.000433719
0.000355746
-0.00331287
-0.00154371
-0.000537152
0.00116826
0.000912601
0.000521693
7.62476e-05
0.000171282
-0.000769223
-0.0346059
0.000669607
0.00385301
0.0300833
-0.0173251
-0.0103463
0.0151628
0.0125085
0.0130488
0.0140134
-0.00967481
-0.0173874
-0.0028051
-0.00163865
0.00322738
0.00121638
0.000472535
-1.06911e-05
5.98494e-05
-0.00462549
-0.012525
0.0255028
-0.00835233
0.00146733
0.000756091
-0.00117175
0.00179707
0.00308566
0.0106231
-0.00047205
0.00025432
-0.0104054
0.000248113
0.000511301
0.00161918
-0.00237859
-0.0166352
0.0214234
0.00641981
-0.0112079
0.00455169
-0.000517307
0.000186222
-0.00422061
-0.05428
-0.0193491
0.0740355
-0.000556279
0.000345493
-0.00014204
-0.000880372
0.00143899
-0.00265475
0.00209613
0.0517813
-0.0451912
-0.00376481
-0.00282528
0.105107
-0.0456876
-0.0317062
0.0346694
-0.00379894
-0.0100138
-0.0208567
0.000454765
0.000331043
0.00283538
-0.00362119
0.00255294
-0.00353658
4.01018e-06
0.000979632
0.00233867
-0.00739028
-0.000530343
0.00558195
-0.00355905
0.0157159
-0.00891989
-0.00323697
-0.000730916
2.25055e-05
0.000122936
0.000585474
-0.000713412
-0.00071788
0.0170251
-0.0264441
-0.000734766
0.00286996
-0.00207571
-5.94863e-05
-0.000458249
0.000528689
-7.04393e-05
0.002797
-0.00297616
0.000769916
0.000244345
-0.000626255
0.00038191
0.00212997
-0.0032733
-0.00510512
0.00624846
-0.00232318
0.00293881
-0.000102086
-0.000867992
0.000695451
0.000274627
-0.00592606
-0.0015022
0.0101367
-0.00270839
0.00704527
-0.00338362
-0.00248615
-0.0011755
-0.0168186
-0.0111972
0.021446
0.00656987
-0.00495324
-0.00723602
0.0201286
-0.00793933
-0.0020362
0.00180778
0.00148191
-0.00125349
0.00351615
-0.00290802
0.00315356
0.00397675
-0.0613188
0.0340357
0.0233064
-0.000902729
0.00480633
-0.00166505
-0.00223854
-0.00051863
-0.000242274
0.000760904
-4.27804e-06
-0.000514352
-0.0317214
-0.0116337
0.0162168
0.0271383
-0.00395612
0.00236382
-0.0157893
0.0173816
-0.00282741
0.000758564
0.00194838
0.000120472
0.00419501
0.000129516
-0.00114513
-0.00510026
0.0303975
-0.00502642
-0.0202709
0.0019912
-0.000929781
0.00170835
-0.00276977
-0.000136332
-0.000339527
0.022331
-0.0335776
-0.0204749
0.000691604
-0.000171745
-0.000130372
-0.000389488
0.00271705
0.00238829
-0.00175996
-0.00144493
-0.00340038
0.0062771
-0.00143178
0.0224909
-0.0326387
0.0139143
-0.00376654
-0.00511166
0.000954995
0.00649534
0.0148815
-0.0166352
0.00381329
-0.00205963
0.00126392
-0.0102406
-0.00179788
0.00169521
0.00119522
-0.00101174
-0.000145966
-0.00315114
0.00513225
-0.0515647
-0.00797964
0.0228807
0.0366637
-1.68624e-05
-0.0438877
-0.00137918
-0.000153299
0.00172568
-0.000193203
-0.000837681
0.00299418
-0.000153341
-0.00200316
0.000386347
-2.42858e-05
-0.000282145
-0.000581409
0.000593373
-0.00128853
0.00127656
-0.0015621
-0.00087809
0.00396638
-0.0015262
-0.00145786
0.000514305
-0.000369564
0.00131311
-0.00026124
-0.000130184
0.00264974
-0.00225832
0.00628388
0.00012707
0.0013644
-0.00246361
-0.00125338
0.00235259
-0.000598763
0.000161868
-0.000365809
0.000802705
-0.00123118
-0.00114721
0.00314884
-0.000770448
0.000524859
0.00025147
-0.00069943
-7.68984e-05
-0.00581599
-0.00803167
0.00889442
-0.000783913
-9.73394e-05
0.00119975
-0.000318494
0.02932
-0.034149
0.00388629
0.000801567
-0.00224852
-0.00073391
0.00218086
0.00063754
0.00162539
0.00105229
-0.00331522
0.00442768
-0.00477576
-0.000457754
0.000805834
-0.00105925
-0.000182561
0.00102271
0.0544354
-0.00295259
-0.000921212
0.00114175
0.000135246
-0.000355788
0.000394475
-0.000160045
-0.000234431
-0.0111605
-0.00247949
0.123856
-0.110216
-0.0119456
0.0105035
0.00166338
-0.000221339
0.00223678
-0.00262618
-0.00176702
0.00215643
-0.000759183
0.000274754
0.000862315
-0.000377886
-0.000514838
0.000719099
0.000937357
4.84784e-05
0.000985548
0.000529888
-0.000477764
-0.00103767
-0.000267332
0.000468967
0.000388355
-0.00120469
0.000138688
0.000677645
0.00839442
0.00395734
-0.00622832
0.0121018
-0.00117771
-0.00387878
0.0475827
0.0156267
-0.0566203
-0.00658918
-0.000132401
0.052404
-0.00753605
-0.0451825
-0.0494865
0.0478288
-0.00404209
-0.0349145
-0.0518092
-0.00107511
0.0387605
-0.0287794
-0.00805098
-0.00193006
0.00290369
0.000481897
-0.00355643
-0.0167603
0.0256806
-0.0152743
0.00635406
0.0033819
-0.00283793
-0.00514587
0.004781
0.0019564
0.000375714
0.00453387
0.000151355
0.00259008
-0.00236572
-0.00295049
-0.000416299
-0.00177908
0.00660136
-0.00277955
0.000835495
0.000166973
-0.00118817
0.000185702
0.000145698
0.0049678
-0.00173159
0.00140551
-0.00288522
0.0023152
-0.000127926
-6.41455e-05
-0.000215252
-0.000217483
-5.12175e-05
0.000483953
0.00676041
-0.00539098
0.000586967
0.00622379
0.00272531
-0.00218869
0.000523176
-0.002142
0.00784261
0.000227236
-0.0001717
0.00134997
-0.00146856
0.00229821
0.000829171
-0.00165882
-0.00836127
0.00676304
0.00605039
-0.00445216
0.00289484
-0.00350707
-0.00240997
0.00302221
-0.00116238
0.00420291
-0.00158385
0.00586047
0.000691181
-0.00337883
0.000838307
-0.000344694
0.000129809
0.000141453
-4.40266e-05
-0.00271119
-0.00362198
0.00236973
-0.000331608
-0.000904548
0.000856269
0.000259492
-0.000112051
-0.00105199
-0.000819702
0.000657153
-0.000422277
-0.00374195
0.00364514
-0.00147136
0.000623898
-0.00237908
1.30965e-05
-0.00101284
-0.00265068
0.00334658
0.000142409
-0.00189188
-0.000428404
0.0031224
0.000616873
0.00116511
-0.00419195
0.00543888
-0.00511984
-0.00110972
-0.000684631
-0.000584737
0.010433
-0.000944674
-0.00506239
0.00894446
-0.00769214
0.00381006
-0.00985755
0.00744261
-0.00480817
-0.00373208
0.0145906
-0.00950657
-0.00172572
-0.000889786
-0.0012091
0.0110433
-0.00238204
-0.00307357
-0.00165104
0.00258261
7.90754e-05
-0.00534134
0.00192404
-0.00177357
0.00834079
-0.00178796
0.000227566
-0.00166908
0.00126981
-0.099062
0.0950816
0.00277191
-0.00516585
0.00783282
0.00220524
-0.00305692
0.000375954
-0.0994379
-0.000849018
0.00295944
-0.00108964
-0.00573376
-0.000281222
0.00156282
0.00760744
-0.00181332
-0.000839674
-0.0132567
0.00887716
-0.00601908
0.0103987
0.000230501
-0.000579956
-5.76034e-05
0.000407059
-0.000357375
4.94208e-05
0.000538455
0.000414028
-0.000541954
-7.81139e-06
0.000352291
0.000844416
-0.00119671
-0.0015128
0.000755377
-0.000219991
0.00042025
0.000822018
-0.000662233
0.000478222
0.000647822
-0.000452379
-0.000673666
-0.000837695
-0.000337378
-0.000142769
0.000184778
-0.000587198
0.000148695
-0.00223741
0.00137566
0.00186791
-0.00100616
-0.00212099
0.00183278
0.0006903
-0.000402097
-0.000529437
-0.00141366
-0.000177891
-0.00252083
-0.000246018
1.6593e-05
0.00319185
-0.00131384
0.00179952
0.00188902
-0.00237469
0.00251216
-0.00392329
9.7286e-05
0.00156835
0.00440101
-0.0034572
0.00493574
-0.00156787
8.69185e-06
0.00356452
-0.00403547
0.00120797
-0.000737026
-0.000321704
0.00512741
-0.00124118
-0.000912656
-0.00151198
0.00199293
-0.00168253
-0.000531865
0.00130174
-0.00105729
-0.00106364
0.000608958
-0.000325549
-0.00241427
-0.00366426
0.00392234
-0.00161541
0.00135733
0.00102481
0.00213254
0.00032269
-0.00348005
0.00284145
0.000594109
-0.000361773
-5.55541e-05
0.000910726
-0.000493399
-0.000284677
0.00027491
-4.22264e-06
1.39894e-05
-0.000308489
0.00188245
-0.000317502
-0.000327205
-0.00127668
0.000180124
0.000607421
-0.00225891
0.0016652
-0.00211921
0.00161164
-0.00115763
0.000708357
-0.00156566
-0.000765191
0.0016225
0.000105955
0.00313151
-0.00102293
-0.00221454
0.00258726
-0.00177295
-0.000723761
0.00218704
-2.51763e-05
-0.00143811
0.00216898
-0.00300299
0.000256845
0.000577165
0.0015308
0.00117622
-0.00053804
-0.00306416
-0.000565918
0.00381071
-0.000180636
0.00204299
-0.00150701
-0.000265263
-0.00027071
0.000679981
-0.000439743
-0.00214017
0.00189994
-0.00128824
0.003174
0.000175054
-0.00206082
-0.000674082
-0.00160991
0.0015505
0.00190585
-0.000599039
-0.00124247
-6.434e-05
0.00352837
-0.00124564
0.00311888
0.0010857
-0.000676218
-0.00513577
0.000272378
-0.00196778
-0.00246418
0.00172321
0.00270875
0.00216564
-0.00065231
-0.00348111
-0.0014516
0.00046594
-0.00188836
0.00287402
-0.00193315
-0.00118265
0.00166419
-0.000716007
0.00197199
0.000909652
-0.00651574
0.00318241
0.000123061
0.00321027
-0.0019646
-0.00103499
0.00320916
-0.00652101
0.00728921
-0.00397736
0.0348575
-0.000689428
-0.0124375
0.017805
-0.012422
0.0117214
-0.0255338
0.00691053
0.00690189
-0.00105538
-0.0106778
0.0268555
-0.0151223
0.0179566
-0.0225146
0.0220802
-0.0175222
-0.0138837
-0.0189232
-0.0114823
0.0442892
0.0338006
-0.0244422
-0.0493141
0.0399556
-0.0279279
-0.0232296
0.0849581
-0.0287012
0.0134796
-0.0127063
-0.0298839
0.0343794
-0.0183792
0.037349
-0.0320533
0.0124552
-0.0177509
0.0422098
-0.0263771
0.0209143
-0.036747
-0.00893228
-0.00694024
0.0580823
0.00220502
0.038329
-0.0591357
0.0186016
0.0391762
-0.0552753
0.0183041
0.00131039
-0.000619224
0.00223195
-0.00292312
0.00320947
-0.000228246
-0.00167083
0.000742908
-0.00276762
9.15637e-05
0.000451696
-0.000789479
0.000337782
0.000696194
-0.000244498
0.000485658
-0.000324964
0.0005355
0.00358914
0.0015125
-0.0025487
-0.00250224
0.00112222
0.00246174
-0.00108172
0.000708889
0.000378006
0.00157387
-0.000591436
0.000852133
-0.00183456
-0.000802471
-0.000692236
0.00181908
-0.000324378
-0.00126183
0.00231898
-0.00185962
-0.0151476
0.00688606
-0.00732069
0.000237487
-0.00806444
0.0153532
0.00386821
-0.0159949
-0.00322647
-0.00945625
-0.0101972
-0.0112391
-0.0124811
0.0339175
0.0152824
-0.036625
0.00155556
0.019787
0.0012957
-8.63353e-05
0.00147849
-0.00268785
-0.00221627
0.00142914
0.00208283
-0.000392002
-0.00147892
0.00112881
0.000742114
-0.000662442
-0.00151299
0.0023882
-0.000212769
-0.000927825
-0.00180278
0.00170226
0.000588844
-0.00201736
-0.00111226
0.00175537
0.00137425
0.000545034
-0.000157004
-0.00189504
-0.000869534
-0.00139499
0.000247166
-0.000429578
-0.00108578
0.00101326
0.000502096
-0.000188288
-0.0102568
0.0109584
-0.000513394
-0.0102801
-0.00027405
0.0103659
-0.00109453
-0.00758144
-0.00160417
-0.00260012
-0.00875118
0.00600978
-0.00394701
0.00889567
0.000595821
0.000236344
0.000749289
-0.00158145
-0.0015465
0.000212309
0.00187922
0.00246647
0.0029386
-0.00411585
-0.00128923
-0.00111623
-0.000721895
0.00120131
0.000636815
0.00148716
0.00216258
-0.000985509
0.00144149
0.00187341
-0.00291306
-0.000401844
0.00357559
0.000662906
-0.000104209
-0.00091673
-0.000462612
0.00148355
0.00103881
-0.000810722
-0.000332295
0.00102724
-9.4288e-05
0.000105858
-0.000448515
-0.000553673
0.000891483
-0.000956334
-0.000383664
-0.000960098
0.000934852
-0.000835372
0.00132142
0.000541192
0.00133649
-0.000222604
0.00118627
0.00067438
-0.00117112
7.36746e-05
0.000169437
0.000928008
-0.00125812
0.000801936
0.000336261
-4.68702e-05
0.00115939
-0.00292065
0.00350531
-0.0010544
0.000469744
-0.0052466
0.00723786
-0.00679943
0.00207962
-0.00163159
2.08356e-05
4.50861e-05
-0.000335199
-0.00568719
0.00326058
0.00276181
-0.000241606
-0.000355901
-0.000656495
0.001254
-0.00365489
0.0108142
7.85825e-05
0.00242438
-0.00189266
0.000425571
-0.000800707
0.00112731
0.00422509
0.0032755
0.000479114
0.000897616
0.000954906
0.00101248
-0.00268929
0.000423861
0.000344417
-0.000768277
-8.11827e-05
0.000700398
-0.000133556
-0.000847294
0.000819047
-0.000327472
0.00131293
0.00215998
-0.00137573
-0.00209718
0.00169603
-0.00122995
-0.000824232
0.000358151
0.00176665
-0.000546073
-0.00122058
-0.0549123
-0.0449913
0.0165924
0.0238807
-0.0101898
0.0011906
-0.00238307
0.000118637
0.0003768
0.00188764
-0.00704838
-0.00406002
-0.040249
0.0400526
-0.00685197
0.000769631
0.00103276
-0.00275778
-0.000247083
0.000411666
-0.00022738
6.2797e-05
0.00389743
0.00910257
-0.0065417
-0.00645829
0.00244526
-0.00387889
0.00029042
0.00114321
-0.00100437
0.000130004
0.000416121
-0.00241438
0.000971943
0.00117355
-0.000350903
0.0013066
-0.00183607
-5.82734e-05
9.32139e-05
0.00117308
-0.00120802
0.00041469
0.000764676
-0.000254285
-0.000925081
0.0302234
-0.0242502
0.000329405
-0.000127786
1.83831e-05
0.00442589
-0.00285893
0.0185616
0.00268698
0.0313455
-0.0340325
-0.0063567
0.0206569
-0.0105164
0.000192286
0.00250216
-0.00234701
-0.000347439
-0.00145975
0.00453158
-0.00224503
-0.000826806
0.0025836
-0.0019754
0.00126521
0.000653742
0.000133203
0.00755385
3.22945e-05
0.000342245
7.03467e-05
-0.000444886
-0.000355052
0.000715385
-0.000441515
-0.0526858
-0.00014138
0.0528272
0.00767254
-0.000419111
0.00157211
-0.00882554
0.00215799
0.00140122
-0.00120866
-0.00235056
-0.000386933
7.241e-05
0.00893039
0.0021455
-0.00789349
0.00239416
-0.00175987
-0.000792856
-0.000154011
0.000946868
0.00121048
0.000112648
-0.00423116
-0.002804
0.00600443
0.000193781
0.000308192
0.000487185
-0.000446044
-0.000349333
0.000769721
-0.000760284
0.000101857
-0.000111293
0.00134955
-0.00234647
0.000377691
-0.0816022
-0.00795972
0.0676949
-0.0490004
-0.0186668
0.00096897
0.0666982
-0.00117553
0.0016547
-0.00192528
0.00144612
0.000777652
-0.00117274
0.000283041
0.00345617
8.42624e-05
-0.00282496
-0.000715473
0.00141992
0.000525411
0.000730397
0.00183574
-0.00301214
0.00155361
-0.000377216
-0.00445042
-0.0210833
-0.0144344
0.0253204
0.00169652
0.012115
-0.00877606
-0.00503548
-0.00156217
-0.00599121
0.00634428
-0.00070045
-0.00143344
0.00235655
-0.000222668
-2.32717e-05
5.37444e-05
2.36836e-05
-5.41563e-05
0.000382578
-0.000324171
0.00683349
0.000110158
-0.00858434
5.14816e-05
-9.11928e-05
-6.89351e-05
-0.011089
-0.00121689
0.0112971
0.0010088
-0.00538911
-0.00899603
0.00329612
-0.00464942
-0.00540569
0.0114243
-0.00136918
-3.69278e-05
-0.000145633
0.00371862
0.000584808
-0.000429343
-0.00387409
0.00016729
-8.11008e-05
-0.000495833
0.000409643
-0.00532447
0.00913752
-0.00846247
0.00485366
0.0585697
-0.0383356
-0.0250878
0.00194031
0.000847836
0.0075353
-0.0103235
0.0163179
0.00545013
-0.0112215
-0.0105465
-0.00285852
0.00348581
-0.00829509
0.00766779
0.0641161
0.00641564
-0.0313555
8.11152e-05
-0.0132809
-0.00446501
0.0206637
-0.0549991
0.0841946
0.049864
0.000189542
-0.071186
-0.00452086
-0.00108429
0.00386806
0.0017371
-0.00039977
-0.00372598
-0.00118773
0.00531347
-0.00203238
0.00178653
0.000577457
-0.000331608
-0.00153215
-0.00909332
-0.000300574
0.000568537
-0.00063933
0.000371367
0.063484
0.00688653
-0.0760424
0.00567187
0.0201818
0.0334105
0.00574398
-0.0593363
0.000316693
-0.000411738
0.000735142
-0.000640097
-0.00275292
0.00684852
-0.00526194
0.00116634
-7.97362e-05
0.000657251
-0.000376534
-0.000200981
0.00659424
-0.00762243
-0.0026267
0.00148672
0.0014011
-0.00122262
0.0013484
0.00148373
-0.00421654
0.00138441
-0.00539204
0.00375989
6.99865e-05
-0.000664771
0.000909653
0.00110467
0.00263356
-0.000174503
0.00159342
-0.00405248
-0.000790524
-0.000184437
0.000386787
0.000588174
0.000303271
0.000408712
-0.00063366
-0.0001419
0.00134729
-0.000571734
0.00247327
0.00188501
-0.00259751
-0.00176077
0.000235217
-0.000767362
0.000616659
-8.4514e-05
-0.00177458
0.0010979
-0.00145137
0.00095706
-0.000676806
-0.00174768
0.00243975
-0.00168533
0.000993265
0.000667282
-0.00174671
0.000414652
0.00234494
0.00171368
-0.00270865
-0.00734301
-0.000860002
0.0142227
-0.00601966
-0.000231992
8.12233e-05
0.00042642
-0.000275652
-0.00158571
-0.00271654
0.00226987
-0.000109265
0.000261172
-0.000509348
0.000357441
-0.000531215
-0.000512393
8.35093e-05
-0.0001367
0.000529914
-0.000748266
-0.000983122
-0.000919938
-0.000219011
0.00212207
0.000106473
0.00175703
0.00107767
0.000647732
-0.00100281
-0.000722592
0.000175156
-0.00216662
0.00212386
-0.0025427
-0.000445052
0.000863892
0.00823911
-0.00217176
-0.00105431
-0.00501305
0.000402558
-0.00139904
0.000389663
0.000606819
0.00177898
0.000228873
-0.00102428
-0.000983581
0.00275148
-0.0023143
0.00127052
-0.00142891
0.00292843
-0.00148293
0.000464443
0.000118424
-0.000570865
-0.0027346
-0.00120607
0.00327822
-0.000607203
0.00174941
-0.00114221
0.00421152
1.22766e-05
-0.0017535
-0.0024703
-0.00021602
-0.000813916
0.00349641
0.000308529
-0.00029384
-0.000457485
0.000442796
0.00139731
-0.000500864
-0.000628449
-0.000267995
-0.000217816
0.00392184
-0.00158209
-0.00212194
0.000463757
3.31829e-05
-0.000487783
-0.000404494
0.000625105
-0.000268831
4.82207e-05
0.000733862
-0.000174263
0.00051807
0.00174009
0.00178768
0.000214119
-0.00374189
0.00104433
0.00234519
2.79629e-05
0.00122383
-0.000560192
-0.000213184
-0.000624158
-0.00100917
0.00184651
0.00831635
-0.00538758
-0.00568169
0.000675136
-0.00011936
-0.000882981
-0.00174252
0.00130377
9.19018e-05
0.000346855
0.0015736
-0.00189973
0.000399804
-0.0136904
0.00469645
0.00837456
0.000619392
-0.00307201
0.00173648
0.00139265
-5.71215e-05
-0.00240458
0.00347921
-0.000815546
-0.000259085
0.000287348
-9.66852e-05
-0.00067511
0.000484448
-0.00171231
0.00368726
-0.0034347
0.00477176
-0.00173988
0.0108638
-0.00187061
-0.00725329
0.00355937
-0.00561522
0.00961229
-0.00755644
0.0015126
-0.00422828
0.000541537
0.00217414
0.00077315
-0.00137167
0.000555889
4.26347e-05
-0.0011349
0.000332448
-0.00074125
0.000209284
0.000405311
-0.00102146
-0.000467522
0.00145245
-0.000956962
0.000327302
-0.000441004
0.000145996
-0.00114516
-0.00153047
0.000338606
0.00060974
0.000582125
-0.000258079
0.000242548
-0.000109592
0.000169014
0.00293228
-0.0300011
0.048864
0.0355725
-0.0048296
0.00191941
-0.000257515
0.00316771
-0.00546454
0.00533026
0.000692043
0.0140704
0.00285802
-0.0100949
-0.0060382
0.00987274
-0.00675625
0.00292171
-0.000257718
0.000665054
-0.000407336
0.000185914
0.00133742
0.00125249
-0.00277583
-0.0015203
0.00143112
0.0016978
-0.00160862
0.0137495
-0.0411286
0.0253839
0.00199512
-0.00101897
0.00105761
-3.86364e-05
-0.00376087
0.00112143
-0.00916536
-0.0330268
0.0370919
0.00774041
-0.0080076
-0.000949704
0.00795149
0.0403971
-0.0483486
0.000709223
0.0015333
-0.00169872
-0.000543805
0.00145311
0.00134349
-0.000314983
-0.00248162
0.00296361
0.00025196
-0.00163823
-0.00157734
-0.00430452
-0.0113239
0.000518589
0.0151098
-0.00723089
-0.00468895
0.00599379
-0.0106342
0.00532207
0.00559645
-0.000284347
0.0132029
-0.0042101
-0.0107327
-0.0011881
0.00424732
-0.00174629
-0.00167175
0.000904854
-0.00434477
0.00391884
-0.00030009
-0.0055847
0.00196595
0.0175717
-0.00723145
-0.00226324
0.000496777
-0.00113404
0.00160844
-0.000971176
-0.00021624
-0.000827297
0.000135501
0.000908036
0.00177695
-0.000331759
0.000526137
0.000207265
0.00101093
-0.00270504
0.0010058
0.0017233
-2.40556e-05
-0.000993135
0.00153914
-0.00178854
0.00124253
0.00085642
0.000110883
0.00145708
0.000921155
-0.00182837
7.53199e-05
-0.000787475
-0.00317328
0.00369952
0.00227842
0.00131293
-0.00111808
-0.000209269
3.80636e-05
-9.99194e-05
-0.075922
-0.039971
0.0797141
0.0361789
0.0454966
-0.0375452
-0.000245487
-0.000719255
0.00125556
-0.00029082
0.000628452
0.00120037
-0.000565136
-0.00126369
-0.00198236
0.000961876
0.000669578
-0.011178
-0.0480183
0.00428399
0.00180384
0.00138289
-0.00359467
0.00381242
0.0439178
0.00405109
-0.00378393
-0.000462171
-0.00330396
0.00755007
-0.0395999
0.0447339
-0.0326288
0.0274948
-0.000529782
0.000557492
-5.92829e-06
-2.17821e-05
-6.91891e-05
0.000106168
0.000392649
-0.000429628
0.000449684
-0.00102559
0.000831427
-0.000255524
0.00276904
0.00320897
-0.00954639
0.00356837
0.000195336
-0.00134178
-0.00156215
-0.00024425
0.00058201
0.00122439
-0.0034125
0.00209426
-0.000187008
-0.000219781
0.000156988
0.000249801
0.00770118
6.48661e-06
0.000222009
-0.000567008
0.000344999
-0.00314943
-0.018797
-0.0234683
0.0454147
-0.00147546
0.00214542
0.000685312
-0.00135528
-0.000871797
-0.000201104
0.000938679
0.000134222
0.000800547
-0.000769671
0.00145356
-0.00196183
-0.00090538
7.83666e-05
0.000485678
-0.00062164
0.000236525
0.000385115
-0.000476953
0.000438627
0.000225438
-0.000187112
-9.97834e-06
-2.06027e-05
0.00164781
0.000254981
0.0001677
0.000181921
-0.000604602
-0.00181687
0.00130269
0.00222379
-0.00287512
-0.000174167
-0.000322137
0.00337142
-0.000284458
0.000168415
0.000474736
-0.000358694
-0.00290648
0.00981414
0.00271404
0.000808009
-0.000209184
-0.00331287
0.00152688
0.0004075
0.000386278
-0.00232066
-0.00124682
0.00180072
3.94741e-05
-9.91351e-05
-0.00178035
0.00127228
0.00215681
-0.00225854
0.00241432
-0.00127482
-0.00401585
0.0025546
0.00273606
0.00119902
-0.00171629
0.000195566
-0.000331786
0.000340434
0.00180263
-0.00181128
-0.0474367
0.00108322
0.0463534
0.0377863
-0.0769647
0.0141264
0.0250519
0.108123
-0.00499031
0.0197504
-0.0331722
-0.000411794
0.0360032
-0.00802135
-0.006772
-0.0560611
-0.0984594
0.0496684
0.017417
-0.045664
-0.00635894
0.0010254
0.0281684
-0.0308791
-0.0490026
-0.0279926
0.0580791
0.018916
0.00244541
7.86746e-05
-0.0010943
0.00101521
0.0025245
-0.00592006
-0.0100941
0.0124551
-0.00199282
0.00347841
0.00200343
-0.00348901
0.0464359
-0.044763
0.0137054
0.0740049
-0.0429472
0.0474024
-0.0475621
-0.0964078
0.0965675
-0.00768983
-0.0430579
0.0418154
-0.0542673
-0.0351199
0.0942408
-0.00242586
0.000187312
0.00648626
-0.000984925
0.00272478
0.00205626
-0.00379612
0.0254388
0.0337899
-0.0454791
-0.0180671
0.0128748
0.00447734
0.000714946
-0.00201039
-0.0108955
-0.0257574
0.0412181
-0.00441385
-0.0110469
-0.0442729
-0.0655725
0.00614447
-0.00171819
0.0500442
-0.0143018
-0.0340242
9.38513e-06
0.0996596
-0.099669
-0.00330923
-0.00934841
-0.000249703
1.84281e-05
-2.80677e-05
-0.010123
0.0214846
0.0385485
-0.0319897
0.0281106
-0.00725022
-0.0402817
0.00213757
-0.0045045
-0.00375495
0.00612188
-0.00036163
-0.00100596
0.00148764
-0.000182292
-0.00130526
0.00190401
-0.00352602
0.00374587
0.000695728
0.000486289
-0.00095858
-0.000223437
-0.000234457
0.000185334
0.00127435
-0.00122523
0.00017829
-0.00118266
-1.29106e-05
0.000532057
-0.00136644
-0.000434948
0.000614238
0.000176545
-0.000355836
9.80389e-05
0.0002439
4.44079e-05
0.0012204
-0.000594782
-0.000454628
-0.000170991
-0.000110412
-0.000272034
-0.000431203
0.000813649
-0.0112361
-0.00271117
0.0208333
0.00148674
-0.0019841
-0.00086314
-0.00266678
0.00206338
0.00146654
0.000613241
-0.000829529
-0.000313495
-0.000662082
-2.00151e-05
0.00117887
-0.000467466
0.000173021
0.000294444
6.11189e-05
-0.000668565
3.21952e-05
0.00248272
0.000834129
-0.000703742
-0.00261311
-0.0010399
0.000354142
-0.000296145
0.000637667
0.00027172
0.00020717
-0.000189883
0.00211622
-0.000204639
-0.00120236
-0.00207874
-0.000123151
4.74372e-05
-0.000581512
0.000657225
-0.000856197
-0.00117348
-0.00159682
0.00228413
-0.000216224
0.00159581
-0.00125958
-0.00012
-0.000498409
0.000385736
-0.000755003
0.000867676
0.000464299
-0.000319985
-0.000284842
0.000140528
0.00258024
0.0444479
-0.0599737
-0.0084922
0.0112989
-0.014774
0.0119673
-0.031992
-0.0355605
-0.00215993
-0.0251014
-0.00823123
-0.0405959
-0.00662832
0.00349291
-0.000648529
-0.0716254
-0.00109519
0.000223639
-0.000281865
0.00115341
0.053608
0.00256818
-0.0561762
0.00350803
-0.00194852
-0.00370122
0.00214172
-0.0679062
-0.0490294
0.0541867
0.0627489
-0.00880881
0.00246697
0.000303643
0.000463578
-0.0158456
0.0288221
-0.0134401
-0.000280794
-0.000743679
0.00102447
0.0758629
-0.0737676
0.0277859
0.0025394
-0.0281889
-0.00213638
0.00115794
-0.00275772
0.000424247
-0.00149775
-0.000187608
-0.000433853
-0.0309667
-0.0584691
0.079405
0.0100308
-0.000872498
-0.00754207
0.0104426
-0.00202804
0.000808748
0.00387296
-0.000943037
-0.00160824
-0.000361788
0.000801548
-0.000233086
0.000150637
0.00106016
-0.00109389
-0.000812
0.000845731
-0.00327987
0.00147059
-0.0159399
0.00895589
0.00626613
-0.010875
-0.000766574
0.0112095
-0.00283985
0.00132467
0.00228481
-0.0634491
0.0195883
0.0138597
0.00227106
-0.000513206
0.00174995
-0.0035078
0.00226872
0.00220526
-0.0032285
-0.000770083
0.00171165
-0.00164202
-4.85058e-05
-2.60577e-06
5.11116e-05
0.00360153
0.00367345
-0.000859259
0.00811107
-0.010255
0.0096176
-0.00747366
0.00433921
-0.00221911
-5.38933e-05
-0.0020662
0.000384955
0.000142755
-0.000413285
-0.000114426
0.000430357
-0.000270971
-0.000162378
2.99274e-06
-0.000850387
-8.07768e-06
-0.0020137
0.00287217
-0.00225237
0.00223969
0.00146968
-0.00349373
-0.00461426
0.00208841
0.00601958
-0.000763078
0.00127156
0.00749531
-0.00800379
0.000617477
-0.00019749
-0.000530399
-0.00024452
-0.000363588
0.000279458
-0.000610474
0.000252178
-0.000154847
0.000513143
0.00350403
-0.00156958
-0.00206464
-0.00211536
5.97494e-05
0.0026804
-0.0094301
-0.00240933
0.00915903
-0.00140816
-0.00129093
-0.000128329
-0.0637253