/*--------------------------------*- C++ -*----------------------------------*\
| =========                 |                                                 |
| \\      /  F ield         | OpenFOAM: The Open Source CFD Toolbox           |
|  \\    /   O peration     | Version:  2506                                  |
|   \\  /    A nd           | Website:  www.openfoam.com                      |
|    \\/     M anipulation  |                                                 |
\*---------------------------------------------------------------------------*/
FoamFile
{
    version     2.0;
    format      ascii;
    arch        "LSB;label=32;scalar=64";
    class       volScalarField;
    location    "0.0321319";
    object      k;
}
// * * * * * * * * * * * * * * * * * * * * * * * * * * * * * * * * * * * * * //

dimensions      [0 2 -2 0 0 0 0];

internalField   nonuniform List<scalar> 
3946
(
0.344785
0.37102
0.343369
0.344473
0.381103
0.391453
0.381065
0.343516
0.387675
0.343937
0.343511
0.342009
0.534248
0.392856
0.378034
0.342629
0.337486
0.343166
0.34253
0.34496
0.364877
0.341684
0.353055
0.37155
0.36201
0.354602
0.38215
0.379782
0.340997
0.341943
0.34711
0.339031
0.332425
0.340796
0.377392
0.342905
0.381663
0.374029
0.375004
0.367818
0.341526
0.340346
0.36451
0.349612
0.372544
0.346389
0.343029
0.373848
0.371992
0.346675
0.346204
0.371986
0.343392
0.343589
0.347895
0.34834
0.340413
0.347274
0.374357
0.349168
0.347241
0.318188
0.343879
0.352373
0.347933
0.289185
0.387408
0.218859
0.248546
0.385699
0.346081
0.381181
0.656611
0.34054
0.392989
0.338977
0.342616
0.355885
0.344071
0.362992
0.324622
0.356189
0.34393
0.37831
0.361644
0.47784
0.543298
0.272378
0.291657
0.25699
0.963934
0.556547
0.345642
0.385891
0.409537
0.392049
0.388686
0.357245
0.348347
0.339602
0.364121
0.372499
0.370381
1.10087
0.380551
0.385897
0.781327
0.353673
0.372146
0.39553
0.410236
0.373485
0.341357
0.412665
0.393676
0.347115
0.430209
0.341654
0.29615
0.341406
0.375612
0.357543
0.344393
0.400884
0.342226
0.347143
0.923124
0.416586
0.380074
0.345394
0.372513
0.821739
0.345417
0.351826
0.364997
0.706694
0.372444
0.715618
0.34341
0.992756
0.553381
0.784152
0.450649
0.343973
0.389786
0.369756
0.357297
0.347552
0.371966
0.354288
0.381476
0.40213
0.382379
0.345282
0.36019
0.345707
0.343069
0.345188
0.339129
0.358492
0.343585
0.352867
0.58031
0.366212
0.343985
0.356555
0.346394
0.375285
0.370902
1.61701
0.384484
0.696269
0.355261
0.383965
0.345179
0.339016
0.355102
0.349132
0.382356
0.383094
0.347085
0.345299
0.347098
0.341752
0.376401
0.383159
0.376014
0.337677
0.348016
0.362768
0.530518
0.355688
0.389816
0.370166
0.445253
0.41086
0.355958
0.346016
0.35954
0.341756
0.344972
0.345264
0.344424
0.341519
0.349411
0.385498
0.36814
0.351811
0.367096
0.384843
0.37354
0.382727
0.361488
0.375937
0.442373
0.348977
0.364626
0.345349
0.346638
0.344426
0.30663
0.336999
0.372465
0.349113
0.344533
0.225056
0.230965
0.384347
0.358847
0.232409
0.359316
0.348208
0.347955
0.481004
0.340333
0.402606
0.350639
0.371349
0.411468
0.352968
0.342158
0.278146
0.297511
0.934063
0.362929
0.350308
0.390689
0.365942
0.341896
0.371503
0.353526
0.944858
0.377167
0.41516
0.377691
0.345802
0.358197
0.34667
0.384988
0.369812
0.666224
0.309051
0.391612
0.374297
0.404869
0.350096
0.367643
0.367223
0.401817
0.337991
0.376519
0.38522
0.358219
0.345249
0.347004
0.347656
0.346528
0.379151
0.391762
0.384417
0.391295
0.373525
0.373636
0.374783
0.355649
0.385357
0.37253
0.349575
0.386646
0.37119
0.388135
0.372342
0.35383
0.36113
0.340246
0.391742
0.372303
0.378388
0.348167
0.269274
0.342876
0.29685
0.235017
0.34957
0.374735
0.342638
0.93441
0.824391
0.361498
0.264097
0.41674
0.352224
0.34167
0.293925
0.339878
0.883425
0.375731
0.389129
0.368057
0.916452
0.365329
0.763294
0.358121
0.374924
0.348958
0.371391
0.341088
0.36898
0.477429
0.383866
0.372148
0.346964
0.353408
0.878773
0.907776
0.341257
0.370522
0.480787
0.252091
0.354476
0.358293
0.506385
0.45687
0.338324
0.605716
0.591833
0.397632
0.354307
0.914311
0.514216
0.443662
0.470205
0.824228
0.370221
0.512288
0.241631
1.16888
0.351371
0.908958
0.273944
0.631075
0.638551
0.347554
0.368948
0.902791
0.566513
0.452315
0.468038
0.589618
0.463178
0.395376
0.594886
0.370296
0.365488
0.345467
0.359787
0.38878
0.343094
0.392146
1.06308
0.351929
0.363827
0.340166
0.349282
0.409078
0.341376
0.555166
0.437106
0.478312
0.345125
0.895115
0.348568
0.340575
0.605582
0.389082
0.272639
0.343965
0.528981
0.591357
0.342881
0.415017
0.352275
0.339095
0.357065
0.34514
0.341896
0.646497
0.382599
0.349569
0.347053
0.673308
0.35187
0.401588
0.345091
0.346087
0.344399
0.343861
0.374908
0.941625
0.373578
0.348183
1.03111
0.34496
1.03719
0.346011
0.371097
0.351466
0.369439
0.34136
0.342227
0.346439
0.377651
0.343296
0.347438
0.406313
0.377864
0.367148
0.355686
0.346155
0.353914
0.354098
0.351304
0.35461
0.35264
0.349077
0.743012
1.13838
0.444176
0.351635
0.343812
0.356684
0.345205
0.345695
0.343937
0.367817
0.34927
0.347724
0.358646
0.349644
0.348311
0.4695
0.357212
0.364988
0.535583
0.796081
0.864616
0.347224
0.454886
0.888412
0.425422
0.468933
0.616557
0.378433
0.34869
0.343333
0.347117
0.495621
0.346691
0.360856
0.37649
0.460083
1.24469
0.915286
0.40396
0.379594
0.341859
0.374205
0.337656
0.352441
0.3584
0.371065
0.366782
0.372807
0.342679
0.345274
0.353724
0.344012
0.34324
0.374896
0.387677
0.349733
0.340743
0.375493
0.361329
0.365309
0.348311
0.349041
1.11662
0.373281
0.350537
0.437932
0.568516
0.343366
0.566769
0.381515
1.03386
0.458912
0.453207
0.341416
0.360083
0.356638
0.34766
0.37725
0.346246
0.344744
0.344532
0.348245
0.353056
0.535579
1.23
0.540345
1.00722
0.342185
0.851946
0.346795
1.444
0.354228
0.341295
0.402655
0.342883
0.343703
0.347789
0.379077
0.346607
0.342321
0.349211
0.375646
0.340797
0.37774
0.349373
0.336095
0.334637
0.357698
0.344781
0.341583
0.347435
0.341428
0.338416
0.352951
0.367475
0.338179
0.372874
0.379217
0.342575
0.346315
0.341179
0.450559
0.355127
0.339501
0.839619
0.351667
0.340032
0.344056
0.344133
0.361005
0.343476
0.346716
0.346834
0.341049
0.345426
0.347417
0.348183
0.348362
0.348306
0.385283
0.345755
0.346709
0.345261
0.349778
0.345032
0.346218
0.341596
0.36154
0.345846
0.340007
0.352143
0.344525
0.384941
0.34585
0.41897
0.343301
0.371915
0.344073
0.59073
0.358673
0.369421
0.351999
0.340805
0.346414
0.344461
0.361866
0.415392
0.368887
0.348225
0.40668
0.364904
0.341901
0.344331
0.378068
0.353084
0.403582
0.836772
0.730495
0.665354
0.365691
0.349054
0.346177
0.335271
0.385366
0.34336
0.354176
0.387106
0.553557
0.567546
0.764729
0.645377
0.337653
0.63115
0.336402
0.577031
0.384063
0.539136
0.34258
0.343169
0.346079
0.346561
0.342264
0.494705
0.339869
0.380812
0.347258
0.3658
0.361403
0.366028
0.398196
0.369249
0.371962
0.344038
0.371811
0.348468
0.357345
0.352429
0.367404
0.341921
0.377619
0.388261
0.383528
0.385138
0.344773
0.370008
0.350516
0.35504
0.340281
0.634766
0.633103
0.486794
0.343701
0.378361
0.388738
0.344089
0.671237
0.465223
0.343878
0.467472
0.387359
0.379705
0.359874
0.370765
0.377649
0.346142
0.34371
0.350106
0.347348
0.364526
0.347092
0.346247
0.669381
0.913864
0.364597
1.07278
1.25359
0.38798
0.354286
0.369172
0.341716
0.344095
0.377352
0.362096
0.374676
0.346062
0.382628
0.38283
0.37245
0.344681
0.379326
0.377146
0.345678
0.353373
0.368296
0.38323
0.384533
0.348499
0.350897
0.343931
0.363758
0.34267
0.393721
0.409789
0.388017
0.34627
0.343575
0.347633
0.342437
0.346798
0.392342
0.373279
0.349417
0.394525
0.341465
0.344635
0.37184
0.342133
0.341524
0.368952
0.361362
0.338396
0.395863
0.34487
0.360901
0.432258
0.450105
0.601197
0.341836
0.953914
0.554161
1.14708
0.605134
0.34967
0.616283
0.473625
0.639795
1.06407
0.396237
0.345429
0.360515
0.338525
0.335924
0.374166
0.401396
0.424564
0.39645
0.354806
0.363098
0.679919
0.431218
0.935701
0.37073
0.512667
0.730029
0.361878
0.343738
0.347905
0.381212
0.363215
0.335697
0.341449
0.340649
0.382916
0.380739
0.338598
0.857977
0.356326
0.355409
0.366666
0.353074
0.355346
0.345508
0.365829
0.352311
0.368735
0.385312
0.332099
0.352636
0.371694
0.383708
0.338752
0.34756
0.387889
0.475259
0.378367
0.349876
0.341995
0.44164
0.379962
0.359076
0.346326
0.389244
0.817705
1.03648
0.483037
0.808587
0.366141
0.356273
0.34963
0.358426
0.367537
0.405
0.458387
0.443408
0.37625
0.404141
0.346206
0.345884
0.374285
0.375087
0.345183
0.421819
0.367026
0.376228
0.376439
0.770014
0.353134
0.347073
0.663687
0.356738
0.965929
0.502962
0.790978
0.615538
0.362836
0.768518
0.560312
0.595224
0.457382
0.416584
0.521233
0.430853
0.660761
0.369217
0.350604
0.379919
0.355648
0.391585
0.347806
0.383995
0.379372
0.365302
0.352579
0.441036
0.340669
0.349981
0.34969
0.524831
0.510632
0.377128
0.369438
0.367284
0.369125
0.346571
0.345862
0.342811
0.340017
0.368104
0.341584
0.349682
0.370023
0.355514
0.348937
0.364584
0.346788
0.34649
0.365862
0.336627
0.359765
0.341942
0.365917
0.346909
0.343626
0.411689
0.530967
0.375957
0.365072
0.346436
0.342327
0.342528
0.37604
0.357994
0.533435
1.20566
0.370708
1.08037
0.419359
0.368693
0.529168
0.366157
0.457449
0.386049
0.579969
0.357814
0.522023
0.827222
1.0455
0.45949
0.381454
0.347182
0.34214
1.02474
0.343294
0.340772
0.35392
0.747776
0.366885
0.776897
1.21327
1.10123
0.392327
0.385441
0.941639
1.08129
0.375368
0.841193
0.674501
0.578437
0.850793
0.475941
0.359433
0.346878
0.554181
0.397278
0.755134
0.716919
0.371825
0.943779
0.43704
0.723183
0.344888
0.851542
0.428165
0.375854
0.350363
0.363138
0.754433
0.686249
0.347624
0.36527
0.3886
0.347862
0.348299
0.393324
0.652255
0.599663
0.386364
0.38408
0.356043
0.965442
1.0249
1.07764
1.01316
0.723832
0.668691
0.342472
0.475616
0.353685
0.591437
0.527677
0.3656
0.506071
0.425736
0.935464
0.345282
0.352462
0.366798
0.380449
0.34089
0.519307
0.557025
0.341679
0.355116
0.357095
0.333926
0.369727
0.35503
0.362291
0.353145
0.355347
0.347659
0.374457
0.34117
0.666036
0.463179
0.345546
0.384913
0.359705
0.368756
0.340668
0.396882
0.345013
0.345854
0.349126
0.341971
0.559679
0.367548
0.418822
0.405106
0.369239
0.508414
0.39508
0.387708
0.348884
0.394847
0.381497
0.348341
0.34468
0.344742
0.343041
0.38464
0.373527
0.359248
0.360139
0.344705
0.35343
0.39782
0.347254
0.355574
0.345612
0.348411
0.798321
0.958098
0.350477
0.426102
0.505005
0.614791
0.63943
0.365964
0.868562
0.532543
1.00814
0.365641
0.366772
0.341185
0.367277
0.350968
0.34796
0.89243
0.893521
0.350301
0.35161
0.346141
0.342759
0.342469
0.344384
0.34295
0.346157
0.357831
0.363346
0.354519
0.372438
0.344084
0.359433
0.355126
0.343389
0.650101
0.342663
0.343992
0.633249
0.342759
0.345176
0.343394
0.351628
0.35332
0.347392
0.343398
0.342698
0.342011
0.344848
0.344998
0.341814
0.342602
0.341625
0.818722
0.693232
1.10056
0.341993
0.588059
0.360556
0.347566
0.340664
0.341754
0.34226
0.34233
0.363435
0.350057
0.340111
0.34115
0.344294
0.369029
0.499229
0.917524
0.818733
0.825435
0.860911
0.345388
0.375604
0.345361
0.344955
0.34559
0.345046
0.347486
0.345192
0.35287
0.335167
0.365564
0.344093
0.342661
0.344706
0.336794
0.342001
0.350157
0.348466
0.344032
0.34353
0.770361
0.382435
0.607437
0.565223
0.384884
0.427095
0.340323
0.382651
0.362868
0.381492
0.344185
0.342193
0.342588
0.350442
0.362718
0.343921
0.369332
0.357843
0.340376
0.341416
0.34806
0.343078
0.341904
0.380294
0.343437
0.357138
0.338689
0.366416
0.347227
0.36102
0.346044
0.341371
0.347112
0.340963
0.340433
0.341143
0.343548
0.340298
0.354955
0.35809
0.342505
0.344012
0.342017
0.341668
0.349938
0.343171
0.344888
0.343729
0.34119
0.338679
0.34226
0.342801
0.344798
0.361236
0.339582
0.369878
0.33975
0.387209
0.343511
0.341064
0.346016
0.34541
0.345866
0.375251
0.345142
0.352004
0.343587
0.342858
0.353274
0.345394
0.370299
0.343845
0.379994
0.359075
0.34362
0.342755
0.346603
0.350853
0.348046
0.388983
0.342465
0.371189
0.345133
0.344938
0.356723
0.347561
0.336723
0.35825
0.345382
0.360961
0.364327
0.351101
0.350809
0.941011
0.340504
0.341206
0.342914
0.341084
0.350353
0.376232
0.344292
0.345317
0.340517
0.340799
0.338756
0.339937
0.360703
0.339798
0.369141
0.375032
0.364402
0.364011
0.378285
0.379903
0.34169
0.377426
0.343029
0.348836
0.342813
0.342119
0.341663
0.342052
0.688385
0.342218
0.343354
0.343833
0.37078
0.364016
0.369036
0.356295
0.342075
0.344039
0.344725
0.38998
0.349269
0.338862
0.335941
0.342938
0.356677
0.356282
0.37563
0.347522
0.361234
0.389141
0.351474
0.373029
0.345476
0.355049
0.344108
0.343937
0.365094
0.338379
0.400058
0.342845
0.494859
0.457948
0.342149
0.34261
0.343702
0.352751
0.348868
0.342489
0.369037
0.346783
0.349391
0.34881
0.344564
0.352696
0.373579
0.342326
0.350334
0.396999
0.341469
0.37881
0.342622
0.352299
0.371824
0.339242
0.390034
0.9954
0.390271
0.346312
0.354356
0.346413
0.378886
0.342905
0.349451
0.345157
0.346581
0.342806
0.346498
0.381691
0.382975
0.701515
0.34886
0.352641
0.34779
0.348775
0.343851
0.342731
0.341126
0.342546
0.341986
0.376094
0.343137
0.378786
0.567014
0.345668
0.344621
0.348374
0.343796
0.348699
0.348233
0.365807
0.384446
0.371166
0.34361
0.341739
0.380706
0.344372
0.375355
0.343152
0.395139
0.372925
0.225599
0.342159
0.304849
0.346344
0.345413
0.346109
0.350069
0.349218
0.345982
0.34039
0.387666
0.343211
0.344563
0.87726
0.33954
0.376707
0.343983
0.344425
0.399856
0.378068
0.342584
0.370044
0.360932
0.341725
0.341389
0.343167
0.356094
0.348624
0.370353
0.343503
0.358212
0.351492
0.354053
0.355235
0.390235
0.350731
0.377691
0.346396
0.367172
0.345173
0.371248
0.342981
0.348134
0.345995
0.343098
0.348076
0.348532
0.349193
0.350749
0.333168
0.346909
0.363794
0.336485
0.358854
0.351034
0.38642
0.804351
0.347592
0.347198
0.348292
0.347562
0.346721
0.347238
0.355221
0.341291
0.466453
0.344128
0.348516
0.424642
0.452195
0.358568
0.756517
0.627112
0.816228
0.742478
0.467073
0.345788
0.378002
1.02406
0.544882
0.339738
0.350851
0.558491
0.467797
0.321375
0.381892
0.462057
0.742562
0.5732
0.770475
0.426724
0.506774
0.340821
0.563196
0.385026
0.527942
0.34802
0.338729
0.34182
1.21716
0.34179
0.573205
0.352992
0.341463
0.40971
0.344965
0.363701
0.354218
0.358672
0.353294
0.339651
0.351296
0.353018
0.358609
0.352922
0.336267
0.394678
0.345943
0.344981
0.350015
0.373707
0.372832
0.343508
0.348189
0.354386
0.35061
0.357511
0.438027
0.346288
0.349321
0.344454
0.504789
0.349317
0.363661
0.389591
0.418632
0.653993
1.00425
0.352789
0.480689
0.342907
0.346051
0.342371
0.364933
0.344072
0.341586
0.370026
0.345325
0.377988
0.34713
0.443023
0.365449
0.340931
0.344957
0.401368
0.339948
0.345852
0.339972
0.345567
0.348126
0.34167
0.517186
0.344057
0.620956
0.343866
0.344385
0.348406
0.345828
0.346215
0.342267
0.344285
0.34402
0.347139
0.346242
0.346535
0.738876
0.342337
0.390838
0.35993
0.339363
0.386224
0.356072
0.345745
0.447811
0.442919
0.363054
0.463954
0.3517
0.362254
0.368354
0.354808
0.351699
0.347052
0.351453
0.341501
0.35043
0.344729
0.365403
0.811989
0.345374
0.338673
0.358226
0.349797
1.10575
0.690209
0.457986
0.381155
0.676761
0.365664
0.342825
0.367418
0.534889
0.388888
0.348919
0.369019
0.335784
0.341748
0.34364
0.343366
0.343847
0.342983
0.351545
0.368356
0.341975
0.344849
0.358664
0.345521
0.343772
0.341092
0.389364
0.357746
0.361836
0.342554
0.345256
0.380458
0.375209
0.361639
0.364857
0.343497
0.38109
0.346686
0.367458
0.345148
0.360429
0.347953
0.340778
0.385593
0.345425
0.345037
0.348096
0.343161
0.345208
0.347281
0.345783
0.392839
0.36432
0.378579
0.368722
0.343797
0.361265
0.373649
0.417568
0.358267
0.370707
0.370416
0.372985
0.383792
0.393765
0.961335
0.34641
0.346124
0.379207
0.342274
0.379464
0.392395
0.367025
0.361695
0.383678
0.356148
0.35051
0.373626
0.373214
0.365429
0.383401
0.375311
0.350519
0.361283
0.370847
0.393606
0.389477
0.371004
0.378179
0.422257
0.39048
0.370698
0.492766
0.421951
0.343619
0.345837
0.399908
0.385892
0.3671
0.343236
0.350237
0.381495
0.594374
0.727195
0.577377
0.341892
0.341816
0.602249
0.469942
0.428719
0.364042
0.552003
0.370145
0.491032
0.591087
0.513676
0.83199
0.881315
0.358512
0.352513
0.381809
0.374481
0.443797
0.523007
0.69885
0.703704
1.23372
0.469451
0.84765
0.754353
0.45128
0.688702
0.692372
0.455513
0.360056
0.342412
0.369364
0.359512
0.34693
0.467426
0.389257
0.888098
0.344846
0.361672
0.363456
0.421293
0.65251
0.888594
0.963662
0.288112
1.0529
0.348339
0.345922
0.37692
0.371574
0.379052
0.347228
0.381738
0.351292
0.34266
0.640212
0.591483
0.369449
0.344855
0.344405
0.345115
0.368216
0.354867
0.345184
0.345464
0.348001
0.345762
0.352219
0.343769
0.365973
0.687468
0.366688
0.341516
0.351551
0.338953
0.364285
0.426941
0.395181
0.388099
0.391786
0.758642
1.03249
0.34748
0.363404
0.395891
0.550133
0.349965
0.347347
0.380203
0.338417
0.547678
0.477373
0.461807
0.420541
0.343087
0.347165
0.557064
0.389322
0.380214
0.446468
0.379836
0.361537
0.384082
0.351641
0.377318
0.374417
0.343556
0.351365
0.356351
0.348732
0.354137
0.435905
0.357742
0.348274
0.370954
0.347175
0.370313
0.378401
0.361684
0.345301
0.362859
0.340507
0.384911
0.342657
0.509299
0.568574
0.876073
0.343937
0.345503
0.345423
0.344584
0.37854
0.375107
0.342096
0.345833
0.345849
0.381255
0.346327
0.344614
0.366216
0.342245
0.343866
0.368251
0.360465
0.349611
0.33982
0.367197
0.359133
0.344413
0.340831
0.347681
0.348406
0.358223
0.364402
0.345668
0.360048
0.344144
0.343546
0.348848
0.349846
0.363948
0.377196
0.343977
0.34093
0.351328
0.378274
0.347593
0.341212
0.342365
0.33981
0.34239
0.345118
0.344905
0.369499
0.371387
0.342336
0.34227
0.354351
0.353652
0.345608
0.343026
0.34266
0.366838
0.398223
0.39081
0.346452
0.345487
0.343841
0.34695
0.34432
0.345395
0.380488
0.36964
0.355803
0.930739
0.537893
0.341619
0.347017
0.349278
0.351845
0.346379
0.348131
0.343702
0.345724
0.646825
0.382569
0.390513
0.370209
0.362676
0.340919
0.343484
0.365277
0.340007
0.338708
0.341678
0.342318
0.341212
0.343124
0.339292
0.339795
0.339743
0.387978
0.340761
0.335712
0.344712
0.346441
0.535369
0.380117
0.356197
0.359278
0.348193
0.346366
0.374196
0.835554
0.75233
0.424213
0.635642
0.985689
0.603862
0.851098
1.0615
0.511144
0.335616
0.356991
0.355176
0.335301
0.390652
0.307068
0.34411
0.372397
0.480568
0.556566
0.341085
0.360728
0.347665
0.347796
0.348886
0.35273
0.337934
0.341552
0.342513
0.342379
0.348073
0.346432
0.345001
0.348055
0.343166
0.347221
0.343948
0.363749
0.341028
0.345712
0.337948
0.344355
0.342689
0.340635
0.340911
0.345616
0.345496
0.406344
0.368696
0.341653
0.339572
0.397387
0.34317
0.34604
0.346839
0.355086
0.357308
0.341838
0.342194
0.37536
0.381734
0.342616
0.338537
0.359189
0.339019
0.341668
0.341824
0.347087
0.382042
0.382385
0.346324
0.375981
0.345134
0.369428
0.34692
0.386151
0.379207
0.346572
0.381958
0.352879
0.369245
0.377808
0.34396
0.373301
0.385416
0.362629
0.388319
0.380758
0.378715
0.345822
0.374489
0.355141
0.340147
0.366234
0.366632
0.382347
0.354896
0.366937
0.341885
0.37711
0.365655
0.356732
0.367608
0.344055
0.371678
0.346083
0.350347
0.392203
0.445661
0.361876
0.341888
0.345569
0.34536
0.339859
0.342581
0.345569
0.477215
0.354838
0.355255
0.354636
0.352314
0.362058
0.339749
0.351744
0.332817
0.342119
0.343984
0.366653
0.386901
0.386466
0.368806
0.347331
0.332688
0.344343
0.354582
0.392164
0.343874
0.341409
0.344488
0.350859
0.360025
0.343837
0.373151
0.344898
0.357621
0.374813
0.338435
0.347078
0.340885
0.345834
0.341456
0.345055
0.343383
0.355478
0.346549
0.381453
0.371043
0.382342
0.374706
0.347602
0.384795
0.371719
0.341735
0.601072
0.711156
0.346683
0.346841
0.343943
0.344802
0.34463
0.345157
0.352314
0.362983
0.340826
0.342617
0.364454
0.38312
0.359739
0.342268
0.371438
0.39155
0.374335
0.36465
0.352622
0.350366
0.342299
0.577275
0.357752
0.359979
0.54374
0.357655
0.37595
0.345533
0.350714
0.367943
0.343524
0.347769
0.349415
0.34785
0.340015
0.342819
0.341873
0.346062
0.384054
0.342595
0.37372
0.382808
0.416876
0.354644
0.335003
0.58613
0.980142
0.273499
0.783948
0.578777
0.614934
0.404257
0.474875
0.440353
0.426033
0.509597
0.651169
0.307003
0.455233
0.329227
0.591521
0.493328
0.326218
0.425063
0.675246
0.55333
0.318305
0.392442
0.342677
0.898774
0.344841
0.342446
0.332796
0.336058
0.343516
0.340035
0.383417
0.352013
0.345731
0.342311
0.349066
0.33828
0.342411
0.37287
0.34411
0.346065
0.346137
0.340275
0.378252
0.758722
0.344981
0.358021
0.342249
0.345272
0.349552
0.351519
0.369893
0.344895
0.352552
0.371791
0.379743
0.365071
0.358568
0.34832
0.347192
0.519411
0.351116
0.369982
0.354408
0.349087
0.343829
0.349849
0.367611
0.756694
0.384863
0.402746
0.343331
0.360241
0.36232
0.343624
0.36513
0.343084
0.677261
0.362339
0.339138
0.352804
0.373089
0.471543
0.392609
0.398421
0.380176
0.454089
0.450931
0.422387
0.370013
0.371425
0.34766
0.365743
0.417221
0.345213
0.417941
0.345069
0.852865
0.916383
1.06777
0.867082
1.00583
0.856932
0.883735
0.967054
0.519736
0.345322
0.349169
0.394873
0.405528
0.344426
0.355996
0.348423
0.347482
0.342386
0.338206
0.350066
0.356704
0.347813
0.34832
0.347407
0.349417
0.4171
0.352984
0.377609
1.13514
0.653842
0.624034
0.384523
0.352415
0.353035
0.593747
0.352328
1.04121
0.345133
0.370997
0.724925
0.349452
0.680163
1.08612
0.769241
0.520545
0.480759
0.366236
0.435085
0.983554
0.358085
0.669713
0.334828
0.520485
0.284322
0.362514
0.338141
0.373132
0.47201
0.803908
1.03228
0.918496
0.345174
0.571828
0.234592
0.967481
0.984858
0.385482
1.17519
0.882006
0.831604
0.666112
0.601909
0.952988
0.466384
0.349755
0.346886
0.560429
0.346075
0.431432
0.346566
0.36911
0.434598
0.547635
0.334988
0.344131
0.364977
0.481048
0.371923
0.363718
0.358946
0.482263
0.484348
0.369857
0.356005
0.362966
0.346102
0.380063
0.406313
0.578961
0.370877
0.351388
0.355185
0.348077
0.383907
0.419466
0.361495
0.345259
0.370787
0.34695
0.37504
0.356965
0.352424
0.345897
0.360052
0.37782
0.348782
0.343492
0.35539
0.347826
0.344593
0.418238
0.344555
0.86831
0.382407
0.376492
0.35372
0.363226
0.343152
0.343321
0.345154
0.600397
0.399591
0.350782
0.350574
0.344931
0.349009
0.374201
0.381169
0.347784
0.350472
0.378212
0.354226
0.348165
0.347235
0.331028
0.348252
0.346736
0.348425
0.371955
0.345378
0.342588
0.348791
0.351767
0.347101
0.343262
0.344851
0.621607
0.346777
0.344993
0.334883
0.361177
0.381672
0.357515
0.352454
0.306974
0.281275
0.508542
0.689807
0.513544
0.511126
1.2119
0.50057
0.576907
0.495756
0.362017
0.400844
0.357401
0.368451
0.409832
0.44122
0.343821
0.348365
0.348958
0.347704
0.348889
0.342928
0.349537
0.52313
0.459319
0.375818
0.293526
0.411584
0.83127
0.362265
1.05388
0.342545
0.398826
0.927961
0.370368
0.593899
0.541014
0.658734
0.540953
0.910814
1.03818
0.79437
1.32942
0.829391
0.772564
0.375139
0.395415
0.351434
0.356282
0.34537
0.401705
0.376017
0.341569
0.337446
0.344652
0.360172
0.350103
0.342932
0.375285
0.348329
0.371019
0.341865
0.348178
0.370598
0.34866
0.370166
0.37304
0.341166
0.345649
0.348773
0.347593
0.624748
0.343742
0.342893
0.339312
0.380819
0.355132
0.361285
0.344223
0.381126
0.392708
0.370811
0.341403
0.358237
0.343122
0.340791
0.342325
0.341589
0.383513
0.341599
0.34663
0.342277
0.344917
0.374964
0.348528
0.341898
0.346938
0.348085
0.367334
0.34383
0.346027
0.355737
0.343893
0.368425
0.343793
0.347792
0.345288
0.348822
0.342956
1.0301
1.13072
0.364239
0.367126
1.04826
0.697826
0.386604
1.09765
0.68235
0.612346
1.1994
0.381626
0.351257
0.367333
0.373768
0.358939
0.345697
0.34843
0.364301
0.338311
0.341863
0.342759
0.346504
0.347744
0.348652
0.346953
0.359552
0.380799
0.369103
0.344221
0.346157
0.365642
0.357047
0.380425
0.568633
0.344333
0.377132
0.371267
0.336183
0.374384
0.345288
0.456802
0.365679
0.390924
0.377447
0.350584
0.34305
0.351488
0.353721
0.348407
0.350361
0.356601
0.351289
0.363937
0.347854
0.350102
0.343746
0.345921
0.346408
0.344236
0.344875
0.34334
0.384277
0.341253
0.378756
0.354915
0.342564
0.344463
0.791285
0.619252
0.977025
0.347993
0.349186
0.350954
0.352073
0.354095
0.357237
0.37476
0.371865
0.344522
0.339407
0.358695
0.370995
0.345345
0.35776
0.340529
0.371078
0.37557
0.377998
0.340111
0.34706
0.346819
0.347717
0.347462
0.343575
0.375901
0.369942
0.464967
0.351312
0.367267
0.37212
0.341419
0.390982
0.366497
0.371516
0.385105
0.348985
0.369063
0.348149
0.353361
0.356148
0.387006
0.373846
0.345263
0.348507
0.346042
0.387021
0.347464
0.383941
0.359005
0.34956
0.356913
0.363533
0.346125
0.341315
0.365802
0.356482
0.345441
0.34112
0.350766
0.36686
0.34673
0.370854
0.370896
0.343932
0.346746
0.338821
0.345149
0.348092
0.367178
0.344976
0.344756
0.569419
0.507659
0.849363
0.34223
0.588868
0.368093
0.370028
0.360418
0.971578
0.366368
0.340972
0.35646
0.350011
0.345929
0.363743
0.76656
0.539994
0.907413
0.924546
0.375204
0.366114
0.350224
0.441579
0.405376
0.391228
0.35661
0.352657
0.361845
0.347634
0.341823
0.359836
0.349779
0.360705
0.39994
0.402788
0.352354
0.352166
0.350552
0.385035
0.35787
0.845859
0.341263
0.34096
0.346267
0.664484
0.524934
0.343147
0.34415
0.465858
0.496081
0.317441
0.367281
0.339982
0.344951
0.459665
0.432078
0.466781
0.484796
0.342463
0.690271
0.349662
0.344537
0.346005
0.345597
0.348063
0.347217
0.348152
0.27301
0.345734
0.460137
0.348367
0.410043
0.353547
0.717129
0.346536
0.345593
0.345208
0.345411
0.343023
0.365802
0.351607
0.37612
0.346443
0.379088
0.348376
0.34485
0.343492
0.381994
0.373059
0.344006
0.34712
0.345892
0.342797
0.347847
0.345714
0.398868
0.342585
0.344179
0.374385
0.346079
0.340573
0.444845
0.587763
0.343115
0.47936
0.344383
0.371448
0.364973
0.347976
0.427706
0.440734
0.350906
0.345355
0.365555
0.344273
0.344388
0.344966
0.34483
0.371438
0.382228
0.374252
0.732988
0.748933
0.964318
0.372997
0.394772
0.346378
0.346943
0.34921
0.363788
0.413541
0.57454
0.361764
0.401386
0.401829
0.668282
0.531021
1.10919
0.667959
0.621707
0.772696
0.344819
0.38266
0.521373
0.59567
0.372873
0.345403
0.350384
0.361238
0.517391
0.358112
0.338316
0.371587
0.494769
0.347152
0.362353
0.36221
0.364765
0.339744
0.347997
0.347498
0.341084
0.34739
0.364726
0.344568
0.340882
0.3372
0.340292
0.348931
0.367668
0.367939
1.01357
0.941042
0.437906
0.353209
0.346578
0.345528
0.620072
0.729308
0.344853
0.36798
0.58047
0.43151
0.903711
1.22849
0.534056
0.635545
1.06124
0.378157
0.924163
0.782483
0.392206
0.351533
0.341177
0.352518
0.382947
0.388225
0.361981
0.511098
0.344064
0.356344
0.418462
0.385797
0.382396
0.357841
0.343911
0.846166
0.697919
1.14799
0.985234
1.18782
0.341031
0.349509
0.353791
0.403461
0.747677
0.694907
0.379087
0.824001
0.590348
0.604806
1.30121
0.965321
0.397364
0.676637
0.634156
0.61168
0.382594
0.459341
0.915159
0.667525
0.343389
0.356245
0.350405
0.366103
0.375972
0.338314
0.35708
0.366273
0.358707
0.340691
0.350574
0.68802
0.345267
0.346499
0.34881
0.442769
0.357638
0.366113
0.386415
0.350254
0.404384
0.362971
0.354831
0.348734
0.854683
0.346826
0.434032
0.344211
0.33857
0.343851
0.360187
0.347974
0.396072
0.343591
0.349053
0.34544
0.372816
0.350573
0.347611
0.345714
0.344627
0.339391
0.363439
0.345287
0.370022
0.342298
0.342021
0.341162
0.39265
0.379182
0.670835
0.400321
0.890825
1.37828
0.355846
0.45879
0.680728
0.462032
0.418835
0.687999
0.609006
0.598847
0.63147
0.531947
0.66237
0.901143
1.0839
0.491069
0.849554
0.344531
0.759971
0.71415
0.347115
0.35992
0.337595
0.345691
0.3374
0.342349
0.371184
0.346131
0.352942
0.343277
0.735278
1.37867
0.368885
0.354187
0.349689
0.47509
0.435437
0.359719
0.35633
0.369617
0.411374
0.48942
0.415524
0.408276
0.676369
0.569347
0.695679
0.362554
0.386811
0.375512
1.20281
0.358595
0.390021
0.336639
0.35423
0.347709
0.344546
0.339462
0.340945
0.34809
0.340365
0.367407
0.384819
0.341473
0.33932
0.39437
0.341731
0.344873
0.347127
0.368102
0.341643
0.375016
0.343195
0.345094
0.352854
0.342936
0.347597
0.338664
0.347982
0.34175
0.37433
0.342497
0.364036
0.342353
0.345014
0.342636
0.34763
0.341566
0.365651
0.351613
0.344757
0.381313
0.343808
0.345683
0.417687
0.358678
0.384845
0.346526
0.359575
0.343055
0.343859
0.341146
0.415957
0.376936
0.350109
0.343588
0.346607
0.349777
0.348102
0.342866
0.348708
0.390337
0.343929
0.371326
0.351379
0.367954
0.342188
0.34052
0.341893
0.389925
0.352247
0.344
0.344928
0.359772
0.339162
0.352559
0.366378
0.397452
0.370792
0.590639
0.422626
0.3416
0.344151
0.392437
0.340771
0.381817
0.387538
0.342038
0.348341
0.352149
0.37728
0.351398
0.343135
0.347496
0.364583
0.34539
0.338476
0.342475
0.361186
0.339923
0.377109
0.341579
0.345719
0.345445
0.359517
0.342111
0.377458
0.351684
0.415558
0.384699
0.343999
0.341456
0.379239
0.39162
0.386463
0.383581
0.343206
0.365489
0.357292
0.33675
0.507736
0.343549
0.346392
0.349564
0.340679
0.347412
0.34535
0.347537
0.344052
0.34457
0.380502
0.345168
0.351962
0.343846
0.340195
0.34241
0.354556
0.35775
0.366417
0.343396
0.351285
0.365061
0.37988
0.345224
0.347322
0.38378
0.363932
0.345175
0.390624
0.343169
0.357145
0.342533
0.338064
0.346944
0.352645
0.342473
0.346394
0.347443
0.350287
0.409885
0.364406
0.505619
0.3447
0.381886
0.345184
0.36963
0.39177
0.346805
0.357522
0.373338
0.376084
0.345492
0.366199
0.364744
0.360134
0.361193
0.367217
0.36987
0.342246
0.340264
0.55145
0.56947
0.457736
0.342276
0.365006
0.519529
0.347624
1.11444
0.49473
0.354798
1.07373
0.344346
0.348377
0.437288
0.550091
0.343826
0.347358
0.415822
0.425968
0.380143
0.345269
0.337864
0.34384
0.340637
0.350092
0.34869
0.968686
0.3442
0.354378
0.344168
1.14664
0.936923
0.592534
0.433263
0.528667
0.346939
0.379007
0.339654
0.352899
0.280195
0.480246
0.596643
0.451182
0.342339
0.361782
0.346483
0.374072
0.338581
0.382563
0.345423
0.342844
0.337015
0.342879
0.363592
0.339829
0.347138
0.429316
0.349179
0.339072
0.340336
0.798537
0.377616
0.343756
0.342462
0.362533
0.347611
0.360705
0.342983
0.349555
0.341524
0.347558
0.352639
0.342469
0.50627
0.421258
0.806107
1.11346
0.396024
0.342812
0.306422
0.384987
0.35984
0.479654
0.346998
0.348934
0.350175
0.349187
0.374194
0.350068
0.348473
0.362239
0.389791
0.479754
0.478004
0.494333
0.292647
0.347473
0.430458
0.380705
0.359706
0.360438
0.327437
0.35583
0.343575
0.375958
0.56194
0.607016
0.996773
0.895526
0.363884
1.16458
0.338183
0.341887
0.396105
0.342302
0.349542
0.366996
0.345848
0.390609
0.842787
0.841973
0.86532
0.889838
0.798759
0.838642
0.356734
0.375669
0.923714
0.399947
0.747353
0.838453
0.414777
1.03768
0.403585
0.363037
0.989688
0.989803
0.481312
0.457077