/*--------------------------------*- C++ -*----------------------------------*\
| =========                 |                                                 |
| \\      /  F ield         | OpenFOAM: The Open Source CFD Toolbox           |
|  \\    /   O peration     | Version:  2506                                  |
|   \\  /    A nd           | Website:  www.openfoam.com                      |
|    \\/     M anipulation  |                                                 |
\*---------------------------------------------------------------------------*/
FoamFile
{
    version     2.0;
    format      ascii;
    arch        "LSB;label=32;scalar=64";
    class       volScalarField;
    location    "0.0321319";
    object      p;
}
// * * * * * * * * * * * * * * * * * * * * * * * * * * * * * * * * * * * * * //

dimensions      [0 2 -2 0 0 0 0];

internalField   nonuniform List<scalar> 
3946
(
1.24541
1.15276
-0.815529
1.12277
1.40122
1.07593
1.07167
1.11031
1.14025
1.18045
1.50931
0.98283
-1.5971
1.35693
1.1244
1.25436
1.43737
1.24789
1.255
1.47205
1.3893
1.43559
1.30646
0.941099
1.10349
0.934693
1.20932
1.06618
1.07213
1.14708
1.56701
1.13557
1.01132
1.22448
1.2473
1.31284
1.40138
1.28195
1.38447
1.08332
1.139
1.12369
0.685452
1.37716
1.10373
0.800858
1.51113
1.41648
1.03122
0.935708
1.05003
0.985502
1.44766
1.20648
1.01858
1.4003
1.1861
1.03988
1.22496
1.08673
1.36525
-35.3114
1.28574
1.32198
1.3877
-35.6141
-37.529
-35.0762
-35.1622
0.0781278
1.24845
1.42487
-10.805
1.07216
0.703668
1.12542
1.00292
1.08058
0.907459
1.28784
-37.145
-5.85933
1.09676
1.42655
1.18231
-40.6539
-8.2899
-35.3031
-37.7322
-38.2531
-56.3184
-42.0247
1.33497
0.980515
0.766107
1.03434
1.4431
0.910428
1.28367
1.11673
0.921781
1.08733
1.30147
-21.6893
1.02528
1.2577
-4.08048
1.85287
0.875891
1.02064
-5.30685
1.24009
1.28974
1.37637
1.47922
1.15571
-5.24673
0.579873
-33.8644
-36.1874
1.48986
0.937842
1.20705
2.49089
1.26583
1.5006
-55.0645
-5.83487
1.26068
1.38219
0.846153
-50.2332
1.33811
1.01288
0.273402
-2.71602
1.20292
-47.1743
1.56635
-30.3234
-35.2556
-53.0145
-42.2496
1.2727
-6.01016
0.796647
1.33634
1.4386
0.783593
0.805524
1.47343
1.27569
1.70525
0.966854
1.21138
0.984928
1.06264
1.40114
1.43202
1.45777
1.28999
0.646707
-20.2763
1.0435
0.878372
1.00719
1.00198
1.45476
1.21377
-18.3141
1.14362
-46.8883
0.791635
1.49796
1.20575
0.885462
1.39344
0.884077
0.183887
1.33605
1.17547
0.986331
1.40093
1.45012
1.32502
1.0871
1.5755
1.14427
1.53574
0.969724
1.89554
1.47155
-36.2687
1.17837
-38.7664
-38.7481
-37.8771
1.53198
1.35618
1.26695
1.04373
1.35575
1.35469
1.39792
1.56062
1.20854
1.15774
0.0103065
1.33403
1.35362
0.966333
0.957891
1.7653
2.5583
2.1846
1.87754
1.99055
1.90015
1.64147
1.5464
-35.8732
-37.2809
1.34871
1.53456
1.25803
-36.3862
-36.8587
-0.0534057
1.07663
-36.1703
-2.24595
1.08102
1.61656
-2.97804
1.11844
1.23375
1.26721
1.17797
1.05339
1.3136
1.20943
-35.3501
-34.3201
-24.4398
1.09561
1.00377
1.19124
1.22923
-0.426884
1.13934
1.3306
-35.6569
0.755768
1.10233
1.21897
0.857204
1.20646
0.531001
1.41482
1.5726
2.40699
-34.3476
-37.7874
0.252936
0.766759
0.917619
0.827004
0.906459
0.950245
1.04715
0.979967
1.48745
1.25061
1.42268
1.16294
1.09508
1.27295
1.45396
1.13795
1.19515
0.753925
1.0968
1.56181
1.39685
1.38625
0.663089
1.42171
1.73087
1.1492
1.24723
1.22121
1.18774
2.22309
1.31094
1.26267
1.20423
1.14363
1.43029
1.19732
-36.0709
1.44451
-36.8624
-36.0318
-37.1547
0.526976
0.706301
-39.0649
-9.46679
1.64358
-39.0243
-40.0487
-36.7074
-35.2633
-35.5732
1.05129
-49.1469
1.21097
1.08634
1.21973
-35.3943
0.985165
-47.8533
0.965126
0.975068
1.47447
1.00883
1.46893
-0.0330614
0.66545
1.5582
0.91325
0.982025
1.04552
-52.5411
-57.0648
0.963453
0.966198
-41.0611
-36.5928
-36.1482
1.53182
-44.1559
-39.5198
0.57509
-46.7434
-8.71904
0.564827
1.67453
-7.43933
-42.227
-39.2626
-0.524334
-51.4337
1.75025
-40.9439
-36.9059
-20.3655
1.10477
-53.8018
-37.8823
-26.4282
-44.041
1.30695
-6.53843
-54.8269
-42.8766
-4.99626
-40.187
-43.3039
-41.3345
-37.376
-42.3418
1.34004
1.14651
1.18916
1.68802
1.67548
1.27967
-1.70233
-14.6855
0.832583
-4.21711
1.33595
1.34186
-1.23369
0.824261
-0.760637
0.547164
2.64439
0.649524
-62.3461
1.1865
1.09135
-42.9095
-1.30793
-38.5661
1.29604
-4.09498
3.02316
1.35009
0.141241
1.57177
1.29522
1.26608
0.794952
0.979227
-5.37292
2.01835
1.47891
1.07927
4.66902
1.21295
1.56891
1.32332
1.19018
1.13755
1.14831
1.0381
0.739524
-2.70622
0.976377
-0.172077
1.2607
-26.6265
1.5107
1.13355
1.79212
1.39803
1.38053
1.07572
1.52886
1.99599
1.33746
1.39046
-2.20049
1.23313
0.924657
0.808819
1.12423
0.825813
1.13267
1.33283
0.971585
0.719962
0.703679
-50.5402
-38.8016
0.145369
1.05924
1.35034
1.30664
1.2473
1.36758
1.19497
1.17797
1.24494
1.02868
1.27925
1.33832
1.43448
-0.106649
0.533114
-38.3021
-33.452
-58.0601
-46.3955
1.49735
-8.11183
-53.238
-5.10603
-1.25539
4.53204
1.14443
1.43072
1.0976
1.20169
1.37871
1.15101
0.00353612
1.05596
-39.0348
-51.8409
-50.8404
1.55478
1.00903
1.17922
-0.0308528
1.56114
1.49487
1.45678
1.78684
1.55113
1.33493
1.41842
1.32988
1.36747
1.11505
1.23892
1.46639
1.30067
0.688418
1.3978
1.26836
1.3887
1.40288
0.630748
0.743954
-36.963
-38.7605
1.30955
-43.3633
-42.5106
1.21511
2.68126
-4.92782
-29.2049
-0.318483
1.34924
-0.675058
0.966044
1.25818
0.97459
1.09097
1.23161
0.746588
0.965672
1.41665
1.58242
0.330008
-27.6886
-39.9397
-11.9254
1.19692
-50.1079
-37.5705
-8.52733
1.21066
0.999425
1.13425
1.09871
1.31894
1.3307
-4.02313
1.05216
1.20849
0.877874
0.489788
1.17517
1.28888
1.13543
0.879372
1.01893
1.01409
1.24582
1.01317
1.19624
1.03195
0.298503
1.12951
0.852627
1.33971
1.37552
1.59061
1.3025
1.2228
1.23005
-1.62221
1.01137
1.01516
-57.1548
1.00515
1.25931
1.42633
1.12837
1.05827
1.29542
0.96488
1.06274
1.1321
1.55157
1.27486
1.54554
1.24767
1.62201
1.24489
1.06666
1.32771
1.37266
1.64821
1.25643
1.03469
1.27205
1.32349
0.999586
1.02957
1.59476
0.955356
0.764771
1.08841
-7.82564
0.982172
1.12682
1.44122
-22.3292
1.38314
2.00978
1.2232
1.34705
1.12158
1.09892
1.04584
1.20566
1.048
1.81837
1.34193
0.932508
1.29615
1.27527
1.3409
1.13826
1.25203
-50.7452
-48.2212
-47.0283
1.44095
1.31679
1.76803
1.03286
1.20832
1.19372
0.840378
1.09541
2.17066
-4.81393
-3.87099
-12.8733
0.998774
0.155424
0.95259
0.302396
1.15873
-2.48831
1.25367
1.43003
1.18142
1.37495
1.35705
2.589
-0.235031
1.25093
1.13605
1.1655
1.37167
0.862373
1.26479
1.31565
1.5432
1.49426
1.46354
1.52527
1.1781
0.424883
1.36243
0.88045
1.02427
1.30716
0.210963
-7.67481
1.34128
1.23366
0.840278
1.1511
0.979942
-43.9028
-43.8666
-41.9843
1.33181
1.49253
1.20793
1.2794
0.356085
-43.8958
0.944047
-43.2156
1.26111
1.15972
0.217901
2.33353
1.94223
1.42303
1.01936
1.20654
1.4554
1.12813
1.19248
1.56255
-37.745
-38.9252
1.31056
-14.4378
-42.2293
1.12109
1.60252
0.249907
0.908807
1.30898
0.958799
1.05433
1.57354
1.41071
1.3716
1.52505
1.03283
1.25946
1.00912
0.812951
1.32461
0.777777
1.23888
1.08969
1.08462
1.14285
1.03419
1.2254
0.0295067
1.20723
1.22218
-1.86373
1.19193
1.56718
1.35988
1.66762
1.0576
1.78114
1.12836
1.2741
1.4884
-0.298744
1.17564
1.11541
1.35599
1.09725
1.16514
0.729676
1.43211
1.14916
1.36497
0.972108
1.20774
2.67743
-39.5845
-46.6355
0.953375
-40.7979
-55.9727
-45.9448
-43.2041
1.4778
-44.4359
-40.2716
-44.3591
2.87112
1.04577
1.31118
-0.783923
1.2583
-35.9734
-1.38109
-4.68667
-2.52467
-0.883091
1.18198
0.386077
-44.3164
-38.0385
-52.5433
-37.3887
-40.7046
-45.2747
0.973839
-0.773634
0.957509
0.166162
1.35292
1.23466
1.36708
1.1796
0.987333
0.779007
1.14132
-34.3874
1.27983
1.28055
1.2848
1.27803
2.22551
0.981932
1.09567
0.666122
1.22092
1.52328
1.34757
0.874181
1.16615
1.45931
1.11819
1.34615
1.66089
1.83769
-0.993649
1.06454
0.964357
1.21806
0.865891
1.10918
1.47743
0.903417
-1.82544
-9.01527
2.33406
-0.254789
-1.52092
-1.16284
0.756374
-1.26998
1.96937
-2.52906
1.51297
2.51841
0.442148
1.44109
0.889904
1.39194
1.2126
0.307058
1.16434
-39.8622
1.01844
-0.11345
1.37783
-52.9986
1.75909
1.271
-4.88298
1.05737
-47.8716
-42.4982
-44.2352
-19.6628
-3.5052
-42.9876
-32.2972
-6.66159
1.49024
-35.9814
-40.1976
5.48288
0.424709
1.62094
1.41276
0.0850678
1.3172
1.27759
0.788917
1.11988
1.20297
1.25153
1.98381
2.05659
1.15037
0.949995
0.713032
2.72452
3.15579
1.20562
0.93096
2.61519
1.45179
1.12698
1.16175
1.02119
1.13634
1.48113
1.04703
0.368806
0.929067
0.463015
1.67372
1.39264
1.52873
1.37708
1.38075
1.21242
1.4067
1.36068
1.52263
0.868777
1.33504
2.77807
3.86892
2.01192
1.90689
1.45748
1.64458
1.18426
1.6564
0.953139
-29.4148
-54.3734
1.17228
-6.82809
-40.065
1.05112
0.738643
2.32901
1.81278
1.44176
-14.7525
0.523768
-42.786
-45.7457
-14.4777
-40.3473
1.23356
1.1067
1.03272
-26.0658
1.06343
1.10413
1.73421
-35.6112
-39.5496
-48.5641
-62.3232
-59.1186
-37.3897
1.85185
-13.0318
-48.5802
1.2883
-11.7892
-43.1008
-14.8172
-0.985735
-38.7791
-37.2751
1.68445
-44.6053
-2.63016
-48.9235
-50.1013
1.37115
-53.8125
-39.3925
-46.2164
1.18425
-5.85848
-38.6715
1.16692
0.938798
1.09023
-40.3135
-24.5321
-0.255442
1.72672
2.74914
1.57947
1.45407
-0.568095
0.698602
4.3192
0.367891
1.74562
0.0305007
-19.1986
-10.0229
-10.778
-8.896
-42.2766
-45.1762
1.12936
0.136007
1.0957
-3.54972
-7.2604
-0.521217
2.88444
1.80148
-17.6188
1.1648
1.26113
1.2717
1.13076
0.943665
1.29656
3.61669
0.500802
0.931722
0.535358
-0.518202
1.08067
0.987229
1.42468
0.732574
1.11009
1.30528
1.23919
1.20587
-61.1511
-39.1053
1.33144
-1.0159
1.27813
0.870697
1.36257
-2.06993
1.54375
1.44754
1.63928
1.49157
-2.6943
0.979075
-6.27715
-4.58684
1.37907
-16.8627
0.710949
1.2366
0.958632
1.18398
1.29922
1.26617
1.08412
1.18425
0.994291
-0.438676
1.88169
1.03645
1.15841
1.24298
-0.716281
1.71212
1.30067
-0.816577
1.27232
1.64473
-37.8751
-54.7216
1.65848
-14.6332
-42.5377
-12.5733
-44.5921
-3.04402
-51.2713
-23.6008
-48.8419
0.716696
-1.54088
1.27852
1.20483
0.274391
0.618403
-14.6909
-35.3482
0.0454845
-0.113314
1.12974
1.42419
1.5846
1.54882
1.52992
1.30028
2.02359
0.966836
1.14767
0.867202
0.980211
1.64866
1.81341
1.23858
1.5053
1.21012
1.4343
2.66722
0.973084
1.23193
1.24267
1.14858
1.12352
0.749552
1.05595
1.29146
1.24549
1.11464
1.31184
1.14247
1.30405
1.13483
-33.5363
-38.143
-6.29427
1.01541
0.469528
-2.38233
1.1761
1.01351
1.13736
1.16552
1.34718
1.95797
1.53198
0.982262
0.96948
1.18057
-2.24716
-38.7789
-49.733
-48.3847
-51.6964
-54.2443
0.883705
2.28163
0.956719
0.987955
1.14889
1.07389
0.938515
0.968087
1.25872
1.0822
1.1194
1.35364
0.799968
1.43696
0.915823
1.41269
1.59044
0.977679
0.986714
1.04046
-6.15571
-6.1267
2.02658
2.86878
1.18487
-3.12904
1.38223
1.30602
1.26146
1.36388
1.22953
1.2688
1.37245
1.32813
1.38439
0.940302
1.35376
1.71834
0.951288
1.03148
1.03794
1.13487
0.961202
1.41277
1.15537
0.995862
1.04617
1.15101
1.07839
1.29638
1.62636
1.26256
0.95643
1.14406
1.2155
0.954956
1.62213
0.870093
1.51185
1.35355
0.995298
1.40158
1.42733
1.3677
1.41139
1.19371
1.11242
1.32135
1.30709
1.45685
1.46011
0.984545
1.15526
1.21863
0.892235
1.15978
1.00295
0.980894
0.867185
1.05752
1.40152
1.07002
1.41816
1.26687
1.43688
1.34221
1.4016
1.2405
0.972299
1.11686
1.21182
1.31793
1.20264
0.814206
1.00736
1.02656
0.590634
0.915994
1.08186
1.32371
1.17706
1.60848
1.27735
1.3098
1.56788
1.56746
1.30847
1.2107
1.4394
0.649574
0.892276
1.13232
0.953808
-31.8285
1.14996
1.11502
1.06773
1.4667
1.03526
1.26963
0.844305
1.13988
1.22109
1.17126
1.04042
1.37333
0.842544
1.22348
1.11878
1.69377
1.04002
1.34473
1.2352
0.614787
1.1911
1.02288
1.23187
1.12981
1.25599
0.988269
1.01948
1.22541
-35.7317
0.865779
1.16195
1.11387
1.02722
1.12017
1.14241
1.14972
1.16135
1.17353
1.24373
1.23071
1.01372
1.25298
1.30677
1.32346
0.963829
1.30823
1.34526
1.00151
0.922077
1.02765
1.47259
0.891039
0.992538
1.16691
1.15578
1.19221
0.843011
1.35521
1.38899
1.09404
5.97488
2.49189
1.34816
1.48001
1.33206
1.4829
1.64695
1.42085
1.74312
1.9049
1.81696
1.38469
1.51877
1.38528
1.30609
1.05315
1.02497
1.07622
1.28473
1.13567
1.26992
1.27563
1.05227
1.43022
1.06677
-2.63034
1.06484
1.57578
1.19529
1.77568
1.07628
1.02908
1.07966
0.956424
1.8835
1.24835
1.32132
1.45123
1.53689
-47.8995
1.82509
0.921855
0.00566533
1.90569
1.34111
1.30824
1.34696
1.18517
1.26232
1.25302
0.993949
1.2938
-25.0018
1.7287
1.26679
1.61574
1.14339
1.29008
1.50293
1.31999
0.94913
1.18286
1.26821
0.995868
-4.8399
1.15342
1.31864
0.886221
0.931584
1.22299
-37.0869
1.08553
-36.06
1.30504
1.33144
1.49869
2.09256
2.17773
1.45901
1.24941
1.35134
1.50108
1.32682
-3.63954
1.44487
1.35849
1.37297
1.2929
-38.5984
1.50279
0.81317
1.0695
0.897559
1.54212
1.16721
1.51829
1.15435
1.0612
1.32947
1.53212
0.264268
1.47213
1.02542
1.06793
1.56809
1.0274
1.16904
1.1395
1.28468
1.27268
1.02029
0.968175
0.872356
0.98741
0.941125
0.982539
1.6168
1.39248
1.04735
0.959921
1.13097
1.13978
1.02468
1.25863
1.06685
1.17648
-19.6998
1.52661
0.956585
1.1377
1.02338
1.30766
1.14325
1.77804
1.0672
-41.3626
1.21368
1.06384
-38.905
-36.7197
1.16475
-50.7765
-45.2541
-47.6495
-48.8061
-41.5554
1.07018
0.891016
-15.2089
-10.1807
1.01047
-34.8982
-43.312
-40.8687
-38.8993
1.10204
-6.06289
-47.6173
-14.3667
-41.1451
-20.0998
1.75005
1.01214
-45.0263
-36.3955
-43.5892
0.990743
1.2269
0.967001
-42.8348
1.0437
-43.1113
0.804799
1.20512
1.65398
0.726095
2.17805
0.588126
1.81681
1.6187
1.28205
1.18073
-0.272655
1.3492
0.78205
0.931462
1.6459
1.2338
0.816653
1.33071
1.37692
0.831511
1.17977
1.47875
0.832369
0.629242
0.928725
1.77462
0.928408
1.26809
1.53472
0.341397
1.0341
1.9388
1.70374
2.21897
3.41297
-7.57732
1.98333
-24.5778
1.13658
1.56231
1.0891
0.891513
1.04016
1.14446
1.01895
1.58203
1.55005
0.442996
2.33447
1.20391
1.47856
1.27075
1.01792
1.14141
1.41771
1.19173
1.30956
1.62656
1.46207
5.03789
1.28777
5.97275
1.15764
1.36766
1.1203
1.10353
0.970712
1.48223
1.12112
1.06516
1.28193
1.2673
1.03588
-44.9875
1.12558
0.947419
1.04841
1.16422
1.40876
1.50047
1.20272
-41.3299
-39.2184
0.84436
-2.05928
0.984609
1.1342
0.896756
1.17537
1.17652
1.21689
1.43089
0.664164
0.932157
1.14613
1.04908
-48.3006
1.14606
1.3048
0.246735
0.501603
-47.1763
-12.6098
-0.457097
1.14897
-30.2764
1.17893
1.05623
1.28081
4.51267
2.14042
1.55623
0.856116
1.10105
0.958785
1.0242
1.26534
0.801613
1.31004
1.12643
1.35792
1.25081
0.965053
1.161
1.25764
1.17761
1.16477
1.21765
1.00932
0.967716
1.07389
1.07101
0.920616
0.909236
1.01415
1.08906
0.957225
1.40578
1.16583
1.37628
1.1822
1.68648
1.30349
1.29563
1.08519
1.29706
1.30673
1.29616
1.69789
0.961239
1.13241
1.1009
1.13184
1.05467
1.21119
1.20575
1.22528
1.28869
0.887153
1.49593
1.21631
1.28677
1.27025
1.27056
1.06846
1.09866
-22.8441
1.07303
1.29622
1.31878
1.1681
1.55334
1.33559
1.0972
1.13086
1.06754
1.04835
1.2472
1.5291
1.50969
1.22225
1.44185
1.3641
0.731538
1.21628
1.58934
1.25546
1.04053
0.105085
0.906942
-0.324791
-0.167924
1.50898
-7.13775
-0.940753
1.35049
1.14822
-0.289926
-0.0106056
-0.218181
0.857606
1.04213
0.942788
-17.9388
-43.7037
-43.42
1.34638
1.05228
-2.12333
1.60824
1.06706
-0.829212
1.41933
1.44447
4.10275
-42.7659
-3.43443
-46.4277
-55.281
1.23345
1.5145
1.05676
1.52788
-38.8943
-44.2726
-50.1275
4.07558
-33.0952
-10.8788
-4.3674
-15.0372
1.27625
-65.4934
-43.6927
-45.8123
0.991906
1.34604
1.34001
1.33828
1.41995
1.84367
-6.50587
-51.6614
0.641022
0.71289
0.332274
-37.0051
-43.7379
-15.4082
0.958802
-38.0143
-33.6467
0.742542
1.03544
0.577981
0.384701
-3.50845
1.44337
1.47157
0.939884
1.30021
-47.3226
-43.8965
0.310218
0.62119
0.862907
0.621155
0.776185
0.973395
1.16218
1.36276
1.18034
1.42544
0.990326
1.23683
0.865194
-44.4287
0.737001
1.13668
1.47666
0.989299
0.994282
2.71788
1.32478
0.931651
1.47812
-47.1068
-0.753229
1.06231
1.31704
-2.56354
1.55236
1.21475
1.38623
1.28176
0.000969624
2.78355
2.97158
3.35824
-1.9134
1.36749
1.46497
3.27117
-3.13724
0.569397
1.28812
1.36891
1.63921
2.16282
1.09502
1.34838
1.08647
1.02866
1.10367
1.41043
1.27442
1.59152
1.5954
1.22576
-0.31656
1.51297
1.33658
1.35267
1.27955
1.2287
1.10178
1.10168
1.45457
0.91554
1.42189
-8.09424
-8.03179
-6.69455
0.927285
0.956776
1.265
1.14439
1.61501
1.2682
1.26287
1.26352
1.49529
1.1965
1.46352
1.56156
1.37419
1.3278
1.15703
2.33712
1.55704
1.39057
0.340185
2.88351
2.10071
1.13131
-0.0645806
1.39673
1.54655
1.79395
2.03608
1.46477
2.00362
1.13727
0.98237
1.04622
1.14902
-0.203574
1.88074
1.35154
1.26399
1.14146
0.225574
1.14818
1.14242
1.38101
1.17729
0.937702
1.36288
1.14275
0.979876
1.14714
1.14597
0.875436
2.23298
2.53294
1.35699
1.40742
1.31437
-38.1473
1.09142
1.2228
1.36626
1.1335
1.05426
1.15052
1.06058
1.13828
1.52153
0.965333
1.61589
-53.2444
-44.2219
1.04532
1.11054
0.89054
0.982103
1.56717
1.66815
1.431
1.26989
-45.3076
1.13097
1.20384
0.849469
1.00929
1.11093
0.923407
1.06325
1.14618
1.1418
1.20568
1.11678
1.17141
0.993639
0.998988
1.12149
1.0187
1.05958
0.959811
1.13446
1.00341
0.97186
-11.6467
0.952706
0.57374
0.835458
1.28522
1.27998
1.44853
-28.8545
-30.2858
-40.1995
-18.2172
-36.6056
1.68799
-38.8228
-20.3185
-41.7197
-36.4573
0.556334
0.687264
1.12991
-38.404
-36.1734
0.892151
1.34911
-0.034447
-42.218
1.4797
0.215688
1.19593
0.945226
0.917104
1.00429
1.28904
1.1567
1.27966
1.22909
1.35232
1.358
1.39855
1.61375
0.872918
1.42299
0.885556
1.03572
1.06938
1.37446
0.918233
1.32823
1.04184
1.03822
1.2955
1.17259
1.09723
0.975576
1.19883
1.16914
1.06143
-7.83931
1.56697
0.870809
1.17942
0.915831
1.67076
0.996163
1.05024
-39.1414
-37.2843
1.38513
1.63888
1.4913
1.43225
1.32153
0.840189
1.32822
1.36521
-0.994778
1.1924
1.33366
1.26467
1.21266
1.29152
1.29097
1.44383
0.900528
0.803609
1.95272
1.21969
1.22093
1.06889
1.79617
1.27365
1.30086
1.19876
-1.21421
-1.25635
1.22621
1.04616
1.1629
0.922395
0.887443
1.39039
1.54415
-2.54062
1.20463
1.1014
0.930925
1.01403
1.12297
0.849037
1.47339
1.22041
1.01031
1.0979
1.22183
-43.1047
0.982337
0.958778
0.989112
1.25344
1.01127
1.20648
1.19907
-7.85589
1.08669
0.878397
1.03544
1.34793
0.635255
0.681884
0.0205108
1.31422
1.09362
1.23332
1.20822
1.05917
1.34347
1.23178
0.964853
-1.59526
1.14093
1.31168
1.34415
1.27139
1.33807
0.498827
0.580078
1.36954
0.929926
0.454152
1.31446
1.86409
0.0500766
1.40668
1.70168
1.34237
1.19881
1.50128
1.30033
1.28105
1.37521
1.3775
1.55549
1.50356
1.3551
1.2896
1.29082
1.27744
1.61953
1.36694
1.18454
-0.0146185
1.5146
1.37055
1.2959
1.099
1.24505
1.38848
1.59914
1.199
1.12176
0.861043
1.07997
1.68251
1.24201
1.43768
1.30879
1.07772
1.40573
1.17536
1.18964
1.42674
1.40522
-44.1481
1.18359
1.21292
-0.624804
1.22773
1.23447
1.29819
1.81482
1.15095
1.32645
1.60415
1.18855
1.0273
1.24009
1.10402
1.23912
1.09551
2.1459
0.934651
1.47947
1.56907
2.05658
-40.1299
-36.1821
-46.1815
-45.9221
-37.4025
-48.4847
-44.2831
-45.6203
-40.5831
-41.1664
-38.1755
-37.0109
-41.1395
-45.9467
-35.8823
-38.9238
-38.0689
-45.6722
-40.6262
-37.4246
-41.9452
-48.5528
-43.305
-36.0436
-39.9031
-35.5252
-52.0153
1.17853
1.06327
1.27359
1.42027
1.21917
1.02427
1.1342
1.22433
1.19941
1.11809
1.01801
1.05058
0.930876
1.20486
1.32369
1.15891
0.981379
1.16673
1.22838
-0.722777
1.39206
1.27797
1.58731
1.73168
1.04625
0.91217
1.03359
1.04159
1.08958
-3.2897
1.55579
1.07158
0.614045
1.24053
1.45419
-0.802123
-0.489631
1.7759
1.9395
1.88421
1.59262
1.31593
1.33985
3.02737
0.709309
-3.3433
0.968207
0.84814
1.29572
1.28762
1.1282
0.599711
-14.0405
1.13149
1.22905
1.00906
0.0973065
0.735837
-1.27179
-7.18721
2.06414
3.19965
-10.5718
1.09271
1.17118
1.10916
1.0401
0.913574
-41.4692
1.39801
-40.0836
1.47219
-40.0685
-25.6481
-23.7112
-24.0687
-16.7105
-53.808
-54.3429
-54.4763
-18.0901
1.51445
1.38089
1.40944
3.53408
1.17702
1.19722
1.21132
0.962068
1.39789
1.44591
1.71222
1.6804
1.35625
1.50139
1.57742
1.09458
-39.9854
1.70278
-0.595526
-32.0405
-47.8462
-40.8084
1.23719
1.51596
1.23206
-41.7882
1.45611
-36.2959
0.993055
0.281996
-6.31807
0.797574
-6.57976
-56.5952
-46.8616
-6.3143
1.2408
0.516211
-5.78301
-23.5158
-7.34785
-51.6599
-36.4674
-42.8184
-37.4219
1.92651
1.38903
2.66662
2.90904
0.696734
-18.1089
-45.9697
1.30658
-49.8736
-36.8054
-11.0942
-10.5909
-7.98316
-46.2468
-6.51266
-3.85068
-46.7785
-43.2254
-58.0943
-39.9037
1.69805
1.8928
-34.2235
0.87102
-23.8326
1.08617
0.811627
-1.18202
4.27781
1.18068
1.2382
1.5003
2.88592
-1.15236
-0.360234
0.802033
2.02735
-15.354
-0.943294
-0.491314
-0.744345
1.3279
0.545426
-1.87651
-0.21151
-0.77539
0.0158489
1.68698
-0.198216
-0.483242
2.58997
-1.16667
1.00488
1.24426
1.36464
1.44407
1.54459
1.57764
1.44706
1.88505
1.45255
0.743771
1.34857
1.26563
1.28213
1.15066
-1.16925
1.17787
-32.6014
0.769517
-1.77384
1.23252
1.35112
1.24817
1.42958
1.18137
-1.4137
0.732696
0.866928
0.549767
1.08555
1.06999
1.30397
0.736861
1.09154
0.655845
1.2101
0.731265
1.22583
1.05676
1.25351
0.943724
1.03321
1.31437
1.4159
1.14522
1.45749
1.64015
1.44437
1.6095
1.31368
1.30166
-10.1471
1.5012
1.60674
1.24848
-37.0508
0.830769
1.5813
1.86062
-39.0671
-35.7317
-37.3702
-52.9433
-42.543
-42.4878
-53.0016
1.37896
-43.6824
-39.5323
1.38081
1.63756
1.5745
1.22459
1.95332
2.17832
1.11491
0.87748
0.901379
1.11603
1.22381
1.34829
1.26466
-43.8226
-40.6903
-38.9401
-36.9775
-39.018
-44.3114
1.45514
-15.6349
1.16796
-0.58684
-33.2778
1.2617
-29.6414
-42.4792
-40.4329
-40.9777
-49.8774
-26.4124
-53.4352
-51.9182
-50.2302
-48.2128
2.09635
2.19784
1.77252
1.87675
1.17113
1.02778
0.927986
1.09217
0.877756
1.0499
1.27932
1.4967
1.09043
1.27705
1.21888
1.44573
1.1149
0.98025
1.25416
0.971536
0.75764
1.00573
1.05786
1.08741
1.27149
1.28523
-17.0984
1.43006
1.33063
1.32991
1.27923
1.00171
0.970867
1.19661
1.23571
0.892419
1.10004
1.20621
1.32872
1.13159
1.05048
1.21087
0.875759
1.17686
1.20422
1.24326
1.2048
1.06177
1.09859
1.33481
1.26817
1.40519
1.24723
1.32767
1.39564
1.32748
1.52401
1.45436
1.49438
1.41348
1.36237
1.51354
0.927455
1.15595
0.640616
-36.7232
1.31071
1.1608
-9.98746
-42.8659
-0.749833
-8.87666
-28.1289
-19.0101
-10.1361
0.895955
1.28001
1.72647
1.16817
1.24553
1.16728
1.01876
1.20516
1.27177
1.2658
1.23979
1.23857
1.20652
1.25246
1.23664
0.967824
0.999529
1.03942
1.14501
0.950536
1.40178
1.49768
1.24816
0.247611
1.1189
0.967727
0.908484
0.898036
1.40498
1.18999
1.60753
1.44155
1.27903
0.820145
1.42101
1.27469
0.933798
1.75862
1.36601
1.45746
1.3173
1.30674
1.26777
1.514
1.35838
1.3091
1.45427
1.53112
1.4921
1.44677
1.45808
1.25644
1.19463
1.07499
1.34756
1.17021
1.31894
-38.0395
-45.4434
-54.0856
1.11401
1.23119
1.11866
1.1307
0.56952
1.66988
-0.698545
-0.42677
1.09109
1.22772
1.01567
1.03477
0.842673
1.23795
1.10749
1.20882
1.16536
-1.78182
1.33052
1.45618
1.35791
1.5892
1.44524
1.57244
1.17416
1.3922
-0.126919
1.53064
1.70046
1.76055
1.28141
0.826103
1.09502
0.938783
0.902467
1.1589
0.946398
1.11881
1.17312
1.0765
0.973981
1.44583
1.12115
1.56276
1.674
1.00605
1.73793
0.944153
0.978778
1.6487
1.76546
1.40842
1.28679
1.2108
1.05796
1.41806
1.14222
1.28455
1.61834
1.68146
0.834152
1.30132
0.715135
0.902304
0.652753
1.12768
0.946604
1.29365
0.910034
1.25116
-38.0892
-41.0357
-40.9785
-49.1007
1.26867
-45.6306
1.03942
1.19356
1.30998
-37.423
1.56057
1.47113
1.1147
1.56295
1.52341
1.27813
-23.5922
-12.2752
-47.0267
-53.7148
1.38526
1.42182
1.34265
2.23627
1.60705
1.45945
1.87008
1.28349
1.44483
1.20425
1.3275
1.59756
1.11832
1.66568
2.36051
2.14929
1.65039
0.331807
1.60672
2.07526
0.595137
-39.4483
1.16738
1.30132
1.39156
-53.8165
-44.135
1.24614
1.32279
-39.2873
-39.4029
-38.5403
1.58136
1.11384
-38.0328
-14.8323
-14.5306
-16.8493
-16.1192
1.2466
-23.9765
1.5224
1.32538
1.38209
1.59473
1.16967
0.937704
1.25928
-37.4398
1.57887
-40.8035
1.24756
2.46181
1.39569
1.84587
0.279655
1.32808
1.26783
1.22269
1.03673
0.805017
0.930131
0.702529
0.821528
1.03675
1.42399
0.924679
0.720195
1.35872
1.69609
1.26257
1.60932
1.2481
1.14975
1.2925
1.55466
2.4643
1.04631
1.17737
1.70595
0.935166
1.21118
1.71822
-9.22539
1.09013
-18.9857
1.1744
1.37837
1.19301
1.37719
1.21345
-5.592
1.49328
1.47419
1.2005
1.10856
0.913263
1.1714
1.34756
1.23222
1.68504
1.79004
-0.926229
-10.6736
-0.177216
-4.70196
-6.01515
1.10764
1.39511
0.92809
0.780096
2.63786
2.61416
1.65992
0.362908
2.20949
-14.9608
-3.56467
-44.6819
-30.1583
3.16838
2.26064
1.86153
0.548721
-40.0734
-45.2033
-1.66292
1.06363
1.46805
1.53145
-5.98586
-2.74992
1.38805
1.99343
2.96588
1.07411
1.29495
1.83853
1.64678
1.4584
1.60683
1.48026
1.43118
1.2154
1.68635
1.19896
0.969655
1.0698
1.35879
1.3693
0.972167
2.38149
-51.5
-48.4691
2.90528
1.44531
1.44167
1.29891
-6.37134
-47.9961
1.83387
0.903175
-6.60462
3.35293
-8.66989
-30.084
-2.80146
-3.62862
-54.165
2.28667
-56.8521
-38.3201
1.80006
-1.10601
1.53678
1.39723
1.14749
1.64565
-2.58196
3.28721
1.37257
2.12003
1.60244
2.27874
-0.0583714
1.03578
1.52152
-16.3095
-47.4864
-20.1518
-28.5961
-28.5092
-35.7553
1.79296
2.07167
2.19934
0.874836
-45.3889
-42.4258
-0.44212
-40.2034
-42.5512
-14.5614
-14.9333
1.02229
-33.5363
-19.069
-6.70596
1.38145
1.44946
-45.0793
1.2614
1.08711
1.31261
1.4412
0.921875
1.33792
1.68154
1.37461
1.20317
1.32471
1.20769
1.5735
-0.554889
0.374243
1.00283
1.30718
-42.7181
1.07326
1.65346
1.35141
1.5332
0.363962
1.49922
1.18078
1.63043
-47.9023
1.35714
1.75178
1.27846
1.28689
1.29694
1.53746
1.55157
2.56495
1.2295
1.41962
0.896234
1.30954
1.25248
0.998836
1.40375
1.27176
1.04731
1.41968
1.05353
0.978517
0.923402
0.98622
1.08922
-37.2989
-40.1936
-46.3753
1.73108
-39.0149
-9.63702
1.72441
-8.52879
-47.0405
-37.9419
-40.6984
-43.7656
-42.8981
-46.896
-46.5501
-42.3563
-44.2343
-12.5446
-36.6054
-41.7937
-53.7361
1.44036
-46.8918
3.42242
1.04731
1.33127
0.606963
0.916253
0.678807
0.642173
1.53131
1.1909
1.14027
1.29726
-45.3724
-54.3801
-39.2252
1.4639
1.81909
1.18917
3.67477
1.39821
1.81249
1.28958
-0.290457
-1.54005
-1.69126
2.31883
-46.3221
-42.6857
-42.1144
1.23062
1.17557
1.88869
-50.3979
0.621781
1.02627
1.02961
1.70025
1.54811
1.24019
1.01233
1.17603
1.5719
1.35844
0.99437
0.93693
0.807269
0.931125
1.20921
1.15335
0.969204
0.98617
1.34107
1.26487
1.37952
0.804632
0.975445
1.61902
1.16049
1.24286
0.69911
1.22032
1.2505
1.6136
1.24733
0.0363372
1.14807
0.809483
1.16294
1.28045
1.87724
0.724832
0.286897
1.5938
1.48434
1.35663
1.33957
1.56886
1.23281
1.47552
1.015
0.868045
1.28115
1.37744
1.13979
-9.62262
1.61347
1.70224
1.27966
1.56135
1.57592
1.56782
0.958371
1.26633
0.993014
1.1476
0.968974
0.931535
1.1089
1.49107
1.00598
1.02228
-4.08573
1.69015
1.10184
1.59474
2.14127
1.19389
0.894716
1.35975
1.01361
1.05535
-5.16698
-2.67576
1.18661
1.17524
1.13896
1.12541
0.809914
1.01894
1.46013
1.58229
1.62319
1.19647
1.42907
-0.195826
1.39137
1.12234
1.14159
-0.518984
1.36279
1.37179
1.45354
1.08953
1.12178
0.959827
1.16673
1.14255
1.34055
1.46925
1.67715
0.998606
1.08658
1.34531
1.38202
1.60295
1.23142
1.17869
1.64712
1.18072
1.20148
1.27164
1.35957
1.04368
1.56171
1.09596
1.38133
1.2378
1.01487
1.41622
1.14581
0.842461
1.24027
1.15311
1.37213
1.38772
0.883551
1.3553
1.26123
1.28331
1.35173
1.42113
1.29723
1.34241
1.21117
1.15236
1.15898
1.01006
1.27528
1.04415
1.14815
1.11543
1.197
1.46983
1.19032
1.13667
0.870103
1.16939
1.2543
0.987124
1.50609
1.28817
1.61001
1.46007
0.530486
1.25529
1.0974
1.19785
0.545116
1.01996
1.11454
1.36189
1.31628
0.732652
1.38247
1.34552
1.25185
-2.05293
1.44794
0.417034
-2.0033
1.30999
1.23821
-43.9644
-44.5254
-40.9926
1.06625
1.18935
-42.2553
0.86408
-51.4131
-47.4001
-1.51388
-54.1175
1.13446
1.28747
-5.12824
3.51893
1.2069
1.08416
2.8099
2.05011
1.68986
0.989646
0.906209
1.00277
0.954899
1.42899
1.12083
-50.8083
1.12819
1.09547
1.11919
-40.0067
-29.9257
-38.2901
-41.4106
-42.3856
1.19035
-38.6868
1.32219
1.17346
-36.5905
-41.7328
-37.7662
-40.8895
0.996163
1.30612
1.32065
1.30191
1.35338
1.00608
1.27925
1.17807
1.35247
1.04328
1.00897
0.933953
1.02702
2.27809
-0.112611
0.964776
1.09116
-52.9137
1.1583
1.22248
1.24576
2.13039
1.33606
0.867323
1.28718
1.55937
1.05646
1.47023
-38.1786
1.25986
-41.0814
-1.70429
-15.6697
-53.6064
-37.8934
1.38408
-35.6174
1.50126
1.31482
-41.3887
1.28435
1.26819
1.19459
1.16851
1.47555
1.52627
1.49009
1.34127
2.2661
-41.6164
-38.1334
-38.5142
-36.158
1.76116
-2.68797
-4.21932
0.699362
1.40715
-37.7827
1.11888
1.09386
-3.59016
-18.0094
2.76332
-50.213
-19.5181
2.08
-27.7788
1.18668
1.39014
1.93094
0.889694
1.41584
0.602153
0.931578
0.426259
2.54901
1.02183
-0.751933
-48.5841
-24.9783
-45.748
-2.14702
-3.41408
-3.49112
2.09326
0.889665
-0.621269
0.853464
-52.3128
-38.2261
2.33745
-46.7887
-4.82223
2.13202
1.76795
2.32196
1.17756
1.29689
-15.4216
1.03788
1.01011
0.711767
1.22062
1.26867
1.40245
1.10573
1.3399
0.97833
1.0816
-8.05282
0.905388
0.713777
-43.9041
-43.1721
-38.438
1.1396
1.34906
1.33486
1.1862
1.09334
1.27472
-1.23147
1.2635
1.11253
1.44791
-42.3856
1.0094
1.31673
-38.6355
-3.90227
0.0657538
1.41675
1.2479
1.76752
1.43818
0.363003
0.979457
1.0105
0.660041
1.30786
-5.97656
-4.65999
0.406138
-1.51918
1.35296
-2.92983
1.09596
1.207
2.48073
-28.4031
-2.20256
-0.729672
-33.4964
-1.4117
1.38068
1.23382
1.1493
-47.3647
-46.4998
-44.6342
-53.6676
-47.8764
0.951647
1.20534
1.24581
1.36468
1.439
1.14737
-1.89826
-3.42992
-0.576723
-27.1861
-17.1124
1.40496
1.31932
1.22208
1.45117
-1.62994
-1.42856
-3.39941
-9.09812
-0.777247
2.16785
1.51271
1.18311
0.892693
1.32485
-0.110341
0.885962
0.514776
-54.0639
-41.0955
-46.7266
-35.4058
-49.4815
-29.4837
-14.9964
0.959435
-47.5562
1.09275
0.954724
0.994173
1.14776
-23.6857
-19.1045
1.4492
-7.3132
-39.5722
-38.9425
-49.5694
1.49961
1.29611
-60.4759
-48.7657
1.41888
1.17062
2.44967
3.14111
1.16302
1.81953
1.40236
0.569681
1.37189
1.20455
0.769912
0.444884
2.50972
1.3335
1.33331
2.67719
1.528
1.31793
1.07314
0.389982
1.62722
2.79098
1.07679
1.17341
-0.431711
-0.954559
-7.9521
-13.8209
-6.64481
1.36568
1.17165
1.50868
1.20872
1.19759
1.30818
1.26034
1.28933
1.32076
1.32298
1.40145
1.2077
-0.446294
1.34383
-0.376018
1.38192
1.39166
1.61321
1.38355
1.00534
1.31297
1.24319
1.1002
1.41729
1.28714
0.728007
0.719677
0.9509
1.32809
1.4163
1.59662
1.33425
0.452424
1.17018
1.44972
0.491805
1.05978
1.21862
-1.15007
1.05583
1.01526
1.39173
1.19827
1.21503
1.3771
0.70527
0.877435
1.00507
-0.906403
1.40777
-36.6818
-37.8116
-35.8542
-34.3123
-6.84134
-6.24062
-2.77351
-1.39283
1.55338
1.00271
-2.42814
0.97088
1.01023
1.00633
1.67765
1.32611
1.11373
1.39682
1.25233
1.34299
1.39235
1.1876
1.45858
1.16956
0.972186
1.45794