/*--------------------------------*- C++ -*----------------------------------*\
| =========                 |                                                 |
| \\      /  F ield         | OpenFOAM: The Open Source CFD Toolbox           |
|  \\    /   O peration     | Version:  2506                                  |
|   \\  /    A nd           | Website:  www.openfoam.com                      |
|    \\/     M anipulation  |                                                 |
\*---------------------------------------------------------------------------*/
FoamFile
{
    version     2.0;
    format      ascii;
    arch        "LSB;label=32;scalar=64";
    class       volVectorField;
    location    "0.0321319";
    object      U;
}
// * * * * * * * * * * * * * * * * * * * * * * * * * * * * * * * * * * * * * //

dimensions      [0 1 -1 0 0 0 0];

internalField   nonuniform List<vector> 
3946
(
(10.114 0.0784733 -0.0421624)
(10.034 -0.0677664 -0.0184882)
(10.5799 0.456916 -0.108139)
(10.0101 -0.00243963 -0.00193872)
(9.89366 0.100741 0.0244777)
(9.26854 0.26657 -0.50273)
(10.1202 -0.021476 0.00793959)
(10.0203 -0.0288921 0.00173399)
(10.0062 0.0332865 -0.0236546)
(10.104 -0.0704221 -0.024717)
(9.90404 0.0109034 -0.0474337)
(10.124 0.054193 0.000326039)
(10.3813 0.993512 -1.57108)
(9.96011 -0.0442191 -0.00638798)
(9.99549 0.00235691 -0.00476155)
(10.1397 -0.24742 -0.0555163)
(10.0837 -0.0676948 0.0704786)
(10.0576 0.0708974 0.0262693)
(9.98078 -0.0438723 0.0847155)
(9.77851 -0.0270202 0.00820239)
(10.1467 -0.00441151 0.0224332)
(10.1937 -0.00376391 -0.0022885)
(10.0089 -0.075059 0.00660778)
(9.94801 -0.0165311 0.00851346)
(10.0153 0.315273 -0.0369977)
(9.99459 -0.00760073 -0.0143405)
(9.94297 0.0489141 -0.0423264)
(10.1147 0.0325276 -0.0343152)
(9.9965 -0.0446514 -0.014562)
(10.0698 0.0604498 0.00178511)
(9.8932 0.0471012 0.0737053)
(10.1237 -0.100516 -0.0473216)
(10.0754 -0.0946116 0.0229298)
(10.193 -0.0175918 0.0201253)
(9.87512 -0.33109 -0.0550597)
(10.138 0.0632821 -0.0353176)
(9.91897 -0.00030356 0.0199906)
(9.9222 0.104624 -4.8523e-05)
(10.0116 -0.0409309 -0.058685)
(10.1432 -0.0634739 -0.0392974)
(10.0181 0.0748489 -0.0193279)
(10.083 -0.000805683 0.037492)
(10.0433 -0.0258026 0.0330746)
(10.2687 0.361472 -0.0292313)
(9.98406 -0.0930062 0.0129118)
(10.0596 0.0254583 0.0357067)
(10.1496 -0.121217 -0.0177248)
(9.95728 -0.0834145 0.0137444)
(10.1046 0.125586 -0.0266461)
(10.0301 0.0137564 0.0104645)
(10.0723 0.0510858 0.00398593)
(9.95735 0.00305436 0.0352365)
(10.185 -0.0797377 0.0616919)
(10.0525 -0.101674 0.0216649)
(10.0196 0.0175033 -0.00557118)
(9.88271 0.0367833 0.0181097)
(10.0069 -0.098237 0.0445542)
(9.90588 -0.0437951 0.0648098)
(9.94275 0.018334 -0.00453349)
(10.0822 0.0615385 -0.0106466)
(9.93355 0.0102584 0.0714298)
(-0.450606 1.83709 1.25521)
(9.98966 0.0272906 0.0632125)
(10.0243 0.031943 0.00161957)
(9.90318 -0.0150825 -0.0814327)
(-0.274794 1.79711 0.935107)
(-1.36266 1.71437 1.40084)
(0.0760183 1.8996 0.659365)
(-0.0464511 2.02613 1.16289)
(10.5521 0.799943 -0.391681)
(9.99651 0.0336296 0.0389366)
(9.89548 0.103416 0.0620968)
(7.67072 0.324717 1.18174)
(10.1085 -0.0239569 -0.0247084)
(9.70233 0.0705132 0.670522)
(9.99436 0.0131165 -0.0473986)
(10.088 -0.0756796 0.014186)
(10.0397 -0.0120013 -0.000795004)
(10.0894 -0.0449634 0.0325908)
(10.0758 0.035576 0.0141122)
(-0.468789 1.7997 2.19148)
(11.2648 -0.0201078 0.462946)
(9.99148 0.00729225 0.00429915)
(9.85268 0.140747 0.0210517)
(10.0808 0.0259734 0.0573091)
(-2.76068 0.911844 0.626922)
(10.6945 0.292644 -2.14528)
(-0.598836 1.82095 1.29542)
(-0.401686 1.77581 2.169)
(-0.222242 2.01464 2.19775)
(1.4471 0.912236 2.70808)
(-1.15353 1.88848 2.47304)
(10.3211 0.123415 0.0840574)
(10.0255 -0.0137896 -0.030752)
(10.0541 -0.00939036 -0.00898081)
(10.1128 -0.0162893 0.0329651)
(10.0234 -0.0198115 -0.0984402)
(10.1169 -0.0758767 0.0547481)
(10.4583 0.0388349 0.0806229)
(10.0066 0.0354288 -0.0109352)
(10.2392 0.122545 0.0197972)
(10.1242 -0.0331572 0.0812109)
(10.076 -0.0307275 0.0184471)
(3.93298 2.05274 -2.40327)
(10.0466 -0.0201791 -0.0282513)
(9.96893 -0.109044 -0.125312)
(6.66369 0.597864 -2.31957)
(9.83464 0.197723 -0.0399097)
(10.0079 -0.000454945 -0.0332352)
(9.9962 0.0386531 -0.0435962)
(11.0899 0.0505012 -0.111941)
(10.0914 0.0213788 0.0120513)
(10.144 -0.0581427 0.0184444)
(10.0028 0.0102824 -0.0422465)
(10.0233 0.0252356 -0.017046)
(10.177 -0.0239785 0.00460794)
(10.9089 0.0181853 0.880683)
(10.3326 0.464734 -0.113817)
(-0.528717 1.64876 0.647746)
(-0.955682 1.76636 1.12252)
(9.87609 -0.172504 0.00620974)
(9.99345 -0.0312112 -0.00565649)
(9.9647 0.0164186 0.0382486)
(9.75027 0.870888 -0.159727)
(10.1222 -0.257092 -0.0512231)
(9.77544 -0.177585 -0.062486)
(6.3852 1.10074 1.07007)
(11.0815 0.333765 -1.31776)
(9.91326 -0.0862179 0.0515378)
(9.93226 -0.0673873 0.0857318)
(10.0507 -0.0118186 0.0782982)
(10.8516 -0.992626 2.37863)
(9.95526 -0.107194 0.0514081)
(10.1626 -0.0482336 0.236084)
(10.1688 -0.0249711 0.142844)
(7.308 -0.128665 -2.42338)
(10.1879 0.0258881 -0.0456895)
(-3.08979 0.837095 -0.424793)
(9.95652 -0.137715 -0.00987503)
(-3.03382 2.39043 0.225398)
(12.6349 -0.122126 -0.952928)
(1.773 1.32619 2.43104)
(-1.96919 1.27428 0.0928519)
(10.0925 0.0672272 -0.00893794)
(11.8087 0.00394053 -0.177772)
(10.0115 -0.00881782 -0.0540055)
(9.92163 0.0136955 -0.031697)
(9.91697 0.148495 0.0563571)
(10.0021 0.066784 -0.00699323)
(9.96057 -0.0878541 0.00979706)
(9.941 0.0567889 0.0317204)
(9.86785 0.0204186 -0.0474227)
(9.91793 0.0391795 -0.126984)
(9.97623 0.00544258 -0.0208639)
(10.1089 0.142662 0.00256687)
(9.98835 0.0537673 -0.0232792)
(10.0532 0.0437583 0.0361563)
(10.0115 0.0519962 0.0290323)
(9.91623 -0.113592 -0.123924)
(10.2963 0.0522137 0.028538)
(10.1661 0.14687 0.0633513)
(10.4893 0.4202 0.0631886)
(9.4559 0.206463 1.66715)
(10.1433 0.0122849 -0.0107153)
(9.94883 0.0175214 -0.0346488)
(10.0836 0.00227438 0.0190697)
(10.0593 -0.00952698 0.0157728)
(9.99852 -0.078467 0.173)
(10.014 -0.0304021 -0.0270572)
(-1.02928 0.0772643 -0.554667)
(10.1316 -0.0341442 0.0298732)
(8.18271 0.577066 -2.15665)
(10.0447 -0.0220124 -0.00748805)
(10.0259 -0.0103096 -0.0109577)
(10.1528 0.00357546 0.00925522)
(10.0074 0.00955665 -0.0165147)
(10.0585 0.0438735 0.0210638)
(9.93031 0.0142088 0.00716578)
(10.1068 0.24808 -0.252367)
(9.89195 -0.0249448 -0.00843904)
(9.9845 0.0115692 0.0246343)
(9.91249 0.0292532 0.0309808)
(9.97646 -0.0136123 -0.0115038)
(10.2003 -0.0862558 0.0727134)
(10.2389 0.0183935 0.0230673)
(10.2235 0.0146765 0.00800407)
(9.89189 0.0933754 0.0401644)
(10.083 -0.0806875 0.112748)
(9.85729 0.172771 0.106394)
(9.94224 -0.0436089 0.0513146)
(8.74396 0.428262 -1.37348)
(10.1193 -0.0783393 -0.0350199)
(-1.82163 1.8975 0.628416)
(9.94157 0.100185 0.013817)
(-1.22632 1.18425 1.61726)
(-0.854188 1.17886 1.91772)
(-0.579502 1.23355 2.16549)
(9.93026 0.0296485 0.0527436)
(9.90132 0.0799872 0.075303)
(9.96583 0.042737 0.00242957)
(9.94846 -0.00907277 -0.0226086)
(10.1582 0.166326 0.250607)
(9.96324 0.0224405 0.0758886)
(9.97803 0.101548 0.00858487)
(9.9288 -0.00838087 0.0332657)
(10.0732 -0.157863 -0.0225458)
(10.1259 0.194307 0.0529094)
(10.4282 0.0777121 0.220816)
(9.99038 0.152306 0.00970988)
(10.2005 0.143302 -0.0606176)
(10.3258 0.0817183 0.011753)
(10.1712 0.199088 0.0554395)
(9.60986 -0.100503 0.191582)
(9.66596 -0.125552 0.477553)
(8.82712 0.0013853 0.421023)
(9.8313 0.255856 -0.00263202)
(9.7368 -0.117866 0.376838)
(9.77761 0.0878466 -0.111636)
(9.87055 -0.05541 0.0410601)
(9.9052 -0.0212227 0.021836)
(-0.731966 1.77404 0.848046)
(-0.940903 1.10669 0.865036)
(10.1625 0.0368875 -0.00413762)
(9.88677 0.00958159 0.101954)
(10.3191 0.106978 0.0616495)
(-0.496114 1.18258 0.573334)
(-0.659359 1.03244 0.434565)
(10.2725 0.257496 0.526217)
(10.1206 0.0980827 0.393887)
(-0.374012 0.72666 0.617118)
(10.909 0.00747774 0.292947)
(10.4249 0.391265 -0.0567322)
(9.97238 0.00931797 0.19928)
(10.1888 0.240942 -1.83403)
(10.0409 -0.0714286 0.0314835)
(9.94126 -0.0943568 -0.000451629)
(10.0373 -0.0202742 0.0639447)
(9.93743 -0.0121679 -0.00483922)
(9.91155 -0.0941961 -0.00614251)
(9.99411 -0.014774 0.0317776)
(10.0786 -0.0379613 0.0121042)
(-0.324494 2.21321 1.23787)
(-0.448612 1.84629 0.80148)
(-2.17825 2.88141 -0.708141)
(10.0203 -0.0209362 0.0195391)
(9.97582 -0.0466856 0.0727334)
(9.99294 0.00679598 -0.0386687)
(9.87909 -0.0107511 0.0747209)
(10.6996 0.428372 -0.150947)
(10.0397 -0.0370559 0.00312583)
(9.9714 -0.0470524 0.0560331)
(-2.59463 1.06126 -0.839811)
(10.4415 0.0171599 0.0329955)
(10.4563 0.0168811 0.0406025)
(10.0403 0.00860452 -0.0512123)
(10.3938 0.167627 0.214122)
(10.1603 -0.0474654 -0.00800139)
(10.5284 0.232681 0.126002)
(9.97735 0.0669923 0.0217783)
(9.9496 -0.0449491 0.0400507)
(6.84405 0.760795 -1.28544)
(-0.613978 2.29922 0.790222)
(-1.18521 2.16024 1.03038)
(9.95198 -0.0202101 -0.0382654)
(9.87114 -0.0125008 -0.0627841)
(10.1005 -0.0863262 0.0268824)
(10.0924 -0.0250696 -0.00335111)
(9.95957 -0.0165757 0.0238931)
(9.94076 -0.0180496 -0.0474839)
(10.0817 -0.0810566 0.03354)
(10.0211 -0.0100481 0.0322818)
(9.98501 -0.012125 0.0313836)
(10.0394 0.025006 -0.0145799)
(10.4311 0.0753195 0.0442275)
(10.4807 0.0607359 0.0236905)
(10.5217 0.0669696 0.0415209)
(10.5437 0.0560195 0.0491886)
(10.4365 0.0768299 0.0585082)
(10.3703 0.067808 0.0590465)
(9.98183 0.0988701 -0.0160934)
(10.0416 0.148404 -0.0298402)
(9.96201 -0.0446589 0.0675581)
(9.85476 -0.254815 -0.013413)
(10.126 0.00197963 0.0234074)
(10.1257 -0.0543476 -0.0361608)
(10.0501 0.183675 -0.0958876)
(10.1469 0.175585 -0.092446)
(9.91315 -0.309363 -0.114201)
(9.94129 -0.0796565 0.0147385)
(10.1213 0.0600483 0.0311718)
(10.0039 0.0542423 -0.0108713)
(10.0644 -0.00862449 -0.016207)
(10.0613 -0.145153 0.341493)
(10.1971 0.00419173 -0.0139254)
(10.1388 -0.0927727 -0.0146718)
(9.89758 0.013554 0.016181)
(9.91854 -0.0194295 0.0589302)
(9.94441 0.0106997 0.0345848)
(9.90487 -0.159455 0.0591076)
(-0.27625 1.6828 1.34599)
(9.97256 0.122364 0.0348291)
(-0.586518 1.40513 1.08173)
(-0.158759 1.60552 0.822781)
(-0.486585 1.34364 2.31335)
(9.93394 0.0262691 0.0690303)
(10.3112 0.395128 -0.0843588)
(3.31659 1.20917 -1.55012)
(6.21237 2.1602 -2.96727)
(9.72358 -0.160969 -0.0274032)
(-0.875747 0.842243 0.644331)
(-0.924788 1.48086 1.4309)
(-0.774264 1.82905 1.62733)
(-1.04104 1.84611 0.391835)
(-0.656517 1.94562 0.00179122)
(10.0394 0.022932 0.0296053)
(6.49329 0.969799 1.74836)
(10.2051 0.0407992 0.0166243)
(10.0959 0.0243201 -0.0145736)
(10.2164 0.0284226 0.00359521)
(1.41435 0.827994 -0.923918)
(10.0722 0.00290987 0.0270937)
(-3.12669 0.855269 -0.73087)
(10.0732 0.00790142 0.00233766)
(10.0251 0.00782741 0.0134134)
(10.0916 0.19843 0.0336673)
(10.0218 0.127161 0.0597487)
(10.1387 -0.187532 -0.0576162)
(10.3085 0.0196671 0.476877)
(9.37956 0.282914 -1.47222)
(9.82816 0.0146154 -0.0694692)
(9.91118 0.0125169 -0.0684237)
(9.95836 0.0208591 0.0131131)
(10.0398 0.00707914 0.0446717)
(-1.6231 0.892582 0.425165)
(-3.57446 2.8074 1.36986)
(10.0687 -0.0628243 -0.0219049)
(10.0045 0.323905 -0.508706)
(-2.40539 1.73259 0.841471)
(-0.50717 1.47716 0.141237)
(-1.39895 2.14538 0.529028)
(9.84479 0.223596 -0.0886229)
(-0.329988 0.940908 3.06624)
(-1.69175 1.37983 1.68152)
(10.548 0.172269 0.0816537)
(-2.50916 2.46518 2.2212)
(8.57599 0.351111 1.32666)
(9.93432 0.445639 -0.803571)
(9.79489 0.364012 -0.0569317)
(1.46866 3.37931 -1.16516)
(-3.69567 2.60943 0.385474)
(-2.49203 1.27582 0.545379)
(9.06794 0.0178055 -1.10637)
(0.423077 1.41732 2.74169)
(9.75348 0.396966 0.219836)
(-2.71076 1.10031 1.01929)
(-0.675954 0.691431 0.194324)
(3.92418 1.0948 -2.54573)
(9.89798 0.0447106 -0.0938644)
(0.15905 1.16412 0.333167)
(-0.823989 1.00394 0.060794)
(11.1814 -0.262407 -2.19926)
(1.87656 0.8215 3.10329)
(10.3307 0.225642 0.0550177)
(11.228 0.00952218 0.364181)
(-3.12036 1.81375 1.7386)
(-3.89352 2.69889 0.335571)
(10.7111 0.308375 -1.54593)
(-2.68466 2.18292 1.26097)
(-3.57388 2.77053 0.699498)
(-1.60311 2.10472 2.46628)
(-1.83554 2.13039 0.718759)
(-3.74483 2.62528 0.418573)
(10.1461 0.00748037 -0.002597)
(9.77107 0.320036 0.278058)
(10.1257 0.193862 0.0401283)
(9.73152 0.296243 0.103424)
(10.0099 -0.012012 -0.0466412)
(10.0142 0.0552215 0.00698903)
(10.6052 0.103101 0.724334)
(3.34625 0.329394 -2.23143)
(10.5972 0.188506 0.0897902)
(11.0442 0.0578547 0.351606)
(10.4644 0.0898165 0.0588835)
(10.0928 0.433954 -0.120547)
(10.6373 0.89618 -0.466072)
(10.2485 0.439614 -0.120321)
(8.59279 0.0587588 0.866927)
(9.93856 0.768689 -0.826544)
(8.97281 0.92007 -0.489919)
(10.4367 0.155226 0.255445)
(2.50336 0.84216 0.967516)
(10.3597 0.268162 -0.0206127)
(10.3474 0.224101 0.000253384)
(-2.39893 1.82471 1.13216)
(10.7704 0.82557 -0.329824)
(0.0343847 2.06704 2.55743)
(10.3345 0.134199 0.0411843)
(9.04416 0.386352 1.04423)
(8.73432 1.64928 -1.20001)
(10.1306 0.37635 -0.0984079)
(10.0464 0.985687 -0.308545)
(10.0113 -0.12217 0.0293301)
(10.3933 0.109362 0.0160816)
(10.0824 0.113427 0.0162924)
(10.0956 0.0417854 -0.0647408)
(10.0564 -0.00429507 0.0152881)
(8.47285 0.578548 -2.39874)
(10.0879 0.757948 0.0464944)
(9.9638 0.377271 -0.0176175)
(10.3592 0.214365 0.0856146)
(6.83282 1.2573 -0.934941)
(10.0531 0.318844 0.0543021)
(9.50238 0.0593359 0.548336)
(10.3616 0.164784 0.0692033)
(10.4499 0.20478 0.0753584)
(10.5622 0.144558 0.0751829)
(9.99148 -0.0139908 -0.0234952)
(10.0086 0.0155492 -0.00753545)
(4.06554 2.17906 -1.15263)
(10.783 0.353351 -0.546638)
(10.0423 -0.0277743 0.0242413)
(3.50504 2.60757 -1.44812)
(10.0179 0.0141126 0.0201344)
(1.16548 2.26522 -2.21373)
(10.0136 -0.198468 0.0825763)
(9.92919 -0.139869 0.125771)
(9.89605 -0.186053 0.157139)
(9.94395 0.0420339 -0.000655808)
(10.0476 -0.105899 0.00253728)
(10.2177 -0.0594507 0.0573482)
(9.87835 0.0400561 0.220529)
(10.0876 0.365315 0.505799)
(10.1124 -0.0660324 0.0174718)
(10.0805 -0.270246 0.00315889)
(10.4642 0.454835 -1.04931)
(10.1226 -0.194281 -0.0249749)
(9.93524 0.0425977 0.0382578)
(10.0882 -0.0643971 0.0452047)
(10.5775 0.04559 0.0652996)
(10.3988 0.324811 0.238511)
(10.3279 0.362316 0.236935)
(10.296 0.362416 0.223773)
(10.366 0.347134 0.291162)
(10.4416 0.326994 0.262889)
(10.3078 0.298691 0.203508)
(0.871341 1.80957 2.99619)
(-0.152067 1.54223 -1.91847)
(9.48595 1.05002 0.237981)
(10.3463 0.349376 0.251775)
(9.95021 0.12613 0.0383632)
(9.97519 0.15877 -0.00866603)
(10.0096 0.274267 -0.0203174)
(10.0796 0.278405 -0.0122078)
(9.96233 0.18285 0.0267766)
(9.96494 0.202275 -0.0386939)
(9.99795 0.276794 -0.0356697)
(10.6059 0.0335144 0.0423801)
(9.97601 0.231791 -0.0405863)
(10.0718 0.269669 0.0761081)
(10.0992 0.231054 0.054913)
(9.38975 0.0792348 -1.39632)
(9.76795 -0.0312672 -0.268664)
(-0.406823 1.38905 2.43723)
(11.9646 0.0255724 -2.63804)
(2.12504 1.14866 1.45238)
(2.6817 0.43772 -1.41339)
(9.91651 0.074751 0.110758)
(10.6847 0.0147036 -1.74234)
(-1.15891 1.9488 0.789214)
(11.0453 0.109582 0.886919)
(9.68936 0.213941 0.883576)
(7.26544 0.964408 -0.331667)
(9.78103 -0.00840363 -0.0326916)
(9.87302 -0.0210295 0.0531675)
(10.0294 -0.0656952 0.00911082)
(9.96021 -0.102804 0.0125098)
(9.53098 1.0982 -0.886651)
(10.2626 0.280568 -0.0101111)
(10.5985 0.579888 -0.0893981)
(10.4896 0.149944 0.0112719)
(-2.64164 2.25057 0.90651)
(2.3129 2.10685 1.38028)
(4.14157 1.78135 2.16726)
(10.0846 0.953154 -0.0216301)
(10.0601 0.0323331 -0.0442982)
(9.95235 -0.089218 0.0511238)
(9.97092 -0.171573 -0.114764)
(10.0708 0.225156 -0.0180276)
(9.9518 0.440283 -0.0439526)
(9.88558 0.492923 -0.03589)
(9.68862 0.542798 -0.0707421)
(9.7591 -0.173011 -0.0196868)
(9.69697 0.506868 -0.206334)
(9.95678 -0.098227 0.0525129)
(9.99051 0.192156 0.0123616)
(10.0604 0.368304 0.0742712)
(10.0853 -0.0991033 0.0405963)
(10.4057 0.149498 0.0748495)
(9.7173 -0.169449 -0.0012227)
(9.71197 -0.11152 0.0370961)
(10.5525 0.278406 0.101739)
(10.4862 0.0976601 0.0566772)
(9.87231 -0.000760909 0.00839558)
(9.93733 -0.00062007 0.019601)
(9.85281 0.0402543 0.00703885)
(10.4071 0.267033 0.145299)
(10.4722 0.267212 0.145958)
(-2.47224 0.558394 -0.588093)
(-0.332954 1.47823 3.01617)
(10.0144 -0.102059 -0.0260422)
(-0.0506189 1.06449 3.38486)
(-2.44583 1.38153 1.39038)
(9.99704 -0.0467929 -0.0275552)
(8.77289 0.157366 -1.82901)
(11.3703 0.0776802 -0.623006)
(-2.44192 2.14187 -0.106791)
(10.0301 0.550574 -1.39472)
(9.34679 0.755553 -0.795844)
(10.7236 0.539303 -0.271841)
(9.85936 0.0323232 0.0118935)
(10.126 -0.000838308 0.0520475)
(10.5665 0.113537 0.0485073)
(10.4554 0.0841277 0.00185663)
(10.3859 0.119195 0.0995297)
(10.5208 0.109341 0.0247243)
(10.2587 0.196269 0.0765563)
(10.1944 0.262501 0.183406)
(10.1803 0.296735 0.28351)
(10.1649 1.20564 -1.36862)
(1.99189 1.66379 -2.70713)
(-3.55339 2.13424 0.113523)
(3.40022 2.0646 -1.76954)
(10.1253 0.323861 -0.0465204)
(6.97132 0.977372 1.24198)
(-1.73672 2.19747 0.530536)
(2.81621 1.14759 1.02164)
(9.8462 0.0640921 0.0115425)
(10.0159 0.0643732 -0.0666929)
(10.28 0.0505574 0.0395081)
(10.0224 0.0597297 -0.0198755)
(10.3619 0.142975 0.0759752)
(10.2871 0.126196 0.0583602)
(10.8354 0.0248318 0.165796)
(10.0608 0.0496124 -0.00484962)
(10.0211 0.00988447 -0.0445695)
(10.1516 -0.0127819 0.0202099)
(10.1966 -0.103574 0.121046)
(9.99489 0.0316103 0.0180447)
(9.93853 0.0503364 -0.00985587)
(9.92876 0.00558928 -0.0410103)
(10.0292 0.0571594 -0.0269667)
(10.061 0.0642936 -0.00127876)
(10.1377 0.00866362 0.00435837)
(9.92138 0.00935391 -0.0405293)
(9.96406 -0.0314375 -0.00702866)
(10.015 0.0341009 0.0104105)
(10.0124 0.0517073 0.0245435)
(10.4298 0.228762 0.183647)
(9.88107 0.0338619 -0.0409553)
(10.137 -0.0484156 0.00977932)
(10.0559 -0.0728649 0.0941274)
(10.0167 -0.0452946 0.0308651)
(9.69403 0.0469504 0.530607)
(10.1466 -0.0981486 0.086977)
(9.99962 -0.0399626 0.0350104)
(10.032 -0.0123397 -0.0205098)
(9.28412 0.333808 0.614014)
(10.0352 0.0353217 -0.0146541)
(10.0441 0.0310974 0.0143611)
(-1.53574 1.39446 2.72974)
(9.92474 0.0324602 -0.0018165)
(9.97894 -0.0228329 0.0475074)
(10.0769 -0.173141 -0.00901594)
(10.0496 -0.075843 0.0270874)
(10.0957 -0.0399151 0.0427031)
(9.9747 -0.00197089 0.00945821)
(9.96029 0.0642061 -0.0444932)
(9.9644 0.0335148 0.00505369)
(10.118 0.106503 0.0169407)
(9.95829 -0.0956414 0.0382829)
(9.88904 0.107284 0.0396716)
(9.87782 -0.0504753 0.0655617)
(9.8906 0.00833101 0.0750549)
(9.82482 -0.0278062 0.015068)
(9.82738 0.00187691 -0.0181665)
(10.002 -0.00303864 0.0269356)
(10.0486 -0.0711081 0.0186777)
(9.98527 -0.0918288 0.0323024)
(9.8352 0.039551 0.034413)
(10.0766 0.100337 0.0444361)
(9.95618 0.00882971 -0.0475271)
(10.0422 0.108742 0.104394)
(9.87043 0.0224094 -0.0453004)
(9.99792 0.0120932 0.0212452)
(10.0156 0.0476946 -0.106557)
(9.79757 0.314672 -0.00288259)
(9.94706 0.00296913 -0.0481946)
(10.0753 -0.138935 0.0645215)
(10.0013 -0.0322748 -0.0564553)
(11.5611 0.0450438 -1.18346)
(9.9608 0.0680388 -0.0116981)
(9.97447 -0.0779664 0.0329835)
(9.80199 -0.157783 0.0482692)
(10.1925 0.130474 1.47043)
(9.87478 0.013927 0.062897)
(10.102 -9.05285e-05 0.00609941)
(10.547 0.16843 -0.015779)
(10.0678 0.106413 0.0624264)
(10.5215 0.190051 0.0170429)
(10.0344 0.11511 -0.0226614)
(9.88881 -0.0447327 -0.0144792)
(9.38231 0.460885 -0.656618)
(9.8418 0.198944 -0.0384888)
(9.87337 0.179996 0.0676459)
(9.30022 0.236345 0.360318)
(10.0843 0.0646177 0.111779)
(10.0388 -0.116274 0.0317901)
(10.1416 0.100649 0.0275221)
(9.97442 -0.0244475 0.103466)
(9.96992 0.0314657 -0.0327949)
(9.82138 0.0117697 0.101)
(-2.69411 1.0554 0.279515)
(-2.65439 1.6162 0.632051)
(-2.21794 1.61299 1.30189)
(10.1671 0.110926 -0.0777745)
(10.1308 0.447797 -0.132882)
(9.84347 0.0258603 0.164189)
(10.0715 -0.00625812 0.0463641)
(9.88828 0.0960583 0.00478608)
(9.86134 -0.130775 0.0544668)
(10.0048 0.0344156 0.0251247)
(9.92698 -0.0547727 0.0996894)
(9.24507 0.737742 -1.82919)
(9.65293 0.581211 -2.48807)
(6.61101 0.51787 -2.778)
(9.27349 0.22398 -2.99637)
(10.0166 -0.0804247 -0.0752238)
(8.27037 0.844518 -2.02835)
(10.038 0.0170697 -0.0413503)
(9.35648 0.702734 -2.01511)
(9.91485 -0.0206658 0.0686557)
(9.9914 0.708931 -1.7356)
(10.0261 -0.0186994 0.0176053)
(10.2773 -0.0409104 0.0553271)
(10.2483 0.0484072 0.00844345)
(10.0442 0.148344 0.0273444)
(10.0019 0.00159629 -0.0552012)
(8.90609 1.32169 0.151534)
(10.4589 0.474302 -0.116392)
(9.90104 -0.0254291 0.0363556)
(10.0923 -0.0370712 0.0261546)
(10.0234 0.0550601 0.0157585)
(9.95094 -0.0907433 0.0483103)
(10.0049 -0.0280622 0.0452891)
(9.91907 0.00754948 -0.0281121)
(10.0366 0.0505287 0.0259371)
(10.0054 0.144912 0.013034)
(10.0618 -0.218221 0.0678442)
(9.97757 -0.100677 -0.0230854)
(10.1612 -0.149179 0.0276501)
(10.1142 -0.0585166 -0.0151261)
(10.2572 0.445484 -0.325461)
(10.1253 -0.0448056 -0.0141192)
(10.0505 0.0231482 0.042352)
(9.88776 0.0345794 -0.000482174)
(9.92856 -0.0763159 0.0667774)
(10.0554 0.54472 -0.432917)
(11.7758 0.00997014 -0.655265)
(10.415 0.140489 -8.70856e-05)
(10.0428 0.0437807 -0.00192942)
(10.456 0.436795 -0.0460907)
(10.1609 -0.00351112 0.0279596)
(10.0195 0.0168151 0.0223665)
(-1.02904 1.94993 2.84452)
(-0.177848 2.0265 3.0876)
(-1.15013 1.68991 2.85117)
(10.0882 0.0507866 -0.0163908)
(10.2916 0.0722729 0.695711)
(9.89351 -0.114862 0.205699)
(10.0263 0.0368928 -0.00802635)
(5.90135 0.233277 -0.22638)
(-0.890618 2.14523 2.87129)
(9.96189 -0.0926443 -0.0463866)
(-0.30892 1.84303 3.07443)
(9.97554 0.0176075 0.0444203)
(10.101 -0.0268411 0.0842359)
(10.3536 0.083549 0.438011)
(9.46649 0.203203 -0.102235)
(10.0705 0.799675 -0.0229954)
(10.1159 0.332493 -0.0281314)
(10.0681 -0.02952 0.011779)
(10.0423 -0.0608018 -0.00533992)
(9.91047 -0.0108827 0.0879951)
(9.92848 0.032095 0.00908312)
(9.95363 -0.0177672 0.064026)
(9.98832 -0.0589587 0.0448956)
(9.51005 0.148892 2.50335)
(-2.84482 1.30187 1.36274)
(9.98599 0.0655554 -0.0412726)
(-0.343921 1.4141 0.167028)
(1.5643 0.653056 -1.80727)
(9.91124 -0.131372 -0.0218676)
(9.80865 0.35693 -0.115797)
(10.0122 -0.0691544 0.184776)
(10.136 -0.00670882 -0.0579461)
(10.0369 -0.0681092 0.0161453)
(10.0842 -0.050553 -0.118525)
(10.0983 0.0268263 0.0426389)
(9.92478 -0.21037 0.0141745)
(10.3682 0.09513 0.0501887)
(10.0096 -0.0158779 -0.0176643)
(10.0765 0.364664 0.536026)
(9.81994 -0.00973778 0.0814664)
(10.005 0.0502924 0.0394713)
(10.0559 0.0500243 -0.0230078)
(9.98879 0.135423 -0.0398469)
(9.9191 -0.0604436 0.0265047)
(10.0481 -0.0212542 -0.0199121)
(9.96977 -0.0419783 0.0260733)
(10.1775 0.0544467 0.0273633)
(10.094 -0.00174263 -0.0466044)
(10.0079 0.047774 0.020089)
(10.0086 -0.0408897 -0.0363583)
(10.0544 -0.0253121 0.0263099)
(10.3974 0.093118 0.175546)
(10.1678 0.108406 0.0304832)
(9.85835 -0.0449759 0.129201)
(10.7499 0.922126 -0.527254)
(9.91527 0.00303093 0.107207)
(9.99281 -0.0450709 0.0492698)
(10.0852 -0.0758781 -0.0300732)
(9.86749 -0.0110232 0.00986969)
(10.0555 -0.0179078 -0.0210797)
(9.94307 0.124232 0.105705)
(10.0295 0.00616411 0.0359844)
(9.99808 -0.0462135 0.00576403)
(9.88405 -0.0283896 0.0818865)
(10.615 0.745893 -0.563988)
(9.97541 -0.00554321 -0.0517329)
(10.013 0.036664 0.00932637)
(10.0193 -0.046198 -0.0163629)
(10.0665 -0.112288 0.0206769)
(9.9739 0.0265432 -0.0138303)
(9.9367 -0.103086 -0.226005)
(10.1635 0.601307 -0.239053)
(10.0985 0.101928 0.084047)
(10.0175 0.351853 -0.0195536)
(10.5869 0.195917 0.0668444)
(10.1468 -0.103277 0.417494)
(9.23405 0.262222 0.465885)
(-2.19877 1.31193 1.17012)
(-3.63148 1.38962 0.830576)
(10.0198 -0.0900394 -0.0126064)
(-3.3593 0.406443 0.682289)
(-1.36112 1.07099 -0.130993)
(-1.83253 1.22181 -0.700169)
(-3.76494 1.27998 0.498849)
(9.80309 -0.142837 -0.136996)
(-0.72519 1.85318 3.04154)
(-2.82414 1.94843 1.31655)
(-4.19837 2.39987 0.724035)
(5.529 1.3699 0.213709)
(10.3582 0.948326 0.0144302)
(9.93778 0.0795175 -0.028349)
(10.7535 0.519467 -0.106234)
(10.1424 -0.0635894 -0.0179271)
(-0.883746 1.78507 0.447703)
(10.6909 0.03809 0.512804)
(10.8261 0.0973969 0.738775)
(10.3214 0.200297 0.768572)
(10.3111 0.0228201 0.753094)
(10.0759 0.381177 0.148797)
(10.2276 0.620271 -0.302828)
(-3.01477 1.10905 -0.770409)
(-1.27688 1.46492 1.75141)
(2.36226 1.56051 2.80172)
(-0.755428 1.45863 1.86656)
(-2.66015 1.53122 0.915053)
(-2.10048 1.87269 2.01873)
(10.1543 0.521308 0.0682026)
(10.6664 0.0923928 0.234722)
(10.0015 0.053077 -0.00199573)
(10.1454 0.117635 0.0767208)
(10.4466 0.0117339 0.0794483)
(10.0849 0.134772 0.036937)
(10.0707 0.129294 0.0487485)
(10.2724 0.0765608 -0.0519855)
(9.9708 -0.0217873 0.0394878)
(10.0488 -0.0155782 -0.0195071)
(10.1462 0.183504 0.0305283)
(6.24926 0.0392222 3.21945)
(9.98136 0.0123738 -0.0290436)
(9.81088 0.0686158 -0.0183002)
(9.74743 0.0924325 -0.074272)
(9.9088 0.0765164 0.0664999)
(9.65549 -0.136267 0.0477163)
(10.0258 0.034554 0.0109548)
(9.81665 0.0943471 -0.0349295)
(10.5353 0.42522 0.0983937)
(10.1178 0.00771551 -0.0309324)
(10.0892 0.877246 -0.0492347)
(10.2479 0.165772 0.0238464)
(10.4069 0.364385 0.141453)
(10.2235 0.0194821 -0.00214606)
(9.88375 0.717628 -0.197862)
(10.101 0.0180418 0.0277827)
(10.1486 0.227302 0.0598138)
(9.50485 0.544598 -0.265821)
(9.38016 1.07045 -0.543231)
(10.7685 0.671661 -0.124932)
(10.057 0.0127735 0.0502818)
(10.0063 -0.117534 0.00476662)
(8.72744 1.0226 0.227193)
(9.93372 -0.287938 -0.0779034)
(10.1595 0.56061 -0.0853354)
(9.98736 0.131041 0.0307253)
(10.0186 0.0832573 0.0786711)
(5.67657 0.283578 0.195353)
(1.00671 0.506349 -0.48229)
(8.44557 0.42756 0.029753)
(5.50086 0.668444 -1.62023)
(10.4726 -0.0755905 0.192447)
(10.5559 0.00890134 0.223663)
(10.5607 0.187617 0.0716013)
(10.6658 -0.0681413 0.221114)
(10.0588 -0.108689 0.518302)
(10.7702 0.5376 -0.757465)
(10.1345 1.31831 -0.589663)
(9.68975 1.14208 -0.340463)
(9.91647 -0.0293516 -0.269411)
(10.4554 0.0344782 0.0533776)
(9.97139 0.00672399 -0.0163829)
(9.94295 -0.022856 0.0291041)
(10.0155 0.0840656 0.0416198)
(10.3412 0.675695 -0.39995)
(9.95467 -0.147976 0.0118184)
(-0.455963 1.5818 3.044)
(9.89341 -0.0175387 0.00123598)
(10.6082 0.71931 -0.27885)
(10.0155 -0.0880971 -0.0380064)
(-3.20299 2.19312 2.04846)
(10.0919 0.492956 -0.173105)
(10.1884 0.0528776 0.00475026)
(7.63938 0.138319 0.767017)
(10.4068 0.5155 0.0339334)
(6.09975 1.27626 1.09631)
(-0.0779152 1.95371 3.31165)
(10.6996 -0.588127 1.44422)
(10.6157 -0.0699659 -2.47867)
(11.045 -0.00243006 0.363269)
(-3.70673 1.86988 0.662662)
(12.1216 -0.40985 -1.52063)
(9.3529 0.509865 -2.65343)
(9.91952 1.21522 -0.446604)
(-1.88455 1.59479 0.981246)
(-3.04167 2.12403 0.420378)
(9.07338 0.781718 0.0210097)
(7.30138 -0.15496 -1.98105)
(9.79836 0.35173 0.300439)
(10.1149 0.218465 0.0246748)
(10.2812 0.593437 -0.508834)
(9.79311 0.298855 -0.140614)
(10.2025 0.892575 -0.0186899)
(10.5452 0.319296 -0.00777609)
(10.3733 0.000568897 0.0404135)
(10.2709 0.11363 -0.0201407)
(10.2168 0.153659 -0.00441801)
(9.80209 0.119526 0.113654)
(8.94929 0.0640778 -0.776361)
(10.0132 -0.0410668 -0.0210518)
(10.511 0.181084 0.0702547)
(10.5811 0.104178 0.0261088)
(7.98126 0.425397 0.000601472)
(8.08181 0.25 -0.598337)
(9.96383 0.124757 0.024114)
(10.2619 0.0724179 0.539987)
(9.43829 -0.126033 -0.00706612)
(10.2669 0.0385698 0.0262295)
(10.0981 -0.00124579 0.00590637)
(10.063 0.121686 0.0244961)
(10.0755 0.0401419 -0.00600771)
(10.1165 0.118647 0.0629264)
(9.93654 -0.365219 -0.0646078)
(9.99493 0.0545417 -0.0181518)
(10.2682 -0.0223148 0.309444)
(10.1992 0.00457263 0.545766)
(10.3147 -0.0751302 0.204784)
(10.0999 -0.154852 0.168547)
(10.0248 -0.14685 0.0819282)
(10.03 -0.0963822 0.202807)
(9.89164 -0.060865 0.0840933)
(10.0745 -0.0722981 -0.0498046)
(10.0977 0.189844 0.0949247)
(9.99057 0.191107 0.0294946)
(10.0424 0.150357 0.0430386)
(9.89494 0.581218 -0.134048)
(9.98758 0.0559897 -0.0340489)
(9.9959 0.135252 0.0355087)
(9.33418 0.624794 0.100931)
(8.65307 1.08714 -0.760164)
(9.6624 0.516552 0.0572877)
(9.85013 -0.195883 -0.0724023)
(10.0322 -0.0556167 0.00737652)
(9.97765 -0.171069 -0.040537)
(9.98313 -0.120637 0.0122158)
(9.8426 -0.121951 -0.0795522)
(9.99195 0.0593504 0.0224377)
(12.3425 0.093606 -1.99891)
(3.05123 2.10892 0.847818)
(9.95567 -0.104762 0.0556183)
(2.23355 0.482376 -1.15279)
(-2.51391 0.857906 0.747603)
(9.83577 0.228158 -0.079706)
(8.01062 0.682068 -0.0814104)
(10.0011 0.115251 0.525475)
(8.93481 0.333621 -0.761371)
(9.31414 -0.00944943 0.14238)
(7.9244 0.193739 1.42642)
(10.3354 0.0268494 0.152474)
(-2.03946 0.638292 1.8956)
(-2.87966 0.00679582 -1.26713)
(3.6913 -0.00811838 1.15423)
(-0.956761 0.98478 2.41938)
(9.9779 0.050715 0.0296448)
(9.99823 -0.0259237 -0.0258174)
(9.94455 -0.0351926 -0.0847525)
(1.72881 -0.0108656 1.38719)
(9.95389 -0.0157693 -0.0635123)
(9.93987 -0.0168794 -0.0643109)
(9.97421 0.0358828 0.134041)
(8.20299 0.602452 -3.12932)
(-0.18894 1.29254 3.12514)
(-4.48907 3.11303 1.20134)
(-0.423183 0.207466 0.659458)
(-3.15492 3.22988 -0.368081)
(-1.32309 1.68669 1.55774)
(9.75484 0.551601 -0.328019)
(2.37101 0.240078 2.29607)
(1.29398 0.834392 -1.48982)
(9.85667 0.50581 0.307294)
(3.5277 0.43857 0.557702)
(-4.35229 0.87475 -0.647057)
(9.06775 -0.0128626 1.49865)
(2.33426 1.25931 -0.986164)
(-1.03242 1.41151 2.30175)
(-1.49653 2.21059 0.654842)
(10.0774 0.167593 0.234384)
(-3.43698 2.31049 0.574129)
(10.5258 0.0720428 -0.135207)
(3.56194 1.51744 2.55528)
(-1.07315 1.15931 1.80845)
(10.0556 0.104634 0.6026)
(5.58674 0.672399 -1.27833)
(-2.61334 2.34703 0.521065)
(-3.61341 2.22478 1.3729)
(10.0247 0.0129095 -0.00237931)
(6.03169 0.753093 1.13206)
(-2.60799 2.47049 0.434956)
(9.86125 0.114872 0.0483323)
(10.5866 0.258392 0.09792)
(10.3357 0.0813447 0.00174881)
(-3.29636 2.59868 0.244058)
(7.9128 0.183858 1.96782)
(10.5708 0.0942382 0.157681)
(9.91371 0.603357 -0.0587469)
(9.74329 0.73831 -0.0542511)
(9.94233 0.297214 0.0179426)
(9.9657 0.32721 0.0112885)
(10.367 0.863856 -0.236554)
(6.97637 0.578815 -0.66772)
(8.65021 1.89398 -0.769236)
(10.3164 0.769819 -0.284872)
(9.64482 0.640882 -0.146603)
(10.4299 0.225933 0.33158)
(2.55708 1.49535 1.83882)
(4.51003 0.449416 1.4753)
(1.84412 1.48024 1.16094)
(3.64486 0.700514 1.26035)
(-3.69697 1.21982 -0.0315164)
(-2.37364 1.1355 0.832286)
(10.3298 0.358494 -0.0377224)
(8.56939 0.281811 0.665707)
(10.0702 -0.046931 0.0401345)
(8.50101 0.570978 1.1322)
(9.40864 0.234813 1.13039)
(10.497 0.346579 -0.443314)
(8.25602 0.309219 -0.404085)