/*--------------------------------*- C++ -*----------------------------------*\
| =========                 |                                                 |
| \\      /  F ield         | OpenFOAM: The Open Source CFD Toolbox           |
|  \\    /   O peration     | Version:  2506                                  |
|   \\  /    A nd           | Website:  www.openfoam.com                      |
|    \\/     M anipulation  |                                                 |
\*---------------------------------------------------------------------------*/
FoamFile
{
    version     2.0;
    format      ascii;
    arch        "LSB;label=32;scalar=64";
    class       volScalarField;
    location    "0.0689058";
    object      nut;
}
// * * * * * * * * * * * * * * * * * * * * * * * * * * * * * * * * * * * * * //

dimensions      [0 2 -1 0 0 0 0];

internalField   nonuniform List<scalar> 
3972
(
0.00372268
0.00292766
0.00673831
0.00604578
0.000338608
0.00288412
0.00315467
0.00291455
0.00324611
0.00123497
0.00237521
0.00329082
0.00393461
0.0061169
0.00647833
0.00698659
0.0066861
0.00255865
0.00621926
0.00528488
0.000916853
0.00195091
0.00334396
0.0064509
0.000295868
0.00584054
0.00630681
0.00502899
0.00191146
0.00640064
0.00106905
0.000540233
0.00639481
0.00139154
0.00660196
0.00655768
0.00221577
0.00510686
0.00519955
0.0023025
0.00489296
0.00725814
0.00205341
0.00304374
0.0051181
0.00559825
0.00532376
0.00231882
0.00303134
0.00525552
0.00509391
0.00361553
0.00218423
0.00399863
0.00153013
0.00537751
0.00289172
0.00303469
0.00283652
0.00207739
0.00346572
0.00302268
0.00570563
0.00299268
0.00541535
0.00232636
0.000978324
0.00300008
0.00253938
0.0029196
0.00284134
0.00290555
0.0017375
0.0067334
0.00146927
0.0068922
0.0017881
0.00323338
0.00489475
0.000803376
0.00174491
0.00500147
0.00710309
0.00455939
0.00350505
0.00423433
0.00500809
0.001679
0.00352214
0.00364122
0.001088
0.00235094
0.00143099
0.00120523
0.00568178
0.00645606
0.00675203
0.00568735
0.00474475
0.00644996
0.00662792
0.00693205
0.00559613
0.00621016
0.003243
0.00392016
0.00243226
0.00607465
0.00183239
0.00665848
0.00158199
0.00690664
0.00704972
0.000878471
0.00247598
0.00462065
0.00650957
0.00299988
0.00309769
0.00137393
0.000740076
0.00295947
0.00349268
0.00424671
0.00539875
0.000900288
0.00291926
0.00118725
0.00105903
0.000939384
0.00129778
0.00177858
0.00112823
0.00062478
0.00364672
0.00361016
0.00293549
0.00306401
0.00288045
0.00397443
0.0012434
0.00677828
0.00171309
0.00121213
0.00280266
0.00541962
0.00206942
0.00683692
0.00296929
0.00113717
0.00501431
0.00347911
0.00623653
0.00446025
0.00247237
0.00330332
0.00538662
0.00159468
0.00190705
0.000814498
0.0071595
0.00690689
0.00403921
0.00336976
0.00582339
0.00109521
0.0037591
0.00255524
0.00319259
0.00167755
0.00148896
0.00569911
0.00696664
0.00702922
0.00641892
0.00626183
0.00485911
0.0070433
0.00694783
0.00701243
0.00480819
0.00316678
0.00375948
0.00201555
0.00672842
0.00676502
0.00622843
0.00545043
0.00644105
0.000165874
0.00654952
0.00673105
0.00110952
0.00673568
0.00594704
0.00651441
0.00689125
0.00415665
0.00328472
0.00527269
0.00629471
0.00354609
0.00246724
0.00497181
0.00669804
0.00429931
0.00633173
0.00224647
0.00281298
0.0034899
0.00260241
0.00439616
0.00135185
0.00133454
0.0061731
0.00421306
0.00179399
0.00447721
0.00279458
0.00447476
0.00618908
0.00125279
0.00354664
0.00597884
0.000698149
0.00591989
0.000253684
0.00198625
0.000350734
0.00107524
0.00031895
0.000953924
0.00074818
0.000682541
0.00352655
0.00593229
0.00332051
0.00673478
0.00184285
0.00196971
0.00194526
0.00120223
0.00077022
0.00164558
0.00287903
0.00665136
0.00350686
0.00664471
0.00719469
0.00227058
0.00598205
0.000241374
0.00109547
0.00237676
0.00701955
0.00260816
0.000627564
0.00142776
0.00649361
0.00311752
0.00132655
0.00289107
0.00393286
0.00712158
0.000645902
0.00162082
0.00696605
0.000915087
0.00210779
0.00685323
0.0030654
0.00147709
0.000757199
0.000944605
0.00115674
0.000820524
0.00480342
0.00276619
0.0071351
0.00692851
0.00355037
0.00126935
0.00632539
0.000624979
0.000425928
0.000291879
0.00650095
0.0041659
0.00737112
0.00509407
0.00705976
0.0040514
0.00214165
0.00603869
0.000600422
0.000824672
0.00497856
0.000716871
0.00335112
0.000249363
0.00652713
0.00521406
0.00281706
0.00274047
0.00340039
0.00311651
0.00230509
0.00235613
0.0042554
0.00311995
0.00225302
0.00535122
0.000701924
0.00327043
0.000647293
0.00566562
0.00647817
0.00683222
0.0041812
0.00509452
0.000725258
0.000335838
0.00297225
0.00689482
0.00713056
0.00284843
0.00604504
0.00564997
0.00736767
0.00273465
0.00529421
0.000762844
0.00134794
0.0070232
0.00694111
0.00282814
0.00609897
0.00164745
0.00673046
0.0028161
0.00117107
0.00697974
0.00101373
0.00659902
0.00558475
0.00685802
0.00318002
0.00233327
0.0055206
0.00330836
0.0057955
0.00282687
0.00428361
0.00492331
0.000362264
0.000797875
0.000562323
0.00429896
0.00357002
0.00661592
0.00697313
0.00697111
0.00705905
0.00166349
0.00585445
0.00631685
0.00394376
0.0045386
0.00461275
0.00586044
0.00707828
0.00587934
0.00633774
0.00714484
0.00338391
0.00516318
0.0055684
0.00349352
0.00391002
0.00298833
0.00638305
0.00330213
0.00660369
0.00124255
0.00548146
0.00119114
0.0056632
0.00097547
0.00425933
0.00402733
0.00142709
0.00705898
0.00165148
0.00742901
0.00187145
0.00366639
0.000277619
0.000422169
0.00635615
0.00634758
0.00113697
0.00552833
0.00714311
0.0039369
0.00119308
0.00699435
0.00347755
0.0010856
0.00602366
0.00436771
0.00693925
0.00188662
0.00524419
0.00603314
0.00344164
0.00031491
0.00531185
0.00703975
0.00743819
0.00627806
0.00612275
0.00277904
0.006301
0.00654311
0.00435243
0.0065836
0.00269237
0.00715692
0.00132126
0.00426945
0.00700246
0.00376557
0.00377081
0.00590055
0.00604263
0.00231561
0.00243589
0.00351362
0.00588805
0.0039794
0.00606501
0.00320316
0.00591163
0.00546721
0.00656327
0.00741087
0.00401307
0.00622423
0.00445226
0.0058978
0.00655418
0.00187498
0.00206768
0.00187858
0.00642762
0.00323867
0.000500239
0.000436299
0.00123199
0.00291955
0.0012039
0.00152543
0.00574095
0.00246988
0.00212556
0.00124517
0.00694284
0.0054425
0.00682273
0.00356748
0.00346816
0.00354395
0.0018143
0.00212686
0.00659338
0.00108316
0.00198507
0.000726238
0.0043389
0.00333733
0.00232039
0.00204665
0.00236723
0.00232296
0.00250034
0.00608297
0.00516729
0.00211782
0.00494917
0.0048176
0.00360109
0.00388513
0.000731595
0.00169619
0.00125659
0.00079295
0.00218247
0.00448874
0.00317371
0.00481272
0.00478001
0.00191919
0.00610479
0.00231049
0.00371666
0.00160755
0.00521133
0.00624518
0.0056461
0.00334198
0.00175616
0.00370921
0.00177838
0.00154724
0.00357014
0.00387589
0.006173
0.00685131
0.000596578
0.000632281
0.00067197
0.00172421
0.00347297
0.0016936
0.000425229
0.00672861
0.00355667
0.00114302
0.00145952
0.0067045
0.00169841
0.0014116
0.00718692
0.00170808
0.0017794
0.00310774
0.00471846
0.00474291
0.00505043
0.00442796
0.00472397
0.00252603
0.00233838
0.00262811
0.00634002
0.0066937
0.000806313
0.00285498
0.00449865
0.00652028
0.00691021
0.00687847
0.00287916
0.00228918
0.00677098
0.00685446
0.00696737
0.00228489
0.00620984
0.00670706
0.00449645
0.00381589
0.00653641
0.0018086
0.00725939
0.00200453
0.00204375
0.00115907
0.00415825
0.00036545
0.00633244
0.00713863
0.000429673
0.00551614
0.00605943
0.0067781
0.00435288
0.00417487
0.00466056
0.00617649
0.00714971
0.00717743
0.0050256
0.0040153
0.00600938
0.00563872
0.00714217
0.00706809
0.00694377
0.00528908
0.00142924
0.00242543
0.000960722
0.00136928
0.000949241
0.00139495
0.00530606
0.00502315
0.00720962
0.00671187
0.00529163
0.0032115
0.00504329
0.0046048
0.000385876
0.000663952
0.000505184
0.00441502
0.000232352
0.00572896
0.0072757
0.00714623
0.00186527
0.00616119
0.00274744
0.00365053
0.00415454
0.00645349
0.00617459
0.00648616
0.00602665
0.000594993
0.000604935
0.00103336
0.000581055
0.00558397
0.00293088
0.0069118
0.00691042
0.00647171
0.00528115
0.00691554
0.00531148
0.00301641
0.00300469
0.00127363
0.00189518
0.0070081
0.00708439
0.00701908
0.0070642
0.00128549
0.00149749
0.00586926
0.00666343
0.00105361
0.000984455
0.00126429
0.00083992
0.000619174
0.00123058
0.00277788
0.00124699
0.00116427
0.00238688
0.00331766
0.00520807
0.00389783
0.00234909
0.00105945
0.000625978
0.000546576
0.00686933
0.000602108
0.00499431
0.00305295
0.00324347
0.00444124
0.00224672
0.00277632
0.00612669
0.00692639
0.00689485
0.00694855
0.00651505
0.00688291
0.00686002
0.00259309
0.00354029
0.00210672
0.00173706
0.00141061
0.00359263
0.00196374
0.00243638
0.00474382
0.00578016
0.00467881
0.00715013
0.00303229
0.0029943
0.00129077
0.0036106
0.00634832
0.00654152
0.00179566
0.00658509
0.00389823
0.00646564
0.00483767
0.00623657
0.00210063
0.00663581
0.00441369
0.00486276
0.00141558
0.0026709
0.00659442
0.0057923
0.00497241
0.00742569
0.00684043
0.00369535
0.00384121
0.000498224
0.00495174
0.00459901
0.00433623
0.00366205
0.00487171
0.00306778
0.00631297
0.00299735
0.00712655
0.00509193
0.00699176
0.00176411
0.00238504
0.00418861
0.00471124
0.00641074
0.0066309
0.00576286
0.00541091
0.00449434
0.00440539
0.00641903
0.00565012
0.00614347
0.00598798
0.00447883
0.00652442
0.00723554
0.00708994
0.00284933
0.00111199
0.00596357
0.00700928
0.00639984
0.00661436
0.00627579
0.0050759
0.00577891
0.00357726
0.000943808
0.00523163
0.00424064
0.0019451
0.000891698
0.00167234
0.000585582
0.00116095
0.00394587
0.00306907
0.00732393
0.0022299
0.00299195
0.00673218
0.00692731
0.00267626
0.00550599
0.00729666
0.0066116
0.00389658
0.00473061
0.00347847
0.00380611
0.00326444
0.0031415
0.000746187
0.00506403
0.00330464
0.00683261
0.00575525
0.00210913
0.0019757
0.00389781
0.00217768
0.00624443
0.00619782
0.0059742
0.00116725
0.00372465
0.005724
0.00617647
0.00677871
0.0060492
0.000807827
0.00429936
0.00501308
0.0057568
0.00400935
0.00299113
0.0055104
0.00530844
0.00534195
0.000396371
0.00132712
0.00127491
0.00698412
0.0064199
0.00248211
0.00549776
0.00557068
0.00684208
0.00636484
0.00686277
0.00691062
0.00602578
0.0018407
0.00570263
0.00557338
0.00661831
0.00623316
0.00217418
0.00688876
0.0038221
0.00151932
0.00268962
0.00355405
0.00380483
0.00340442
0.00648855
0.00685189
0.00599145
0.00252473
0.00198077
0.0062703
0.00223401
0.00103586
0.000966235
0.000205302
0.00678113
0.00686407
0.00626879
0.00626918
0.0043934
0.000132012
0.00491114
0.00241879
0.00196639
0.00116941
0.00257765
0.00510098
0.0031362
0.00384868
0.00646537
0.000569497
0.000768923
0.000273254
0.00717501
0.00696651
0.00637277
0.00434305
0.00252973
0.00418871
0.00487424
0.00609363
0.00207187
0.00142733
0.00702333
0.00219091
0.00698886
0.000742858
0.000977686
0.00503933
0.000407676
0.00575428
0.00440517
0.00645126
0.00467523
0.00153811
0.00287259
0.00410367
0.00298911
0.0019082
0.000650016
0.00650872
0.00490469
0.00444458
0.00316977
0.00469758
0.00297068
0.00433379
0.00456541
0.00237385
0.000448442
0.0011098
0.0002904
0.00261991
0.00216452
0.00460833
0.00459915
0.00492073
0.00478279
0.00544553
0.00496154
0.0062401
0.00480509
0.0031865
0.00658902
0.00615887
0.00166008
0.00524136
0.00559045
0.00607062
0.00666946
0.00286751
0.00535905
0.00703832
0.00323882
0.00634956
0.00558247
0.00293847
0.00432977
0.00641597
0.00538882
0.00702454
0.00626458
0.000489737
0.00150304
0.00595377
0.00717815
0.0037212
0.00379707
0.00445362
0.004585
0.00660758
0.00308325
0.00461608
0.00659154
0.00387934
0.0071164
0.00263114
0.000942082
0.000573897
0.000925707
0.00675286
0.005004
0.00317395
0.00624391
0.0065158
0.00290447
0.00472956
0.00603729
0.00276011
0.00302948
0.00131247
0.00202431
0.00317907
0.00135915
0.00350863
0.00573305
0.00405092
0.0032867
0.00701087
0.00180162
0.00313131
0.00750142
0.000521289
0.0022487
0.00101377
0.00479594
0.0022515
0.000249727
0.00165923
0.00129581
0.00659067
0.000354446
0.00509273
0.00676582
0.00064256
0.000945327
0.00439811
0.00607421
0.00468442
0.00181977
0.00234722
0.00410538
0.00717065
0.00425629
0.000323675
0.00146113
0.000225365
0.000353722
0.000722141
0.00193994
0.00022416
0.00323993
0.00142832
0.000352733
0.00455609
0.00633168
0.00168868
0.003169
0.00172292
0.00408553
0.00354279
0.000355935
0.000263966
0.00379288
0.0060726
0.000839929
0.00133631
0.0053268
0.00671624
0.00703598
0.00128005
0.000939864
0.00670918
0.000155261
0.000351028
0.000632902
0.00035089
0.00522266
0.00151581
0.00396004
0.00383182
0.00374403
0.00298676
0.00283839
0.00306939
0.00601801
0.00729563
0.00711562
0.00613383
0.00339628
0.00680819
0.00478545
0.00358712
0.00567053
0.00341564
0.00711853
0.00421253
0.00737507
0.0049075
0.00733161
0.00691154
0.00266544
0.00337596
0.00514227
0.00497168
0.00747042
0.00398143
0.00635776
0.0069086
0.00676884
0.00529564
0.00742636
0.00686169
0.00324646
0.00402257
0.00592568
0.00737971
0.00277744
0.00257505
0.00510938
0.00693769
0.00400318
0.00327489
0.00269477
0.00229245
0.00569894
0.00545465
0.00526663
0.00726525
0.00398266
0.00744734
0.00724617
0.00708892
0.00475006
0.00139129
0.00600168
0.00594652
0.00361491
0.00449596
0.00700573
0.00634064
0.00110224
0.00400977
0.00228288
0.00121941
0.00644716
0.00624339
0.00245798
0.00429177
0.00162106
0.00347268
0.00484874
0.00445633
0.00171761
0.00613024
0.00491726
0.00299547
0.000134016
0.000604366
0.00652368
0.00319467
0.00321742
0.00605606
0.00349314
0.00461692
0.00159766
0.00678601
0.000597181
0.00231318
0.00193989
0.0020708
0.00286956
0.00187977
0.00251546
0.00284756
0.00724556
0.00546186
0.00732681
0.00690895
0.00706908
0.00698586
0.00714349
0.00715872
0.00716405
0.0070629
0.00617719
0.00101188
0.00584474
0.000421855
0.000345744
0.0011476
0.00720239
0.00389027
0.000317841
0.00575125
0.00357472
0.00554777
0.00719028
0.00634403
0.00608017
0.00172628
0.00637002
0.000617492
0.00679094
0.00191044
0.00675981
0.00137116
0.00512739
0.00140756
0.00406136
0.00107039
0.00360701
0.0070692
0.00557591
0.00689937
0.00515394
0.00597185
0.00116775
0.00393378
0.000244951
0.00476701
0.00646174
0.00289827
0.00674773
0.00132024
0.00709043
0.00561011
0.000894062
0.00706452
0.00183202
0.000602671
0.000230034
0.00175501
0.00138375
0.00203351
0.00518017
0.00324112
0.00131163
0.00461737
0.00222282
0.00681814
0.0038267
0.00324236
0.00666014
0.00598559
0.00686776
0.00126635
0.00204548
0.000172278
0.00140703
0.000854656
0.0072506
0.00150044
0.00103345
0.00148973
0.00625849
0.00682209
0.00335005
0.000544858
0.00259637
0.00666761
0.000268882
0.00405233
0.000189936
0.000450226
0.0063723
0.00684464
0.00230051
0.00446154
0.0014135
0.000718038
0.00280046
0.00308528
0.00190108
0.00305156
0.00730641
0.00687324
0.00337742
0.00547607
0.0050831
0.00718442
0.00491056
0.00507363
0.00343708
0.00671149
0.00673807
0.00595052
0.00614595
0.0065487
0.00587926
0.00594547
0.00597328
0.00499529
0.0062406
0.0052651
0.00136955
0.00560148
0.00426921
0.00632723
0.00606271
0.00666031
0.00691531
0.00305971
0.00526781
0.00637509
0.00711452
0.00686264
0.00654454
0.00699788
0.00704133
0.00704412
0.00705038
0.00657911
0.00667944
0.00700317
0.00703829
0.00516732
0.00705062
0.00638182
0.00710183
0.00360841
0.00316583
0.00441041
0.00362764
0.00341731
0.00381104
0.0030231
0.00321406
0.00160403
0.00245056
0.00736183
0.000637655
0.00251448
0.00455443
0.00225262
0.00521732
0.00728379
0.00117942
0.00194067
0.000860978
0.0063802
0.00652331
0.00363494
0.00274744
0.00614636
0.00624754
0.00585884
0.0047777
0.00504504
0.00528989
0.00534647
0.00561124
0.00567901
0.00320167
0.00335993
0.00310336
0.00498173
0.00516321
0.00514289
0.00695017
0.00475075
0.00639994
0.00691898
0.00446982
0.00481794
0.0069726
0.00342972
0.00723514
0.00709618
0.00423047
0.000427252
0.00664638
0.00466394
0.00374748
0.00272078
0.00537509
0.00322187
0.00503266
0.00467054
0.00679004
0.00553634
0.00285586
0.0062893
0.00449306
0.00408121
0.00602114
0.0069203
0.00687246
0.00642471
0.0069778
0.00694498
0.00160942
0.00053656
0.000714987
0.001325
0.00103048
0.0010785
0.00334118
0.00362596
0.00646072
0.00125434
0.00531154
0.000692225
0.000649517
0.00398146
0.00554935
0.0032613
0.00392606
0.00584269
0.00582644
0.00594459
0.00694585
0.00618365
0.00619294
0.00408766
0.00558996
0.00604839
0.00295859
0.00706327
0.00694147
0.0045424
0.00617695
0.00667239
0.00250614
0.00360151
0.00382248
0.00327038
0.00595044
0.00328744
0.00347549
0.00349946
0.00518953
0.00516311
0.00190538
0.00279822
0.00721516
0.00398092
0.00657053
0.00723789
0.0064587
0.00164904
0.00705022
0.00218467
0.00634186
0.000414707
0.00151205
0.00661252
0.000201894
0.000163752
0.00602974
0.000865056
0.00139425
0.00671717
0.00081028
0.00145253
0.000368115
0.000382396
0.000294774
0.00239641
0.000540479
0.000646547
0.00021136
0.00493429
0.000557104
0.00442044
0.00332461
0.00317808
0.00540978
0.00448116
0.0038135
0.00365648
0.00251627
0.000392591
0.000608435
0.00335925
0.00439457
0.000661216
0.000343675
0.000375991
0.00420826
0.00557797
0.00537849
0.00613178
0.00592366
0.00328513
0.00688752
0.00660662
0.00674941
0.00704083
0.00715022
0.00522093
0.00635985
0.000296511
0.00364255
0.00102848
0.000851663
0.001008
0.00331326
0.00477892
0.00543731
0.00607033
0.00565862
0.00697879
0.00388986
0.00692217
0.00619855
0.00360135
0.00514414
0.007176
0.00703733
0.00487105
0.00652415
0.00426681
0.00686391
0.00327298
0.00655399
0.00520903
0.00423201
0.00681062
0.00568378
0.00533135
0.00608453
0.00195759
0.00102589
0.00230131
0.00205178
0.000711896
0.0016644
0.00494425
0.00520773
0.00742264
0.00148326
0.0047597
0.00593172
0.00741097
0.0043225
0.0041629
0.0057033
0.00437845
0.00415407
0.00688953
0.00645734
0.0072735
0.000191596
0.0063966
0.00690017
0.00626589
0.00557275
0.00403914
0.0050715
0.00231966
0.00705845
0.00430142
0.000946663
0.00667662
0.00491543
0.00686309
0.000827116
0.00214878
0.00247034
0.000803155
0.00073743
0.00177582
0.00178792
0.00266336
0.00174302
0.00131314
0.00112438
0.00710316
0.00239686
0.0067905
0.00480163
0.000146128
0.00650856
0.00274852
0.00255183
0.00291595
0.00271791
0.00406436
0.00402484
0.00406929
0.00278871
0.00317887
0.00339578
0.00458147
0.00432469
0.00298067
0.00613779
0.0069463
0.00497311
0.00436365
0.00310854
0.00267867
0.00717527
0.00712685
0.00595729
0.00615528
0.00398987
0.00396729
0.00695948
0.00580953
0.0059272
0.00547827
0.00540283
0.0060361
0.00355195
0.00403616
0.00474198
0.00465036
0.00664746
0.00424937
0.00598505
0.00601356
0.00409782
0.00648752
0.00564041
0.000801787
0.00453263
0.000350813
0.000650437
0.0019652
0.00529548
0.00618658
0.00565911
0.00437643
0.00673421
0.00538569
0.00346343
0.000472241
0.0028927
0.00205461
0.000960665
0.00347355
0.00355897
0.000705664
0.000912664
0.000688845
0.00210979
0.000290365
0.000643634
0.000880018
0.000760437
0.000725923
0.00726457
0.0038065
0.00654874
0.00388805
0.00413836
0.00315787
0.00626706
0.00293802
0.0030319
0.00146107
0.00144839
0.00501889
0.00584633
0.00230926
0.00382756
0.00495977
0.00279859
0.00107766
0.0032534
0.0017377
0.000945545
0.00545018
0.00471403
0.00285893
0.00428793
0.00346204
0.00700401
0.00626605
0.00272085
0.00354263
0.00548287
0.00333115
0.0062644
0.00671146
0.00658429
0.00354988
0.00299324
0.00722084
0.000284889
0.00137926
0.00739498
0.00423047
0.00023838
0.00226897
0.00112356
0.00690603
0.00293573
0.00310108
0.00669384
0.00239973
0.000804767
0.00499545
0.00479077
0.00432948
0.00707622
0.00453899
0.00289744
0.00146769
0.00157805
0.00330774
0.00690766
0.00717922
0.00580421
0.00642015
0.0053769
0.00555466
0.00309507
0.00327968
0.00643682
0.00654312
0.00432919
0.000937373
0.00133794
0.000424285
0.00375107
0.00111852
0.000487021
0.000906416
0.00145685
0.00662413
0.00567401
0.00420588
0.00697729
0.00696592
0.00491501
0.0039588
0.00186432
0.0013053
0.00118599
0.0028906
0.00686619
0.0014478
0.00204043
0.00509887
0.00243342
0.00253071
0.00323138
0.00334406
0.00150863
0.00326061
0.00203216
0.00324833
0.00311179
0.00319254
0.00334096
0.00260532
0.00310225
0.00730668
0.00495702
0.00585476
0.0068376
0.00696414
0.00727811
0.0047702
0.00656049
0.00414148
0.00256443
0.00546717
0.00258152
0.00732875
0.00476759
0.00650227
0.0019802
0.00678111
0.00712897
0.00689858
0.0023098
0.00402593
0.00359999
0.00451827
0.00587627
0.0016636
0.00199868
0.00226897
0.0024241
0.00128438
0.00335349
0.00447673
0.00480759
0.00447465
0.00197362
0.00111711
0.00476259
0.00239799
0.00406531
0.00313447
0.00686409
0.00721016
0.00607482
0.00568739
0.00619207
0.00614245
0.00631891
0.00692294
0.00421426
0.00726113
0.00318352
0.00321289
0.00450207
0.0046183
0.00118383
0.00455266
0.00559045
0.00720631
0.00648456
0.00378822
0.00436774
0.00295974
0.00284735
0.00607534
0.00618712
0.00380268
0.00678142
0.00709823
0.00708351
0.00577499
0.00276439
0.00425938
0.00417812
0.00618624
0.00525164
0.00718771
0.00492107
0.00626034
0.00620113
0.00444898
0.0051096
0.00399579
0.00665175
0.00688108
0.00316361
0.0052413
0.00505568
0.0067141
0.00558793
0.00664081
0.00646618
0.00452822
0.00679934
0.00660025
0.00491782
0.00326382
0.00409886
0.00650262
0.0042876
0.00700382
0.00298646
0.00223685
0.00699587
0.00246312
0.0015736
0.0074204
0.00650151
0.00655316
0.00516573
0.0059286
0.00601827
0.00156814
0.00147717
0.000431825
0.00390981
0.00137391
0.00111539
0.00393773
0.00353499
0.000316323
0.000505787
0.00147789
0.00392531
0.00409315
0.00202971
0.00642002
0.00652966
0.00501019
0.00541753
0.00325939
0.00707428
0.00195288
0.00450661
0.00225672
0.0026302
0.00194483
0.00288044
0.00143808
0.0020531
0.00207584
0.00714359
0.00569865
0.00361245
0.00150455
0.00129319
0.00144372
0.00158029
0.0022233
0.00177903
0.00710171
0.000334884
0.00458813
0.00472596
0.00470382
0.00656851
0.00417988
0.000521132
0.00101436
0.00142845
0.00718592
0.00661118
0.00311664
0.00298241
0.00343032
0.00377822
0.00268354
0.00167891
0.00662884
0.00111139
0.000612513
0.00657931
0.00505911
0.00536928
0.0014626
0.00723342
0.00754753
0.00363145
0.00362797
0.00622606
0.00655731
0.00575397
0.00508161
0.00415874
0.00357386
0.00678738
0.00512906
0.00596473
0.00658627
0.00702264
0.00671859
0.00661336
0.00372996
0.00508861
0.00515692
0.00298487
0.0071805
0.007137
0.00363368
0.00424486
0.00292412
0.0032405
0.00440674
0.00223018
0.00522518
0.00364675
0.00619126
0.00515936
0.00585171
0.00516931
0.00101253
0.00687968
0.00648859
0.00686076
0.00472437
0.00368443
0.00282481
0.00410999
0.00290743
0.00562976
0.0060535
0.0029502
0.00503133
0.00242059
0.00402413
0.00355626
0.00629284
0.00536376
0.00497092
0.000860906
0.000798657
0.00216572
0.000161288
0.000695011
0.000670096
0.00704078
0.00680376
0.00674782
0.000786577
0.00702836
0.0065775
0.00497308
0.00598251
0.00661057
0.00160924
0.00224848
0.00315926
0.00243091
0.00226111
0.00165762
0.00248931
0.00115418
0.000438409
0.000406927
0.00243517
0.00083721
0.00184301
0.000978189
0.00118949
0.00110692
0.0016276
0.000269273
0.000782088
0.000250148
0.00048816
0.000641974
0.000269232
0.00101804
0.00119255
0.000967054
0.000188552
0.000905438
0.000236336
0.00486503
0.00453125
0.00710963
0.00704372
0.00701777
0.00570009
0.00528301
0.00616848
0.00349067
0.00235112
0.00170864
0.0036798
0.00714769
0.00330249
0.00217828
0.00183539
0.00692948
0.00691978
0.00686812
0.00699865
0.0052132
0.00708636
0.0069756
0.00302164
0.00699053
0.00695984
0.00663201
0.00700578
0.00225967
0.00105503
0.00359424
0.00443055
0.00318444
0.00531701
0.00694079
0.00275826
0.00423993
0.00559989
0.00580695
0.00328852
0.00685469
0.00522343
0.00669008
0.00595566
0.00688431
0.00528469
0.00679084
0.00519472
0.00474175
0.00560329
0.00314759
0.00731569
0.00601501
0.00680783
0.00343242
0.00428485
0.00594785
0.00718528
0.00711344
0.00573371
0.00555764
0.00562965
0.00510025
0.00222285
0.00386936
0.00474639
0.00104329
0.000941996
0.00152085
0.00253973
0.00700113
0.00550921
0.00642302
0.00397287
0.00561504
0.00156135
0.00569907
0.00707102
0.00712442
0.00424143
0.00667504
0.00224359
0.00587431
0.00523974
0.0067526
0.00686413
0.00653472
0.00562497
0.00689668
0.00452002
0.00687965
0.00301724
0.00395404
0.00612587
0.00679715
0.0045982
0.00484746
0.00659705
0.00710528
0.0055663
0.00538877
0.00706716
0.00413969
0.00432422
0.00435133
0.00392255
0.00299733
0.00377833
0.00707694
0.00268729
0.00688729
0.0051713
0.00345483
0.00666157
0.00256664
0.00671127
0.00716178
0.00727255
0.00651695
0.00709082
0.00605319
0.00286717
0.00531511
0.00592129
0.00720165
0.00210502
0.00125592
0.00738147
0.00289098
0.00499834
0.00686408
0.00608634
0.00382532
0.00367539
0.00662493
0.00551066
0.0071046
0.00659871
0.00461327
0.00177763
0.00376836
0.00570716
0.00532519
0.0053185
0.00149234
0.00166068
0.00710094
0.00186885
0.00697914
0.00697995
0.000712903
0.00651668
0.0074008
0.00597148
0.0071956
0.00693412
0.00622017
0.00386015
0.00220595
0.000948576
0.000706354
0.000300484
0.000863695
0.00623425
0.00707719
0.0069783
0.00524768
0.00598846
0.0036461
0.00156613
0.00586822
0.000989239
0.000570454
0.000642937
0.00699441
0.00498357
0.000319664
0.000690443
0.00485718
0.000596087
0.00494481
0.00507906
0.00630274
0.000319045
0.000368452
0.00067196
0.00704098
0.0059429
0.00041281
0.000625482
0.00708844
0.00705799
0.00280795
0.00209585
0.00164743
0.00647345
0.00332265
0.00476929
0.0051835
0.00444261
0.00465019
0.00063385
0.00728564
0.0022563
0.0031283
0.00608098
0.00680987
0.00671488
0.00652882
0.00681629
0.00609658
0.00359291
0.00633604
0.00294347
0.00459086
0.0056726
0.00551483
0.00677778
0.00250366
0.00518688
0.00417224
0.00456585
0.00367146
0.00100334
0.00676765
0.00133328
0.00147058
0.00246555
0.00599108
0.00530726
0.00514115
0.000159969
0.0066518
0.000981239
0.00519791
0.00513309
0.00369788
0.00426334
0.00690806
0.00579161
0.00483176
0.00581663
0.00255806
0.00515528
0.00381295
0.0049025
0.00460309
0.0014632
0.00312758
0.0039737
0.00355481
0.00708758
0.0062662
0.00665812
0.00596276
0.000976959
0.000865853
0.00458975
0.0052539
0.00417002
0.00140307
0.00407176
0.00429521
0.00417521
0.00629717
0.00369221
0.00188274
0.00351983
0.0014215
0.000947476
0.00611071
0.00405001
0.00564462
0.00101772
0.00241623
0.00427351
0.00302347
0.000960375
0.0056632
0.00211307
0.00514665
0.00738352
0.00683837
0.00512581
0.00208815
0.00167957
0.00699496
0.00722426
0.00496109
0.00730193
0.00594082
0.00528362
0.00725424
0.00710012
0.00404658
0.00593205
0.00528286
0.00215505
0.00541701
0.00381283
0.00682165
0.00560777
0.00653709
0.00603333
0.00718021
0.0072995
0.00705314
0.00726385
0.00720485
0.00695447
0.00642466
0.00750775
0.00727822
0.00598812
0.00705713
0.0071024
0.00361727
0.00034396
0.00665959
0.00690149
0.00539515
0.00657688
0.00715099
0.000393895
0.00558017
0.000616518
0.00714665
0.00697158
0.00455645
0.00500933
0.00516989
0.00102419
0.00115387
0.00433499
0.00452075
0.0022505
0.00735529
0.00662122
0.00339264
0.00449781
0.00306917
0.00619494
0.0043235
0.00345783
0.0038005
0.00311687
0.00389026
0.00724563
0.00661536
0.00650952
0.00667493
0.0069515
0.00694095
0.00726633
0.00545595
0.00681283
0.00713855
0.00303279
0.00693991
0.00675541
0.00721023
0.00676507
0.00392586
0.00210321
0.00476325
0.0025835
0.00498628
0.0033189
0.00235676
0.00644926
0.00718408
0.00230794
0.00469009
0.00500177
0.00253837
0.00622279
0.00150476
0.00542312
0.00537985
0.00518556
0.00607429
0.00184206
0.000470446
0.0024702
0.00325809
0.00558989
0.00245914
0.00594274
0.00325086
0.00118718
0.00570408
0.000461145
0.00673405
0.00546448
0.000906594
0.00546427
0.00368712
0.00434251
0.00529209
0.00508185
0.00330092
0.00579204
0.00278555
0.00639676
0.00620254
0.00688669
0.0015127
0.0027349
0.0063088
0.00702004
0.00288162
0.00704763
0.0029545
0.00621825
0.00710817
0.00592193
0.00455259
0.000816791
0.000959241
0.00237662
0.00132498
0.00018239
0.00111773
0.00370936
0.00409882
0.00247249
0.00691195
0.00213231
0.00151568
0.00596023
0.00496579
0.0024724
0.00557038
0.00547117
0.00196904
0.00436251
0.00621275
0.00495866
0.00145725
0.00129245
0.00375651
0.000855332
0.000808413
0.000898488
0.00660344
0.00693921
0.00363116
0.00386017
0.00504266
0.00328838
0.000755045
0.000112852
0.00299659
0.00223309
0.00717118
0.000935837
0.0024802
0.0015553
0.00421448
0.000563337
0.00161119
0.00124203
0.000217391
0.0018887
0.00107936
0.000717042
0.00018247
0.000330948
0.000510466
0.0012359
0.000830059
0.00689821
0.00442803
0.00701999
0.00433045
0.00688317
0.000569411
0.00463399
0.00299064
0.0024512
0.00259627
0.00236197
0.00656003
0.00722989
0.00492804
0.00728989
0.00704264
0.00257419
0.00639459
0.00118092
0.00085189
0.00117853
0.00109204
0.00222641
0.00580509
0.00168802
0.00174118
0.000146491
0.00221166
0.00136052
0.000782703
0.000650163
0.000537929
0.000951372
0.00158439
0.0017386
0.000681832
0.00425653
0.000321183
0.000495277
0.00480055
0.00495527
0.00549564
0.0047954
0.000475149
0.00599894
0.00042873
0.00347158
0.00450607
0.00541232
0.00265231
0.00120747
0.00104311
0.00205392
0.000246432
0.00118139
0.000649374
0.000613931
0.00582117
0.00124879
0.000580593
0.00138944
0.00205546
0.00251859
0.00175221
0.00180004
0.00564377
0.000774472
0.000742188
0.00102825
0.00471006
0.00131241
0.003396
0.00177963
0.00363518
0.00133293
0.00527217
0.00565845
0.00229831
0.00122161
0.000453206
0.000877347
0.00076464
0.000413082
0.000859527
0.000734987
0.00658577
0.00521476
0.006608
0.00308454
0.0032451
0.00306371
0.00626513
0.00241433
0.00688829
0.00588872
0.00459723
0.00587719
0.00433941
0.00269152
0.00699318
0.00489434
0.00719873
0.00578099
0.00610539
0.00440406
0.00246722
0.00400981
0.00282319
0.00257219
0.00270339
0.00312797
0.00413357
0.00509459
0.00668004
0.00744904
0.00141522
0.00563276
0.00544742
0.00601642
0.00587284
0.00261231
0.00293381
0.0039017
0.00287397
0.0024943
0.00273114
0.00368655
0.00458863
0.00679482
0.00680446
0.00556687
0.00544402
0.00412008
0.00634903
0.00690489
0.00407174
0.00495288
0.00299355
0.00520909
0.00324507
0.00421622
0.00398674
0.00296744
0.00308677
0.00568056
0.00601799
0.00426343
0.00363336
0.00406995
0.0043531
0.00476735
0.005358
0.00408579
0.00460132
0.00667448
0.00560042
0.0060265
0.0062
0.00652177
0.00477657
0.00380057
0.00468548
0.00350716
0.00682822
0.0055204
0.00448849
0.00473528
0.00510851
0.00522086
0.00330226
0.00502926
0.00515482
0.00576833
0.00493059
0.00326366
0.00262685
0.00662729
0.000293045
0.00101124
0.000630065
0.000328638
0.00692877
0.00322989
0.00339797
0.00561178
0.00339737
0.00348099
0.00332928
0.00429525
0.00586693
0.00152713
0.00554477
0.00344447
0.00145223
0.0031048
0.00531888
0.00611824
0.0050858
0.00489499
0.00314515
0.00508681
0.00610213
0.00364129
0.00555538
0.00567601