/*--------------------------------*- C++ -*----------------------------------*\
| =========                 |                                                 |
| \\      /  F ield         | OpenFOAM: The Open Source CFD Toolbox           |
|  \\    /   O peration     | Version:  2506                                  |
|   \\  /    A nd           | Website:  www.openfoam.com                      |
|    \\/     M anipulation  |                                                 |
\*---------------------------------------------------------------------------*/
FoamFile
{
    version     2.0;
    format      ascii;
    arch        "LSB;label=32;scalar=64";
    class       volScalarField;
    location    "0.0689058";
    object      omega;
}
// * * * * * * * * * * * * * * * * * * * * * * * * * * * * * * * * * * * * * //

dimensions      [0 0 -1 0 0 0 0];

internalField   nonuniform List<scalar> 
3972
(
87.8087
43.9005
44.6256
48.7955
885.764
118.978
96.6817
46.1546
45.5395
65.7078
49.1153
46.5103
60.4811
48.6694
46.2987
43.2315
44.8123
46.3565
47.9717
56.7666
1126.48
265.823
100.152
46.9006
1310.26
42.8117
47.4183
62.8712
106.536
47.1388
658.793
170.594
47.3419
82.3133
45.7954
45.0078
57.8416
58.3546
44.9719
62.5076
53.456
45.8154
45.9113
108.296
57.3577
53.438
62.4388
161.174
101.553
45.1234
58.3256
45.434
58.2018
79.9419
54.0372
54.8177
129.709
44.7053
130.02
248.948
88.9929
117.95
52.0764
108.782
56.4233
88.6913
106.896
119.021
54.7401
168.206
117.793
47.9488
176.514
45.1989
71.7499
43.9604
53.0877
99.5178
62.5589
91.7305
56.3239
45.6211
42.8018
68.3929
44.5105
85.3439
70.6475
54.2191
105.479
97.6734
58.4892
50.7042
67.4004
53.6596
48.1389
43.5031
44.473
53.4455
62.0161
46.8525
45.6303
44.2068
45.1568
48.8132
97.0608
45.0808
46.394
44.7119
79.5592
43.7037
53.7457
43.7267
43.096
104.362
49.782
46.9436
46.9995
129.606
113.136
54.0417
106.045
125.045
95.2757
84.5266
54.5189
624.183
116.972
565.918
660.568
923.957
525.457
52.3856
327.872
333.598
104.482
100.229
120.43
114.645
132.032
78.3486
60.9298
44.7107
49.3993
81.7477
135.081
60.2993
66.3676
44.1495
118.976
62.3709
63.5666
46.1062
47.3571
81.1369
152.16
46.5468
54.8396
61.457
57.5129
107.637
42.8683
43.9606
48.3398
52.6707
44.0023
63.5609
53.8612
82.2957
46.1686
61.3384
70.3007
53.3911
43.3938
43.0444
47.2524
48.3564
63.4918
42.9575
43.4588
43.1296
72.2924
112.817
49.3238
76.9627
44.8187
44.5763
48.4262
55.8982
46.6592
1137.2
45.893
44.6725
87.1322
44.7191
50.9962
46.1445
44.5941
74.5864
132.626
48.8162
48.1102
93.5527
58.3207
59.2668
44.8198
71.4069
47.5606
50.2678
87.344
102.744
142.768
69.9414
468.886
487.05
49.523
74.1127
98.7335
66.2836
54.8089
69.1489
48.4181
63.9184
49.2244
50.1068
185.869
50.5658
961.412
148.012
1192.31
118.252
1419.49
767.159
139.305
757.876
47.9736
51.378
52.5935
43.0299
56.1798
50.8722
46.8907
556.401
107.668
47.9574
51.3684
45.0037
43.8732
45.243
46.6508
139.748
45.5434
715.228
71.8014
157.862
43.464
53.425
165.51
102.552
46.5505
120.415
186.004
119.852
92.8855
43.9718
114.672
52.9588
43.4526
63.4425
47.833
46.4005
46.3335
83.056
377.563
152.949
73.5913
110.215
52.5766
133.845
43.1425
43.5887
93.1022
152.956
43.6543
249.714
1105.31
573.762
48.6353
73.6372
44.931
61.7136
43.7255
45.2307
51.9942
49.5652
161.191
73.9076
61.5362
200.942
44.182
493.575
45.8156
59.6661
56.6206
62.2482
92.5651
98.9587
49.5598
50.4399
70.2011
50.0067
48.0435
54.0195
106.727
92.9903
1336.48
46.6413
48.759
45.1116
73.5978
44.1591
459.029
743.042
55.199
44.1821
43.0374
110.19
50.0407
43.9837
43.1292
139.2
55.2194
190.218
56.4015
43.2532
43.9406
129.642
49.0595
62.6046
45.1787
90.958
69.566
43.9426
107.967
46.1509
48.6012
44.3336
46.4692
45.9377
56.4772
55.3971
54.1464
117.97
72.2715
59.943
1299.07
102.834
492.278
71.6083
43.6881
43.251
43.5802
43.5138
44.6964
104.627
52.1486
48.3874
77.431
43.6091
67.0302
51.2908
43.2635
43.0528
47.5058
43.1605
90.2835
56.5181
52.6344
106.51
75.1073
101.309
47.4816
92.937
45.5278
82.0488
56.4219
82.5747
43.5307
64.3284
72.2808
50.5719
449.628
45.4858
342.338
44.4543
247.055
46.2614
818.741
1287.98
47.4912
47.1126
58.3749
44.4638
42.5586
52.7487
53.6374
43.2884
85.2965
255.179
50.575
45.8728
43.4958
70.3817
52.0073
47.2193
91.7652
992.156
55.9265
45.5046
44.3694
48.0269
45.0545
127.394
43.0615
45.5518
69.0201
48.7701
45.5189
43.0521
60.2037
86.0515
45.9688
80.3575
89.7049
51.5823
49.6208
45.6334
45.0875
85.2176
51.4556
82.9468
49.9677
97.6237
50.8094
56.691
47.5531
44.3784
45.3519
48.5325
66.6275
50.8936
46.8582
53.8568
48.5483
51.7053
43.7329
99.5918
274.881
267.121
143.324
54.3463
91.2992
54.7775
53.404
45.3836
51.9433
77.5076
43.7496
43.0534
43.9965
43.6761
105.738
44.331
47.3921
49.4947
43.2312
83.5718
102.106
685.919
50.5262
50.3433
84.2444
79.976
142.136
117.322
179.104
49.1876
60.3549
109.504
62.1154
63.3236
88.6947
82.3694
481.824
63.5609
517.198
762.776
92.6213
68.0655
98.1097
61.8584
62.8374
103.113
49.0872
56.5689
53.8494
54.1574
43.8471
44.0038
45.5276
46.8864
113.087
82.3589
132.222
375.109
44.7836
45.2061
48.4463
45.1549
116.277
114.256
83.3687
55.8849
84.0668
54.9709
264.402
46.2929
44.6479
63.5437
100.431
45.0648
88.1072
145.363
44.6322
62.7379
74.4924
45.3068
62.7998
65.414
61.8493
70.0155
65.8255
45.7054
46.7767
133.678
49.5223
46.8725
77.903
44.1919
69.9135
46.0125
45.7149
45.6982
45.4752
47.3363
45.8203
44.2458
44.2865
57.1717
48.0794
43.0254
46.0946
45.2682
43.765
164.993
43.1132
205.863
206.889
194.643
75.4724
394.231
42.7832
43.484
268.644
54.8039
48.5197
45.7412
72.095
73.9958
66.2525
42.8763
43.6717
43.7049
43.9542
76.6671
51.2762
55.8698
42.9361
43.0368
44.3444
43.4841
55.5544
119.517
692.62
476.085
71.5572
120.254
55.3069
57.8923
43.2474
45.0098
55.2415
104.508
70.6449
66.4562
289.753
114.239
191.387
48.5305
855.48
53.5442
43.719
43.0058
57.385
48.1771
122.321
88.3389
75.155
46.4234
48.4615
46.1029
49.7666
250.633
135.401
65.0133
97.2821
54.7505
103.924
43.6781
43.863
47.1355
44.3117
44.4189
56.2337
55.9784
76.1328
55.297
52.1707
43.2265
43.0619
43.4079
43.2967
57.9774
53.1285
45.0871
45.8261
100.807
74.738
547.221
117.966
147.689
61.0544
50.6684
604.026
729.563
49.4019
47.4187
43.1879
45.4079
47.956
88.2599
132.885
78.6856
43.7225
111.87
58.6585
47.5695
46.8974
44.4471
50.9916
48.6484
48.2574
43.5931
43.8656
43.9741
43.8661
43.9129
44.1349
46.6189
89.6121
47.3418
50.3659
53.2872
50.8948
52.4404
49.0806
65.1501
51.816
65.9683
42.9229
111.858
110.455
150.103
88.2152
47.0063
45.7942
55.5336
45.8268
77.0213
46.3978
63.0406
48.4655
160.255
45.363
72.5804
63.4141
75.5511
123.14
45.7223
51.193
62.339
45.0828
44.4493
84.903
83.8892
814.535
60.0697
67.9279
73.3106
89.3205
61.3925
119.709
47.6844
107.117
44.3616
57.9049
43.2451
50.4143
142.844
67.0264
66.8875
46.8139
45.5788
52.2611
55.8768
69.2613
70.5475
46.5384
53.6156
48.7999
50.8075
66.9136
46.6799
45.9067
44.0715
116.059
65.9001
50.0015
43.5003
46.9603
48.453
47.5337
58.979
51.6687
48.0848
66.0721
61.3595
45.8671
68.075
768.868
145.647
259.853
683.636
44.2395
45.9206
43.1811
46.5526
126.416
45.0299
43.4489
51.9199
53.4163
43.5841
45.3803
83.0532
65.1812
90.266
89.7563
94.0668
95.1001
112.898
57.2665
105.805
45.1356
47.4099
76.8996
74.1451
89.858
68.8323
48.2001
49.2927
49.9746
225.332
87.7954
51.8925
47.9076
45.3047
48.8893
128.592
67.7283
57.3481
51.6792
73.8927
102.856
53.7392
56.8791
56.8046
333.618
53.5717
532.035
43.0876
45.6378
148.753
54.5023
53.8624
44.097
48.2124
44.0915
43.7515
49.7017
47.5734
43.9983
47.4842
45.2551
48.155
83.1704
44.7189
45.1308
96.9792
60.972
48.0658
43.6689
91.4152
46.2196
44.0071
50.1892
112.682
59.4929
47.7526
176.061
168.712
926.712
1326.3
46.2369
45.848
47.5702
48.7442
68.9387
1408.78
47.1644
214.01
148.324
128.99
53.6998
58.113
44.5263
79.7326
46.1715
193.095
67.8836
1060.69
42.7522
43.6164
46.9275
43.8658
49.844
73.7546
44.7929
45.5113
47.8382
441.226
45.0693
52.7811
43.6231
87.8555
93.0196
57.7917
352.554
53.0171
72.5341
46.4795
66.0844
56.2185
114.732
74.5129
116.645
120.894
621.874
46.0723
58.9087
65.0526
101.872
70.6485
109.086
70.6948
75.0528
146.921
176.49
689.081
857.289
139.872
90.3966
62.9586
62.9983
58.9524
60.4735
54.524
59.1597
47.4633
64.8029
103.432
43.3102
48.3136
81.2226
56.5476
44.9351
48.6164
45.2333
71.4821
45.3263
43.19
101.002
47.1424
52.5787
45.224
44.2084
46.7497
56.6026
43.8855
48.1503
152.286
65.3291
43.3331
42.4696
84.6469
82.1103
43.3588
44.8455
46.6579
106.83
62.8709
45.5251
50.3786
42.6335
125.313
115.958
158.151
869.043
44.6092
62.5982
112.967
47.4447
47.0447
44.8861
65.6676
49.64
47.9097
108.404
54.6119
54.67
110.462
72.5771
86.851
45.6942
81.2882
102.162
43.2356
57.5113
106.712
45.2475
221.082
53.2283
569.177
63.6315
48.431
909.607
49.0369
49.6038
45.6767
869.771
61.1393
44.9731
247.953
65.0865
47.8967
51.6314
65.8806
52.7975
64.237
74.4458
43.1029
70.8489
849.803
54.2184
1289.06
722.778
882.204
60.1845
1340.36
100.708
438.144
1200.62
65.374
47.8785
55.4075
46.9641
52.0548
82.9152
85.6525
520.952
1044.51
90.3545
45.3011
70.4811
488.408
52.9002
45.0695
43.0547
79.9046
76.9501
45.4127
1378.34
359.615
1225.9
1347.78
57.3216
72.6603
61.7316
82.0036
84.478
90.5718
120.921
96.944
52.8834
43.4085
47.3185
49.7766
93.7901
46.703
54.0472
89.9457
51.7063
44.8884
43.98
46.0172
43.6179
53.2813
43.6465
45.283
52.5442
94.2265
53.1645
60.202
44.5839
74.238
49.4736
44.5975
49.2629
43.1109
44.4938
44.9218
95.4572
45.2642
45.357
43.3713
59.3466
74.9789
60.1185
43.7795
80.6945
109.122
137.173
143.25
53.2185
54.4034
56.4466
43.2114
45.295
43.8283
43.5307
44.8155
69.2627
387.727
54.7018
45.6064
47.8441
45.6484
45.4265
45.0031
55.338
44.3919
47.5827
112.772
46.4287
48.3199
53.1652
50.5471
52.8661
53.5459
64.4268
53.504
50.3312
49.1403
59.8875
110.809
1368.09
695.579
46.3236
96.971
94.1074
49.1878
45.1592
66.8637
272.088
45.1736
141.86
50.6064
48.4414
50.3196
46.6524
51.8477
46.825
46.6962
43.2026
53.631
43.098
42.7466
42.9523
43.6539
42.782
42.5264
43.0349
42.9822
48.9662
157.378
43.8715
377.909
306.111
71.1575
43.1411
43.5847
1061.27
52.8163
87.2646
53.8722
42.9254
47.5402
49.4322
49.685
47.733
320.332
46.4862
59.9772
44.4082
57.5657
44.3236
58.399
45.5884
60.261
44.9809
43.0508
59.1018
43.6649
58.346
43.3014
52.5543
89.2608
678.801
64.7371
46.1151
115.177
43.1272
60.5154
43.1264
53.0355
106.729
43.2363
49.1928
231.041
1033.27
51.8448
52.3071
58.2472
53.2303
58.884
83.2593
50.0105
52.7073
44.5441
43.5255
53.8493
45.4862
43.1684
44.1826
60.9021
48.1443
1370.04
75.5129
793.39
43.47
258.16
82.5964
275.84
47.7987
43.9982
85.6
439.286
46.6691
45.8137
712.852
53.0175
828.289
636.858
46.8491
44.121
46.7477
43.6216
63.2452
84.2694
46.5137
45.2928
50.1956
59.299
46.7539
47.7958
85.606
43.5368
43.3525
42.8457
44.0318
45.019
46.4859
48.7655
48.8795
51.0034
49.4306
45.7595
50.6514
50.1003
50.6803
59.4442
47.9037
42.9577
55.2073
54.4302
73.0161
47.1721
49.3428
44.8738
43.4535
105.617
55.0138
46.7345
42.9431
43.726
45.5509
43.2368
43.0228
43.0543
42.993
45.6448
44.9756
43.1886
43.0144
43.3666
43.1894
44.9941
43.1635
44.8342
44.0906
43.5871
44.1017
44.02
44.6266
45.0289
96.8786
113.08
126.95
43.4927
287.091
128.11
43.6225
75.6792
56.4521
45.3438
79.6105
169.265
1255.84
47.7436
46.1516
85.5283
126.662
48.8302
47.6694
53.2518
66.8178
59.0469
55.5293
54.8228
52.3731
51.7991
95.5312
89.5004
101.622
58.2465
56.3648
59.2538
43.3983
65.0934
46.4887
43.7341
75.2737
63.601
44.6726
84.6711
43.7294
46.395
74.8398
101.722
45.5614
70.5869
88.3751
134.183
43.4174
104.008
60.767
71.1917
44.2185
53.8201
117.871
47.58
67.7094
77.894
50.4686
44.0946
43.8452
46.6978
43.4627
43.818
49.6352
129.399
111.745
55.447
76.2204
99.1293
107.763
94.2169
46.451
94.7605
59.5108
136.634
160.76
77.6289
55.8002
105.045
85.9211
52.4193
52.9154
50.7439
43.3777
48.2047
48.4067
83.6949
53.1746
43.7086
127.824
43.877
44.5358
69.7599
48.7239
44.82
154.235
91.2942
46.1763
45.9746
49.9003
44.4212
96.381
43.5943
45.3864
45.3186
279.311
74.0647
43.0191
43.3385
43.1784
43.0193
43.3618
239.724
43.2386
246.91
43.5295
600.28
379.499
45.1374
1534.23
1464.98
49.174
591.441
62.0332
44.5539
698.157
92.7179
934.768
932.068
1301.36
144.668
550.561
692.012
1330.62
63.7858
485.032
69.9993
92.7891
116.313
55.1493
82.0061
88.3608
44.3857
48.6711
229.235
151.851
87.0636
67.0413
138.587
963.027
316.713
78.9664
53.6503
54.251
49.6445
51.0836
102.113
43.742
45.7796
45.3729
43.3269
42.78
45.7315
47.4416
1129.86
87.7037
60.2389
102.489
83.5589
45.7034
48.7105
55.5603
43.1307
44.9771
43.1674
78.2287
44.1369
48.1185
103.183
58.351
42.5536
43.2443
60.1686
46.2611
71.9978
44.0887
103.921
46.0263
45.0624
45.4462
45.767
51.9756
44.2156
52.1163
167.981
77.7472
46.862
49.91
127.215
53.3222
45.2183
55.7488
43.8429
84.4764
43.904
43.9848
43.4648
70.8711
73.0845
53.848
68.3606
83.4418
43.6698
49.3634
43.0092
1039.49
47.0525
44.1522
47.6991
45.8175
76.5182
52.8814
45.2628
43.2614
50.378
183.108
44.9745
62.2977
42.8503
78.3759
46.9636
46.1467
1156.65
77.4914
53.6269
105.349
48.0733
61.32
59.8575
77.3738
44.4367
132.582
44.6416
46.094
1241.49
47.8478
116.661
123.265
111.955
124.491
80.9189
81.2848
82.1815
118.807
94.4386
87.2019
64.5264
69.082
109.955
50.0517
44.814
45.4976
45.9331
107.702
45.4613
42.8577
43.0208
43.65
43.1671
43.9309
43.885
43.8516
51.8789
50.5342
54.67
55.6544
49.7592
91.6664
82.6413
66.9928
70.3823
44.9499
73.0898
50.2454
49.9299
77.9749
46.2164
52.1426
1255.19
68.55
993.258
692.113
49.8197
59.5398
48.924
53.9998
75.5045
45.065
54.892
104.161
1191.83
111.108
169.971
72.3525
45.7091
94.5864
121.864
78.0621
367.898
47.3553
1226.88
130.923
478.181
1183.02
81.4114
43.0101
75.7095
43.6011
81.807
43.721
46.9179
48.7764
59.2108
107.892
101.991
65.5419
57.1863
50.6077
225.243
47.3289
58.0569
48.7166
87.4398
98.5155
51.6416
77.5244
53.6582
62.5393
119.306
68.0145
94.7729
43.476
48.0592
117.112
49.5431
53.2922
92.5794
51.2438
44.9922
45.6719
83.1236
105.989
42.8366
720.532
233.17
45.1079
49.9256
911.401
166.167
1001.69
43.893
113.553
100.923
45.8834
87.5431
119.733
58.5778
44.4565
73.1084
45.6805
68.4837
112.076
237.657
71.6182
93.8228
45.6317
43.0374
50.6429
47.3062
51.179
53.7297
58.2363
99.6289
46.4648
45.7162
70.8134
77.7751
57.0135
201.973
88.5992
85.7995
170.175
74.202
53.6134
45.8763
53.2148
47.4602
43.6867
42.8959
62.3877
44.1891
54.0814
51.0023
607.502
46.3901
43.8805
267.419
53.577
58.6064
145.738
134.265
100.993
94.6865
412.27
108.666
56.27
115.719
121.425
111.877
87.5707
52.8064
123.89
43.4228
65.1558
50.9248
47.1167
44.5529
45.3049
53.1967
47.6092
71.2418
45.8715
54.1622
51.5904
43.1211
57.572
45.601
135.85
46.1142
43.2894
45.5787
60.6339
54.0408
45.4428
66.8329
51.6384
100.619
86.338
127.653
74.7406
58.5597
71.7944
51.3302
49.5694
44.8531
45.5703
64.1205
66.5575
144.761
79.1177
107.848
43.9092
43.7911
49.1691
51.9559
48.0689
48.1629
47.6233
43.5945
44.9845
43.4754
90.279
93.201
65.7451
64.0897
56.3532
64.1163
43.6266
42.8336
47.1548
52.0072
68.4777
52.9353
123.109
49.2066
48.4012
51.6215
44.7324
42.9918
43.0781
52.5227
45.624
69.784
45.4542
49.6467
43.2859
42.8239
43.7517
48.0918
44.9066
45.9204
60.3868
75.9607
47.544
44.8754
45.9881
56.7246
57.8497
44.9025
46.255
45.4242
46.2681
65.5758
44.1465
45.6462
61.5995
102.287
43.2847
45.3989
70.7321
43.4356
104.797
45.1799
44.2764
47.602
68.7325
43.8246
47.7327
45.2757
44.0629
47.2906
45.3849
49.8105
53.0896
1432.02
43.1637
55.4407
711.625
82.8296
89.3577
312.765
222.75
73.2511
85.9055
80.5684
47.4414
46.6407
46.1811
43.2593
55.2488
98.9325
42.9695
48.9271
43.5886
56.337
47.4815
76.9868
47.5576
67.5167
55.8343
48.2532
42.7742
45.8735
44.6589
424.671
186.945
215.34
139.22
236.535
47.0878
42.9426
1463.98
64.623
63.0442
62.8729
45.7138
70.9902
109.889
66.0607
51.0745
43.7743
43.2308
102.382
45.7052
54.2358
62.2433
53.261
94.4875
45.86
184.335
263.02
45.4501
61.942
56.8454
226.342
43.1139
44.5173
50.4339
87.7415
47.5929
46.3227
51.7015
71.0614
43.2434
43.0448
44.1253
43.4012
50.0749
45.5267
43.1146
44.7675
45.5639
86.9318
59.4616
58.8521
109.253
42.9743
42.9995
88.0899
71.1752
131.161
97.9474
68.9635
149.411
56.3374
81.6538
48.3002
58.1256
52.0317
56.738
56.9125
43.8253
47.439
43.8685
66.3386
86.8494
118.298
75.3583
110.656
54.7979
49.9094
117.044
63.4325
160.767
76.2863
88.1877
47.8527
48.5722
58.5333
87.6892
807.968
47.3776
1032.5
1096.36
679.063
43.5059
44.8674
44.8052
1233.52
43.3177
45.6833
60.6712
49.8745
45.3766
52.82
49.9835
47.1448
45.9583
48.148
47.6289
45.3524
54.6949
238.295
200.325
45.0992
151.669
53.6815
69.7733
65.2221
70.0298
48.5215
1012.12
1048.05
966.544
301.434
183.518
1040.74
66.6018
57.2309
67.0328
1503.56
69.6895
1047.7
59.7019
63.9094
43.3239
43.4013
43.5633
43.7363
43.6494
43.7898
44.2623
49.3008
58.43
44.987
43.4931
45.0471
49.4164
48.6502
43.3758
43.6091
43.88
43.3911
57.1843
42.825
43.2918
124.701
43.1968
43.3011
44.977
42.9563
46.7657
78.3009
88.3518
76.4382
46.0445
59.154
43.8809
121.523
75.4082
53.8936
50.9318
95.0972
44.4461
60.7088
45.2991
50.6649
43.9224
58.1841
44.8245
57.1716
63.0665
52.4204
96.3671
44.0118
49.8857
44.8268
85.1396
68.59
50.124
43.2983
44.806
51.1932
52.5858
53.3216
58.1954
50.7955
49.8684
62.4252
64.9788
327.913
49.2032
48.3524
43.2504
53.3646
47.1291
44.1994
43.4778
50.6977
45.2119
43.0709
42.8484
54.0528
45.4906
140.436
51.2198
57.3146
45.0994
44.0354
45.8228
52.8953
43.7143
68.2831
43.7138
102.29
80.2575
49.5776
44.3663
72.6961
67.6041
48.876
42.9614
53.1578
54.2069
42.8585
43.8386
69.8517
68.7522
78.7806
110.445
77.8611
43.3404
122.026
44.2344
46.1888
83.5892
46.6202
126.259
43.2878
42.9434
43.5702
45.9778
43.0158
50.089
58.9827
56.2739
54.7554
42.9958
53.8885
81.583
43.4167
45.2285
59.3514
44.0788
49.1256
90.2275
43.7192
42.9184
43.4426
42.9196
45.533
44.9863
49.2517
88.1817
52.5963
58.999
57.4422
59.0193
49.4958
43.1303
48.9499
43.4061
43.3676
97.0621
46.9537
44.2732
51.2741
43.2571
44.2529
48.4788
75.4596
151.88
60.9908
153.313
651.028
1238.5
47.9423
42.9962
43.9608
43.094
50.178
84.0706
66.742
51.783
70.8609
130.982
96.5105
43.2884
58.7406
919.432
495.296
44.6472
411.13
60.0762
58.1451
48.5201
1087.27
1188.06
996.807
43.0177
51.1018
1233.83
1165.57
42.8628
43.1043
47.1649
68.1933
56.156
47.0623
45.8785
65.6592
56.6208
43.1809
66.3836
560.858
43.5164
56.8474
44.8944
49.1198
44.3306
45.2365
46.0502
44.4035
48.6205
98.123
47.0727
116.213
65.1463
53.7637
52.3319
44.9909
46.6532
43.714
46.5068
46.3915
85.0844
77.7489
44.7244
57.5575
61.5432
143.54
49.9487
56.454
52.1126
1118.49
44.9299
77.2617
60.9668
56.883
81.2593
73.8444
43.5472
51.2778
64.1284
46.3874
59.638
45.4719
82.1662
62.6362
67.0929
236.934
48.8244
77.9992
88.9127
43.3872
47.3129
44.8519
52.2181
249.185
89.0117
45.4822
46.205
73.724
139.328
76.1966
44.966
45.0019
48.6559
43.4141
61.5264
50.6622
60.8032
76.0689
49.5901
61.0758
55.3368
61.1152
51.1805
63.6671
110.272
470.458
53.8256
61.7074
58.0164
43.5005
44.6882
57.3755
147.487
76.0363
47.8137
45.8563
58.4334
48.0335
50.5721
57.9076
43.4639
44.1187
47.4922
50.2262
58.9175
178.861
56.2867
52.7143
48.6119
52.511
46.2182
49.2205
43.6666
44.5247
44.2503
43.1649
43.2293
43.6663
49.4438
43.9352
43.713
49.7888
44.6804
44.0209
80.3795
919.808
47.4499
45.4131
56.5434
46.4859
44.1454
916.43
54.6887
906.463
43.9005
44.9483
68.28
69.9987
56.9661
81.822
76.5182
70.3075
52.4073
65.0941
43.8101
45.8684
101.609
66.3927
48.281
48.4399
70.0203
43.9734
44.8037
103.91
47.0282
43.2961
45.916
46.5745
45.593
44.1685
44.4403
43.1578
54.6564
44.6576
43.275
44.2306
44.0789
44.6982
42.7287
44.9507
43.8969
47.0664
53.0403
82.199
55.3566
54.8159
73.8232
46.4181
42.9077
71.4716
44.1054
43.839
56.2565
48.2757
390.877
54.8211
55.3023
56.1912
48.9721
184.999
207.561
148.387
97.7924
52.9962
117.586
50.5434
44.1309
91.9599
47.6534
241.321
45.4517
45.6097
101.96
54.6544
45.3434
69.9754
43.2577
49.3498
98.392
52.64
50.6163
47.5648
43.3048
44.0553
394.289
50.9888
50.4043
43.0718
50.0467
43.0796
108.083
49.2107
43.1177
50.8223
44.3287
184.893
64.7934
54.7514
56.3374
1363.28
248.43
45.6175
49.3912
54.8376
43.5334
59.3436
62.9252
51.6667
43.7344
44.9876
54.2226
55.6688
57.044
70.418
49.5103
46.4799
52.4701
52.0097
44.2407
64.0901
70.9473
81.1959
45.5714
44.0218
86.9535
43.8112
45.1878
45.9892
178.642
1422.5
44.9699
55.2932
42.6703
55.9741
47.7405
49.8781
44.3183
171.742
57.6562
97.143
1319.5
59.237
79.4209
634.221
1266.9
252.052
191.879
76.5836
397.329
43.9498
47.9512
43.1173
44.6973
44.2018
202.798
43.3907
48.3528
49.3819
47.1862
46.3933
45.5747
43.4794
59.0944
43.1714
43.3947
63.021
46.1648
543.948
72.5191
553.988
71.0471
151.567
54.0786
81.8091
59.6161
1121.79
57.0308
79.8361
210.565
799.779
247.964
410.706
307.543
56.6773
257.313
52.2282
851.447
155.084
63.4595
62.573
55.4705
64.5862
113.227
52.4158
411.768
49.5267
63.9255
57.5632
145.283
79.9128
221.569
83.5118
871.616
600.958
175.893
83.0834
52.4009
52.5323
95.8146
52.3512
48.1885
45.2981
49.756
56.2708
45.0613
86.7915
147.37
90.753
48.6312
77.0176
45.6008
50.995
44.3774
52.0199
47.0997
52.9702
135.285
530.864
238.057
77.4123
99.5775
268.893
83.8188
195.106
45.5108
57.0042
45.1501
98.3012
91.5344
45.1286
43.6103
46.8951
44.2166
51.1584
71.877
50.478
51.3959
55.0835
43.2152
62.5885
43.9368
52.2934
49.7332
67.2548
134.383
74.0822
118.455
44.4348
117.987
100.15
75.8291
58.4615
44.9546
43.488
82.9334
59.7043
53.9287
49.4082
50.6101
136.878
112.683
92.0057
120.583
156.958
124.485
81.5418
69.1463
44.9109
44.6052
53.8896
55.5015
75.6915
47.4863
44.8477
75.68
63.4017
118.188
56.4433
103.261
71.1231
79.3377
122.548
115.612
51.8075
49.7223
76.2355
96.5213
74.7951
72.6664
62.1535
59.2694
77.1642
70.2588
45.0172
53.3116
49.7772
48.0857
45.9505
62.3495
85.663
65.1256
93.1712
44.3362
53.7622
66.2679
64.3327
58.3813
56.8699
89.8338
57.763
56.6679
51.017
59.0878
48.6542
47.2848
45.3747
1000.06
369.885
906.664
918.096
43.9694
98.1763
94.4519
54.4674
97.3496
92.6877
96.0851
71.0504
51.9727
49.2674
52.4545
85.1775
48.5459
100.808
56.2836
48.5449
57.7656
61.2429
98.4939
58.7306
49.0549
85.7812
53.4083
52.1768
56.2794
62.8258
45.5952
46.2461
137.397
46.0625
43.9419
67.5631
176.348
85.8904
108.08
642.441
48.1898
72.4212
228.407
807.385
211.257
204.781
196.395
1350.6
334.322
470.404
88.1782
58.0679
45.1774
46.6585
47.1545
1055.47
44.0186
45.1935
1144.15
43.9469
1224.9
81.0708
48.1626
43.5607
44.085
46.7174
46.4945
44.3952
43.3539
43.868
43.6365
46.1643
43.7934
43.4657
53.0503
49.3423
49.6796
57.4226
58.0447
57.9112
43.324
46.9373
45.3819
85.5273
97.3351
45.1238
43.28
44.477
44.0265
49.5057
45.2165
131.766
43.8393
43.2089
42.7633
55.1392
90.459
46.0989
78.183
113.319
76.1157
50.9025
50.3669
43.1399
43.0575
43.7432
45.4358
46.1675
44.5484
47.6236
47.7229
44.2749
43.0916
44.543
44.1892
44.7229
45.3231
44.9524
50.803
46.8433
48.3865
43
51.8023
45.5376
47.1444
43.4414
52.1896
123.956
42.7781
46.6377
56.7748
650.297
98.5352
57.8991
126.042
50.9641
72.6024
43.3467
56.9509
45.0514
46.6168
44.8659
43.6007
56.6486
45.4818
44.8806
125.779
48.4
56.6321
45.8066
45.4514
45.4727
46.7125
45.8655
95.216
106.851
87.5057
126.709
48.8829
43.7479
55.7895
641.338
124.16
45.7314
45.0449
47.7644
101.315
90.3941
43.8597
1073.66
69.7189
45.7449
45.4446
44.5106
44.0361
44.7607
47.7363
48.9649
97.3981
1166.62
43.5455
861.046
54.6929
44.0848
54.332
70.5943
44.2795
52.701
79.159
50.752
43.7456
1303.34
45.5826
46.1226
43.677
69.9042
49.8291
81.1469
1245.93
571.683
842.044
213.308
253.847
1018.76
148.27
44.9551
43.0034
603.744
43.1547
88.4327
70.2043
61.3065
96.8805
95.3325
61.427
45.8821
44.2111
44.1097
52.1235
76.3299
90.0879
52.031
52.9826
45.0798
47.7305
93.2508
45.9264
43.7607
134.811
59.8365
73.2653
43.0857
48.4085
45.4963
51.9776
45.3398
44.7078
49.1342
84.5964
55.1353
45.3112
45.8865
58.2099
111.538
94.0337
97.5589
49.0511
43.5453
45.8628
58.4963
42.814
43.6888
54.5189
48.2769
43.4438
921.389
55.2133
44.8858
56.7703
70.7173
75.1019
57.463
49.9259
45.3236
47.6626
47.1825
45.6244
58.4266
53.4351
45.682
53.8587
74.7232
120.725
459.221
55.5409
51.6959
50.4465
62.6911
44.3714
48.7435
44.8353
77.7073
44.7916
169.645
49.2379
47.2964
122.768
104.55
1236.05
1218.89
459.893
44.4723
82.1963
59.8112
50.69
47.3272
48.1655
44.7123
57.76
60.8955
90.8855
55.5268
51.5051
96.9133
70.5269
49.1216
71.5817
60.1352
117.979
1444.34
57.2728
46.5792
47.837
62.8246
273.042
51.8831
54.2458
83.8044
59.0463
55.3535
48.6396
346.96
45.5977
44.9526
45.2808
43.4308
44.4782
46.5813
43.8099
93.1993
48.0128
102.596
61.0905
82.7522
384.437
78.5636
46.1782
49.2659
48.0139
54.3486
43.1243
46.6968
49.6087
46.1168
43.8498
58.2035
44.6435
94.0213
45.3097
43.4885
44.0039
46.784
44.2633
46.4356
49.6859
60.1822
49.26
45.5389
44.4715
43.5472
44.0933
44.0701
44.2236
45.1196
44.1321
43.5745
48.9027
49.0662
43.5708
44.859
78.229
44.1388
49.1078
47.5956
116.159
47.2986
46.6915
45.6448
42.937
69.2587
68.9759
44.4599
64.9029
53.8542
44.5393
43.6612
48.1584
47.3738
45.2863
45.8423
102.403
45.8367
58.4802
45.3237
47.3773
45.5128
48.045
60.4433
297.77
46.3804
54.9508
43.3506
52.7402
56.0617
62.5232
43.3779
43.9756
49.6344
45.7072
45.9091
42.9942
44.6415
71.9344
1219.44
43.3684
52.0106
42.8031
43.2257
42.9333
44.2046
42.9116
43.3324
43.0213
98.8457
52.572
45.7662
46.0334
44.5972
44.7032
45.1156
46.9294
96.6554
57.1885
52.6104
54.8017
48.7905
60.2963
44.6298
44.9559
52.272
43.0638
44.9424
60.0858
50.4961
45.7995
42.8225
1264.1
45.333
44.5163
1428.83
45.775
53.5517
47.879
282.242
47.8856
43.8299
97.4351
102.214
160.147
49.4624
722.639
978.207
43.0732
49.3375
57.1452
43.2013
46.0788
183.089
50.7273
48.0243
62.1426
57.2667
1032.64
59.899
76.4384
49.3858
49.1936
259.887
178.392
150.072
46.5534
1118.97
303.99
283.576
350.722
216.482
169.57
45.4997
44.8476
45.1289
47.2519
43.5063
43.2661
43.1139
43.0562
387.69
43.2573
53.7387
43.6931
43.2501
45.3958
46.6229
44.4796
43.7111
44.0459
45.3365
42.8352
51.6943
44.4864
44.5134
45.0834
43.3018
43.2294
43.5169
42.643
45.3699
49.7663
83.6038
42.8628
52.5649
68.6806
97.856
46.3445
105.966
88.4528
79.8708
92.3833
46.049
46.426
44.7682
55.8651
63.5727
152.614
85.6711
45.2412
60.8425
194.397
632.967
659.452
455.354
54.7102
45.4662
48.4545
46.7367
43.8123
44.7314
1192.82
235.763
44.8882
44.7535
909.78
44.3609
70.9764
44.7602
43.6206
43.1453
43.8335
44.876
61.4241
53.4682
55.8059
64.1386
57.9125
46.1515
45.9618
59.2644
46.768
46.6984
48.8837
53.7512
298.193
68.4608
255.829
46.7746
50.543
46.1648
46.3561
46.2816
45.9137
45.1513
44.4501
44.9823
45.7279
46.0653
44.6052
42.9308
43.0983
46.5997
45.2761
45.21
46.9691
43.6306
43.8587
57.2038
85.9282
95.3671
50.9451
76.2618
131.94
160.125
162.95
96.7009
88.144
122.053
115.944
78.3303
45.8579
54.8523
96.4166
90.1882
64.1053
57.8035
54.9703
55.007
59.122
61.4286
62.158
61.0934
100.486
58.2151
53.6037
56.7369
44.1103
117.738
48.0505
67.6878
131.27
58.7384
64.8796
59.455
105.434
56.2244
55.7826
84.6965
57.6976
53.154
56.4201
55.5529
56.1463
123.482
119.368
49.5077
48.79
60.1314
56.8789
55.0893
968.195
709.242
376.493
751.039
762.139
56.6616
58.5962
58.1811
628.968
51.3436
57.2149
44.7395
48.0259
44.7618
43.8299
64.0233
52.3713
43.9301
59.6485
49.1182
52.4761
49.7023
78.6188
44.3261
66.9464
104.251
93.9126
63.236
45.3325
50.3532
90.1934
85.4187
59.5088
59.2881
46.4188
44.1013
47.3812
55.9663
43.1657
66.0177
68.437
43.0022
52.25
51.0213
113.252
76.067
107.165
56.5189
45.5317
43.7726
43.0934
49.3307
48.4047
45.7066
46.4786
59.2851
51.9022
49.6694
99.9531
50.2037
71.0204
54.9355
1038.12
70.0386
65.2524
44.6597
57.2583
43.7338
43.1905
43.5699
62.9327
44.0423
1288.37
49.3369
51.9043
44.3052
49.8431
96.5704
43.3437
50.8278
49.7647
44.0762
49.5743
90.8998
105.369
123.828
90.2005
53.9146
43.9585
46.8578
43.5491
53.5115
49.8335
49.8587
72.0647
70.2558
53.6356
50.4165
44.188
49.1012
43.6377
43.0742
53.2631
44.6754
44.0207
47.6351
44.602
43.5392
43.3325
44.3081
43.7514
43.6774
44.7282
44.8079
44.9027
47.1227
47.0809
42.6581
44.5985
54.3852
84.8652
169.98
47.8962
50.827
43.5727
45.0035
44.6603
43.283
49.0446
48.3374
45.101
43.9206
47.8728
116.695
56.8756
49.9965
49.0984
50.3018
48.7527
42.8281
43.5133
51.8461
45.5099
43.5212
44.8621
57.2108
97.8932
594.92
51.723
1329.98
78.9646
44.993
54.4262
43.9334
45.0961
43.9381
45.5042
45.8393
51.2888
56.3695
67.6306
69.4715
55.2151
52.1968
43.4608
45.3913
43.8549
120.334
101.985
43.5702
48.7563
45.6915
43.9757
44.1436
45.3123
48.4612
80.9652
54.5965
59.2594
55.325
1373.51
48.3631
88.8484
82.4929
846.079
65.0251
691.153
45.7105
43.1909
43.0134
45.5531
61.6544
52.3297
45.5991
45.1197
45.4815
53.0912
45.7191
163.726
99.0954
53.118
46.5137
883.081
49.8428
759.534
65.2707
55.9666
111.806
90.2268
49.0295
43.8965
44.9056
43.7075
62.0674
69.4912
599.152
87.529
72.2939
58.3602
47.3763
85.6803
63.9907
57.9365
101.346
60.7333
48.5597
50.2812
44.981
52.8597
47.5858
48.5308
120.773
62.3783
44.1032
47.712
46.9577
54.9969
43.3433
91.1519
48.7046
43.5144
57.7564
55.5785
46.5933
61.2787
65.1568
43.286
55.2057
53.7739
51.366
51.8054
43.4609
43.4198
71.2829
46.5403
67.5166
70.4245
43.1992
43.685
43.2529
44.9128
44.9644
44.7313
45.0908
46.535
98.4209
56.1114
53.0258
50.1482
44.8571
95.2132
91.8287
51.733
127.924
103.792
110.152
45.1485
108.403
61.4262
162.975
65.9981
49.8324
78.4098
100.284
77.5424
67.0135
126.124
117.852
116.254
45.2595
45.54
61.1629
43.2625
57.3731
59.2234
50.7416
60.1361
44.0718
44.7841
49.9609
45.5299
49.8512
45.3085
45.2406
45.2728
43.3063
43.0508
49.526
49.6827
42.7493
44.3119
46.3141
947.959
43.3662
46.3061
43.0151
43.0221
43.8164
45.872
42.9152
48.4034
52.1991
44.1594
48.2025
45.1462
55.7914
180.623
54.2525
48.2617
90.9169
44.628
43.6222
44.1365
51.2429
44.5203
44.7755
44.2701
43.5485
43.1178
43.2689
52.8301
45.4709
62.924
47.8188
46.9112
44.6447
46.9965
44.1545
46.3418
48.5333
47.5552
52.3326
47.5423
49.1467
58.2197
108.059
63.1264
60.7992
50.5919
121.219
43.0842
42.4745
71.8249
43.3547
44.5743
75.7914
51.6194
46.9985
51.7693
55.9415
172.213
217.633
52.1671
94.9975
54.6115
57.8853
45.0553
44.5779
43.9709
60.75
46.175
235.495
962.766
926.101
45.8566
160.029
45.2654
47.2463
48.5836
47.2344
56.0759
58.1618
52.2949
50.1567
48.3548
59.02
49.5581
45.7772
45.2047
43.0475
45.6849
49.8549
44.8516
44.7088
44.536
43.0553
43.2753
43.2967
48.0757
43.2396
42.668
42.846
50.02
85.2972
48.2728
146.36
80.8761
53.445
45.8575
1173.85
804.717
206.718
1099.19
80.568
1258.74
137.741
43.2637