/*--------------------------------*- C++ -*----------------------------------*\
| =========                 |                                                 |
| \\      /  F ield         | OpenFOAM: The Open Source CFD Toolbox           |
|  \\    /   O peration     | Version:  2506                                  |
|   \\  /    A nd           | Website:  www.openfoam.com                      |
|    \\/     M anipulation  |                                                 |
\*---------------------------------------------------------------------------*/
FoamFile
{
    version     2.0;
    format      ascii;
    arch        "LSB;label=32;scalar=64";
    class       volScalarField;
    location    "0.0207921";
    object      k;
}
// * * * * * * * * * * * * * * * * * * * * * * * * * * * * * * * * * * * * * //

dimensions      [0 2 -2 0 0 0 0];

internalField   nonuniform List<scalar> 
47425
(
0.359687
0.382818
0.358274
0.349322
0.469673
0.360995
0.439411
0.362655
0.36815
0.919301
0.367551
0.382036
0.402488
0.358489
0.360354
0.368976
0.359276
0.398318
0.955685
0.529694
0.357483
0.359812
0.37124
0.358885
0.37119
0.361112
0.356433
0.810693
0.355571
0.371658
0.369578
0.369773
0.365901
0.364892
0.360468
0.367394
0.363545
0.371529
0.363437
0.354772
0.384734
0.366207
0.408482
0.380391
1.46393
0.389111
0.369053
0.367931
0.359098
0.36297
0.73717
0.428577
0.360858
0.80623
0.391944
0.375987
0.362481
0.369261
0.461244
0.366114
0.874177
0.680013
0.781579
0.383169
0.36614
0.365884
0.369441
0.369588
0.799802
0.389713
0.359595
0.368062
0.363811
0.363435
0.744293
0.370048
0.778117
0.363154
0.844525
0.507334
0.754662
0.364034
0.365895
0.371119
0.360122
0.362302
0.362992
0.357012
0.450489
0.579622
0.370384
0.369995
0.365095
0.384163
0.393324
0.380681
0.358362
0.35854
0.355947
0.385011
0.363945
0.472575
0.360645
0.501269
0.361382
0.366692
0.36026
0.354161
0.356754
0.372759
0.595243
0.36152
0.374315
0.370746
0.364123
0.786659
0.363554
0.646032
0.385405
0.372254
0.353537
0.366077
0.373953
0.397945
0.376623
0.383262
0.368273
0.366571
0.380411
0.366078
0.368133
0.374049
0.544888
0.382275
0.369323
0.397759
0.368976
0.384085
0.365377
0.354826
0.374439
0.389593
0.359042
0.401871
0.3697
0.367365
0.421821
0.364007
0.379059
0.374852
0.396056
0.764181
0.365929
0.771584
0.383628
0.367148
0.397531
0.867076
0.391655
0.37722
0.369774
0.366241
0.360922
0.365262
0.669662
0.79487
0.371278
0.748717
0.368383
0.822773
0.742875
0.384592
0.36407
0.371692
0.389542
0.430215
0.794611
0.357754
0.364007
0.359552
0.782075
0.357718
0.360016
0.364173
0.35836
0.371423
0.365524
0.470992
0.374825
0.361547
0.365614
0.364278
0.435663
0.368593
0.364532
0.369186
0.365683
0.362325
0.374192
0.351164
0.372913
0.374287
0.359361
0.367012
0.394339
0.379972
0.360148
0.367787
0.378489
0.368972
0.361522
0.35985
0.371639
0.352079
0.362614
0.36465
0.366983
0.496764
0.391019
0.388067
0.540038
0.353138
0.386721
0.352779
0.402844
0.523923
0.363925
0.370563
0.383638
0.413887
0.366453
0.369824
0.386472
0.370008
0.379265
0.361733
0.533233
0.379718
0.512666
0.374512
0.355902
0.367703
0.364872
0.359081
0.362621
0.370257
0.35551
0.377563
0.359229
0.368572
0.357362
0.499829
0.366998
0.367561
0.367493
0.364007
0.363785
0.389727
0.352446
0.364518
0.411059
0.37752
0.369363
0.38002
0.398326
0.385937
0.362552
0.398777
0.361237
0.370653
0.367404
0.499645
0.52335
0.366938
0.489387
0.386357
0.491482
0.507485
0.508628
0.571893
0.916301
0.357803
0.836176
0.390341
0.365289
0.351667
0.383723
0.356068
0.387971
0.369316
0.694424
0.382128
0.371376
0.355934
0.358633
0.373901
0.369742
0.361696
0.357447
0.399859
0.388453
0.363506
0.373792
0.362112
0.813456
0.782124
0.758047
0.36172
0.361575
0.366396
0.363602
0.72031
0.365081
0.366842
0.565612
0.381492
0.372652
0.396055
0.360948
0.616849
0.547418
0.365158
0.359065
0.358586
0.381319
0.361354
0.361515
0.358356
0.362455
0.363363
0.361927
0.694739
0.381422
0.359605
0.392829
0.369186
0.69769
0.366315
0.359042
0.362604
0.372098
0.371544
0.357516
0.365292
0.365104
0.364158
0.367884
0.366472
0.361837
0.382871
0.368262
0.370018
0.364446
0.37853
0.364091
0.395767
0.372223
0.368359
0.37868
0.369822
0.428048
0.377599
0.38172
0.368935
0.357726
0.36467
0.389224
0.368244
0.361643
0.36458
0.390334
0.686134
0.351774
0.367092
0.386102
0.366817
0.369333
0.391462
0.369254
0.363135
0.367332
0.365685
0.35599
0.361959
0.378649
0.367164
0.370661
0.360752
0.367711
0.368415
0.369506
0.37147
0.372696
0.360366
0.372342
0.368116
0.361095
0.364491
0.423199
0.362056
0.62925
0.361489
0.74267
0.374657
0.392684
0.387765
0.360746
0.371832
0.356271
0.372973
0.368458
0.809071
0.738988
0.372034
0.388867
0.35791
0.356496
0.361343
0.364933
0.35973
0.374142
0.367406
0.358845
0.353243
0.357072
0.358845
0.434853
0.365119
0.368424
0.544915
0.380175
0.365583
0.665628
0.373004
0.381802
0.426153
0.724788
0.363037
0.35995
0.361615
0.363093
0.657402
0.384471
0.361582
0.36088
0.368568
0.367457
0.36131
0.359663
0.682887
0.659827
0.531917
0.362956
0.449568
0.379154
0.361765
0.371893
0.394556
0.37278
0.365999
0.365258
0.378842
0.363022
0.370125
0.358074
0.371302
0.377201
0.371366
0.360837
0.361471
0.363151
0.362304
0.382679
0.382779
0.360589
0.380857
0.371382
0.714862
0.378432
0.439926
0.372739
0.39046
0.464749
0.382561
0.36445
0.38468
0.376902
0.362109
0.385751
0.394628
0.355544
0.379082
0.365274
0.382673
0.484534
0.356886
0.39661
0.363513
0.409773
0.358177
0.359484
0.359864
0.358257
0.385688
0.369628
0.358438
0.356282
0.362119
0.376816
0.364251
0.372386
0.378515
0.365082
0.362419
0.361537
0.362588
0.364031
0.380647
0.364165
0.39
0.365882
0.37932
0.727629
0.36923
0.366356
0.375641
0.367086
0.477358
0.481615
0.382654
0.365114
0.387593
0.416859
0.368108
0.493554
0.367924
0.640292
0.405488
0.400776
0.369866
0.484758
0.359232
0.362541
0.366573
0.362684
0.357992
0.361597
0.910405
0.358482
0.400525
0.360165
0.463615
0.372124
0.365274
0.447829
0.437039
0.368454
0.361198
0.305721
0.35854
0.361407
0.362283
0.359887
0.359981
0.415704
0.422722
0.382227
0.359461
0.363976
0.360875
0.535645
0.363106
0.361945
0.296496
0.366692
0.361692
0.365728
0.728802
0.366194
0.193872
0.227924
0.356627
0.37584
0.359028
0.362987
0.394749
0.382243
0.652645
0.369093
0.388067
0.358406
0.467686
0.412266
0.386709
0.370313
0.621669
0.715322
0.363239
0.362581
0.357884
0.372416
0.380623
0.39604
0.366605
0.375768
0.38288
0.359726
0.382473
0.493962
0.394339
0.367546
0.502933
0.380731
0.362047
0.381385
0.374488
0.358899
0.368254
0.378021
0.409523
0.372287
0.363433
0.363053
0.994273
0.380455
0.400318
0.75705
0.739245
0.357809
0.387072
0.703872
0.382071
0.464225
0.468615
0.379571
0.775848
0.359353
0.364563
0.37026
0.501432
0.388441
0.37979
0.363873
0.395216
0.360578
0.359098
0.371183
0.369009
0.388717
0.718339
0.725228
0.388403
0.400037
0.374547
0.378252
0.390795
0.369488
0.369664
0.369134
0.368103
0.372161
0.394518
0.374068
0.358026
0.446221
0.394508
0.779338
0.568617
0.376163
0.377275
0.373673
0.361125
0.78506
0.361197
0.74437
0.378867
0.423399
0.390165
0.364648
0.371188
0.360325
0.410286
0.365584
0.357199
0.407179
0.395295
0.369426
0.419307
0.374317
1.0244
0.389686
0.391942
0.405901
0.366428
0.355468
0.396523
0.358088
0.419651
0.367832
0.360297
0.398744
0.365257
0.363711
0.366445
0.358503
0.514951
0.58728
0.368715
0.481889
0.365277
0.375155
0.352288
0.356816
0.373637
0.361747
0.352897
0.361239
0.366056
0.696389
0.583972
0.360614
0.365221
0.362484
0.373942
0.362295
0.366134
0.371043
0.556443
0.366533
0.358814
0.364848
0.360813
0.357396
0.362857
0.361136
0.358973
0.370946
0.364461
0.379919
0.578648
0.358332
0.300205
0.562906
0.563711
0.24027
0.369308
0.459704
0.407715
0.390897
0.53672
0.311417
0.777442
0.367214
0.36085
0.404755
0.385222
0.570409
0.374446
0.377332
0.361951
0.358355
0.40797
0.386644
0.372451
0.386241
0.416996
0.423038
0.368327
0.379762
0.520302
0.503541
0.500687
0.624221
0.571735
0.623422
0.651007
0.366979
0.384032
0.363894
0.358174
0.370641
0.263352
0.384512
0.363013
0.375176
0.362865
0.299874
0.258312
0.360891
0.401522
0.363379
0.361941
0.389374
0.359767
0.363293
0.360934
0.37295
0.476027
0.362421
0.366691
0.36277
0.383434
0.374119
0.556749
0.472716
0.355938
0.389911
0.363951
0.357692
0.35864
0.384214
0.382759
0.610546
0.359934
0.357072
0.37202
0.440607
0.833343
0.365294
0.364206
0.460248
0.37722
0.365181
0.391668
0.369699
0.379409
0.75088
0.455399
0.806077
0.368201
0.439964
0.361578
0.416384
0.361389
0.370966
0.381739
0.36393
0.762849
0.4927
0.410951
0.544631
0.400612
0.364351
0.371289
0.430856
0.361528
0.378165
0.29269
0.359132
0.430781
0.383765
0.408964
0.735674
0.394949
0.392641
0.550157
0.370953
0.365526
0.462742
0.490825
0.366199
0.457117
0.488742
0.35631
0.370318
0.353129
0.372878
0.377504
0.378029
0.687654
1.46257
0.392691
0.405053
0.495343
0.776817
0.685083
0.574352
0.389473
0.366312
0.38015
0.388862
0.508422
0.361917
0.38707
0.383362
0.345008
0.370951
0.367998
0.374814
0.357786
0.395024
0.521445
0.367579
0.816036
0.362029
0.430985
0.377829
0.368951
0.367334
0.36696
0.37968
0.481084
0.386638
0.42886
0.514371
0.38554
0.366892
0.383821
0.474759
0.358823
0.40421
0.366409
0.397957
0.659772
0.532652
0.356714
0.367806
0.371606
0.365073
0.377774
0.701809
0.506516
0.740038
0.368614
0.409178
0.381043
0.57656
0.356999
0.956441
0.414317
0.396779
0.394698
0.62448
0.358532
0.356091
0.361263
0.386184
0.400053
0.369979
0.444026
0.628916
0.432479
0.359472
0.367039
0.680564
0.699437
0.547389
0.559203
0.785495
0.406172
0.386754
0.457275
0.356564
0.508248
0.380509
0.394202
1.0513
0.386627
0.368717
0.360792
0.377205
0.434566
0.391302
0.357108
0.385898
0.491112
0.363104
0.369149
0.365478
0.36961
0.375535
0.422165
0.377926
0.388643
0.373094
0.385977
0.373248
0.350772
0.352928
0.370541
0.418229
0.508122
0.377755
0.414423
0.360377
0.850865
0.390649
0.378155
0.360103
0.991397
0.63815
0.823774
0.277745
0.385602
0.392716
0.627231
0.316545
0.387259
0.431226
0.380355
0.382351
0.661805
0.375278
0.365993
0.386753
0.405314
0.362595
0.608049
0.924385
0.357872
0.925182
0.364246
0.666417
0.885685
0.358307
0.38185
0.377251
0.609348
0.377579
0.37719
0.393214
0.67487
0.369834
0.52996
0.365051
0.369269
0.359785
0.36805
1.00534
1.02329
0.388729
0.410659
0.403885
0.652543
0.364691
0.357689
1.16417
0.965914
0.377134
0.367914
0.859681
1.07138
0.83552
0.385496
0.610188
0.892128
0.725812
0.367024
0.506588
0.471393
0.380609
0.370657
1.03518
1.57159
0.416011
0.419734
0.373095
0.368777
0.388259
0.368853
0.510807
0.365787
0.367487
0.36092
0.360937
0.729478
0.843687
0.372771
0.616178
0.451678
0.356227
0.528312
0.359096
0.371015
0.369848
0.390806
0.400246
0.358015
0.713571
0.363988
0.84152
0.538603
0.700665
0.414547
0.39901
0.374502
0.386828
0.363595
0.581451
1.00084
0.382374
0.652705
0.566713
0.756915
0.500064
0.885228
0.688008
0.369894
0.363351
0.754367
0.361764
0.366346
0.363243
0.677902
0.56936
0.360632
0.389818
0.634604
0.460772
0.721662
0.699962
0.381069
0.515076
0.979643
0.374269
0.397567
0.779456
0.368981
0.809851
0.831176
0.372338
0.368094
0.372753
0.368845
0.402713
0.354685
0.374787
0.393073
0.382823
0.519076
0.408096
0.373875
0.513518
0.493094
0.829283
0.379931
0.385139
0.461022
0.37592
0.864872
0.359612
0.380062
0.370753
1.14879
0.366134
1.48956
0.393978
0.528929
0.402517
1.23735
0.634511
0.625513
0.447581
0.559551
0.419544
0.365842
0.413164
0.600067
0.550923
0.477737
0.720034
0.39035
0.486096
0.634741
0.389529
0.35706
0.678228
0.722628
0.358727
0.368572
0.368013
0.38036
0.597494
0.738647
0.362708
0.383106
0.364465
0.996866
0.365894
0.653953
0.417053
0.367504
0.367582
0.474265
0.412175
0.624013
0.493529
0.397674
0.429243
0.4807
0.361806
0.850695
0.692083
0.366759
0.831755
0.623999
0.378231
0.540071
0.367173
0.414321
0.810953
0.4118
1.18313
0.604007
0.37081
0.418666
0.431064
0.368303
0.366831
0.437887
0.497686
0.463119
0.358566
0.437762
0.361737
0.445504
0.434732
0.394147
0.397177
0.430732
0.362642
0.802366
0.542868
0.416772
0.66641
0.699246
0.363682
0.515623
0.295836
0.399471
0.394895
0.429367
0.731184
0.515477
0.711088
0.358228
0.733304
0.476675
0.364379
0.429721
0.400935
0.510163
0.381845
0.432717
0.576198
0.359248
0.650708
0.392483
1.09314
0.399009
0.368711
0.391415
0.512204
0.411552
0.588832
0.421448
0.362878
0.76447
0.369392
0.391446
0.969663
0.359721
0.378139
0.683359
0.392734
0.552478
1.098
0.388213
0.456628
0.371369
0.86197
0.486339
0.63897
0.539522
0.456598
0.392369
0.479919
0.784132
1.08896
0.745798
0.378567
0.368595
0.371426
0.366141
0.388305
0.67112
0.378261
0.364457
0.395043
0.360789
0.385182
0.389295
0.38377
0.384381
0.388189
0.481849
0.363726
0.389145
0.449064
0.369008
0.367684
0.401001
0.402514
0.370729
0.359466
0.377577
0.374339
0.37279
0.393452
0.570723
0.368327
0.386999
0.357733
0.36411
0.536399
0.357736
0.362921
0.50543
1.01765
0.703271
0.370774
0.536438
0.526686
0.36697
0.477998
0.481754
0.460724
0.386242
0.371747
0.384702
0.439196
0.363646
0.399371
0.414634
0.383765
0.357119
0.361097
0.380934
0.538072
0.371836
0.432284
0.791636
0.369025
0.576165
0.44069
0.791612
0.367695
0.383294
0.388639
0.366608
0.375922
0.382156
0.363156
0.625441
0.551188
0.817058
0.386243
0.739042
0.363165
0.366685
0.475093
0.358101
0.72532
0.377174
0.610319
0.357568
0.819368
0.844812
0.373571
0.361092
0.472515
0.368805
0.420141
0.362281
0.382951
0.361216
0.357533
0.359486
0.366676
0.375111
0.49028
0.403416
0.403164
0.375709
0.363168
0.367769
0.377076
0.589218
0.373146
0.692655
0.379379
0.356348
0.382545
0.37859
0.365237
0.365694
0.38892
0.362516
0.365595
0.353777
0.362932
0.381408
0.373165
0.751117
0.649662
0.382508
0.39335
0.650023
0.360456
0.362651
0.360029
0.359382
0.388435
0.386086
0.400899
0.403486
0.369654
0.363923
0.439847
0.36451
0.361622
0.367155
0.721756
0.394601
0.791646
0.725534
0.78195
0.374268
0.364053
0.359991
0.356672
0.372446
0.633384
0.378604
0.35842
0.368124
0.374129
0.362731
0.453947
0.361445
0.382491
0.454594
0.372141
0.354823
0.363139
0.36962
0.37826
0.360119
0.37815
0.368997
0.450547
0.357444
0.366025
0.380144
0.365104
0.36552
0.358133
0.379557
0.354624
0.390827
0.397432
0.36642
0.357858
0.356435
0.356945
0.360983
0.380712
0.366939
0.368977
0.363517
0.371943
0.668444
0.365158
0.459629
0.358465
0.366269
0.578595
0.373566
0.381195
0.359827
0.367912
0.38199
0.387601
0.678498
0.385745
0.685629
0.356574
0.364818
0.379876
0.365127
0.372461
0.397819
0.370887
0.363453
0.361145
0.538311
0.476066
0.661801
0.388025
0.529601
0.387061
0.367212
0.407497
0.958556
0.37981
0.363919
0.361656
0.749414
0.358238
0.366807
0.385208
0.371158
0.367376
0.774459
0.361015
0.376535
0.373475
0.372184
0.410319
0.886569
0.782446
0.361241
0.357937
0.361023
0.39212
0.387593
0.366189
0.772233
0.76217
0.359563
0.375398
0.651859
0.358256
0.411724
0.474435
0.362101
0.359544
0.36621
0.36487
0.421806
0.373991
0.363243
0.385409
0.415008
0.367271
0.36499
0.588835
0.365268
0.466203
0.51787
0.357906
0.582779
0.379768
0.390075
0.419618
0.380087
0.381208
0.38003
0.801775
0.58799
0.378983
0.384572
0.367419
0.386247
0.379306
0.431613
0.361539
0.357967
0.370173
0.371025
0.529743
0.468316
0.766699
0.697906
0.39321
0.381954
0.369031
0.37393
0.367454
0.37699
0.370806
0.360266
0.363546
0.399405
0.342141
0.366568
0.360041
0.535714
1.25904
0.399387
0.357897
0.397394
0.520274
0.794778
0.352417
0.611324
0.519492
0.637231
0.635024
0.442051
0.362842
0.363387
0.369066
0.827556
0.362134
0.376785
0.377956
0.361936
0.388331
0.385501
0.38405
0.371165
0.587539
0.367333
0.370962
0.39326
0.385454
0.668945
0.647712
0.24709
0.435129
0.300656
0.426629
0.363885
0.868497
0.365117
0.827043
0.382662
0.816804
0.38168
0.510782
0.367914
0.516946
0.383808
0.392017
0.365786
0.368496
0.374472
0.456512
0.426024
0.367404
0.372654
1.10401
0.292247
0.383621
0.599451
0.449897
0.589928
0.36466
0.369873
0.341258
0.672777
0.630904
0.378766
1.00548
0.367231
0.842618
1.00853
0.254685
0.472561
0.364471
0.408475
0.35716
0.364743
0.36914
0.527182
0.394872
0.363735
0.360306
0.379785
0.361839
0.361555
0.361126
0.485001
0.358987
0.357024
0.377225
0.362586
0.462242
0.375777
0.396548
0.384905
0.359855
0.411544
0.494137
0.350023
0.356425
0.506599
0.781351
0.382748
0.815487
0.401705
0.471784
0.759971
0.452515
0.395878
0.363394
0.446044
0.368497
0.35902
0.372148
0.365855
0.359855
0.37414
0.359813
0.355657
0.356984
0.387137
0.37298
0.389116
0.708995
0.361428
0.362884
0.361811
0.368016
0.475228
0.625834
0.37686
0.360459
0.379159
0.572289
0.526207
0.360908
0.382057
0.808605
0.39757
0.395464
0.382265
0.442081
0.378965
0.367782
0.380071
0.550207
0.38684
0.377204
0.840274
0.367726
0.395593
0.367375
0.395297
0.373999
0.406734
0.378819
0.367217
0.368319
0.405657
0.350142
0.374923
1.14093
0.359555
0.460688
0.390562
0.36681
0.603414
0.41357
0.365133
0.378719
0.623398
0.566444
0.391373
0.372052
0.397109
0.436675
0.382807
0.369299
0.772964
0.497538
0.422869
0.585806
0.372039
0.361373
0.53985
0.40542
0.959153
0.389276
0.4142
0.439387
0.36115
0.540948
0.446067
0.670529
0.436878
0.368683
0.366978
0.544819
0.385883
0.411966
0.358158
0.382546
0.397992
0.431431
0.663809
0.387857
0.372062
0.289919
0.545158
0.722
0.450396
0.686869
0.409486
0.932243
0.386596
0.381082
0.765438
0.454181
0.565744
0.282947
0.633602
0.612276
0.364527
0.361996
0.258878
0.388535
0.38011
0.708612
0.390212
0.423086
0.367197
0.449584
0.372698
0.367955
0.844111
0.27651
0.524811
0.336315
0.405201
0.384613
0.377983
0.396092
0.388594
0.371971
0.364646
0.389725
0.400361
0.230789
0.225269
0.378481
0.40821
0.364068
0.434943
0.47043
0.390359
0.374439
0.401436
0.2379
0.418339
0.414535
0.327552
0.378819
0.646356
0.396164
0.370723
0.823072
0.39801
0.510501
0.530942
0.396576
0.37829
0.365034
1.03094
0.363633
0.356525
0.407923
0.391606
0.434986
0.372143
0.459493
0.375909
0.531275
0.359486
0.399404
0.383321
0.359375
0.779147
0.394514
0.781759
0.685894
0.362039
0.683895
0.480174
0.364962
1.18203
0.359688
0.358713
0.395029
0.459964
0.788032
0.696284
0.402015
0.691632
0.538869
0.36292
0.524669
0.769078
0.422473
0.745978
0.427229
0.361484
0.610253
0.710477
0.404757
0.876461
0.413395
0.391627
0.564025
0.414699
0.369505
0.387944
0.713198
0.417395
0.356514
0.545409
0.374791
0.398937
0.385172
0.397817
0.514637
0.47081
0.688975
0.368084
0.367805
0.650107
0.369969
0.378508
0.504607
0.367395
0.390371
0.618445
0.386584
0.852143
0.766118
0.744005
0.579866
0.378623
0.441168
0.3614
0.362881
0.461431
0.364482
0.362597
0.401054
0.363485
0.45935
0.740886
0.365041
0.530812
0.369206
0.50728
0.411014
0.823994
0.37324
0.467579
0.37126
0.370102
0.407966
0.366365
0.379658
0.364673
0.358785
0.57113
0.348919
0.389381
0.396657
0.380042
0.377857
0.394878
0.386995
0.67147
0.391014
0.366977
0.375377
0.433062
0.341745
0.644433
0.529122
0.623762
0.873961
0.437103
0.451592
0.164179
0.347188
0.778906
0.438458
0.520503
0.42538
0.697808
0.570579
1.1215
0.414112
0.384834
0.515561
0.834104
0.39895
0.268082
0.462546
0.276955
0.44276
0.449551
0.723564
0.596083
0.341373
0.423734
0.234277
0.371653
1.02378
0.375643
0.390038
0.361936
0.365785
0.486207
0.364611
0.633268
0.498023
0.367545
0.392436
0.372336
0.547581
0.621961
0.375671
0.41385
0.41363
0.852885
0.440525
0.371158
0.528487
0.549588
0.359316
0.371265
0.381319
0.360191
0.631725
0.36934
0.476839
0.646107
0.365019
0.397198
0.374235
0.372189
0.348312
0.392811
0.545718
0.358322
0.366454
0.666538
1.23891
0.369152
0.37558
0.368611
0.368505
0.570362
0.436806
0.739697
0.390066
0.365613
0.478004
0.389551
0.388316
0.371272
0.404582
0.390568
0.542199
0.523042
0.628429
0.440672
0.454431
0.366017
0.382423
0.741143
0.851241
0.44149
0.756995
0.39304
0.819268
0.466854
0.697804
0.500626
0.431377
0.395477
0.372183
0.39864
0.433447
0.554022
0.374334
0.415177
0.904124
0.381244
1.2398
0.384868
0.362432
0.382203
0.405246
0.378024
0.359906
0.648798
0.361592
0.354671
0.355768
0.379596
0.594054
0.522165
0.364011
0.55221
0.389652
0.394555
0.364481
0.373349
0.456157
0.414229
0.447733
0.387701
0.358072
0.430691
0.376461
0.354274
0.423143
0.406838
0.716337
0.383525
0.488848
0.394531
0.441061
0.385318
0.4579
0.362598
0.382555
0.359246
0.38203
0.388525
0.748712
0.358162
0.508666
0.291793
0.398122
0.38094
0.396869
0.386506
0.465059
0.515689
0.368219
0.372248
0.377548
0.494523
0.425625
0.356457
1.00304
0.511107
0.544414
0.368644
0.358442
0.520678
0.373345
0.370642
0.520837
0.367607
0.371564
0.409911
0.670188
0.363576
0.571278
0.364184
0.367906
0.458452
0.375413
0.387859
0.491006
0.361321
0.492137
0.441914
0.445312
0.476792
0.848147
0.370021
0.368438
0.386285
0.405926
0.399153
0.39121
0.36412
0.36672
0.378712
0.585475
0.385462
0.39352
0.68132
0.390822
0.668437
0.366205
0.38506
0.432921
0.363987
0.435094
0.388567
0.396603
0.409593
0.366581
0.380332
0.422408
0.471832
0.443958
0.367908
0.555996
0.382183
1.07418
0.718972
0.460745
0.379303
0.496414
0.382712
0.28873
0.436087
0.299574
0.474372
0.229489
0.429134
0.574415
0.442352
0.624733
0.646101
0.396787
0.312901
0.270044
1.16965
0.618641
0.667361
1.20906
0.633701
0.307966
0.778767
0.366114
0.379632
0.709289
0.429757
0.735847
0.411926
0.665209
0.67739
0.378618
0.391363
0.373219
0.356535
0.378158
0.360383
0.689533
0.40773
0.382849
0.565729
0.359626
0.369177
0.36687
0.379723
0.375817
0.385431
0.398461
0.363102
0.442134
0.834941
0.359262
0.371679
0.370288
0.360205
0.671872
0.66756
0.418741
0.375778
0.571543
0.360379
0.361705
0.380779
0.400803
0.367198
0.372961
0.361522
0.35861
0.448539
0.352604
0.420484
0.37312
0.369799
0.369536
0.420339
0.369797
0.375156
0.362633
0.436721
0.367652
0.396767
0.65714
0.449979
0.392438
0.426439
0.374186
0.400855
0.393079
0.380157
0.366268
0.388222
0.37607
0.374924
0.416388
0.38611
0.442421
0.480245
0.372963
0.384472
0.436206
0.442338
0.511205
0.497807
0.721274
0.890888
0.383042
0.367038
0.829439
0.561478
0.503167
0.366041
0.363438
0.376801
0.359036
0.369779
0.364921
0.37631
0.397832
0.362748
0.373828
0.361868
0.368817
0.368891
0.515244
0.415037
0.381348
0.367877
0.371211
0.667383
0.359177
0.368163
0.410976
0.922409
0.70706
0.381446
0.374118
0.382257
0.408729
0.438783
0.673617
0.440718
0.370595
0.381695
0.377773
0.367275
0.405896
0.42279
0.382517
0.359545
0.431362
0.409317
0.558649
0.429409
0.636598
0.55638
0.395956
0.410614
0.359759
0.373901
0.395731
0.363496
0.360754
0.627131
0.367367
0.381319
0.694825
0.381007
0.389363
0.286821
0.443234
0.359565
0.37612
0.363383
0.391639
0.746891
0.382182
0.460034
1.00012
0.561014
0.96659
0.792045
0.367495
0.384264
0.552143
0.35939
0.570931
0.521267
0.684386
0.370484
0.363344
0.598407
0.370529
0.574941
0.438782
0.371986
0.712948
0.782116
0.36709
0.365173
0.826133
0.368373
0.362474
0.356088
0.361121
0.382536
0.409613
0.573913
0.375342
0.779831
0.365178
0.379179
0.355837
0.831
0.371975
0.861401
0.368168
0.39961
0.366683
0.468496
0.362753
0.463695
0.354881
0.545372
0.495858
0.496958
0.668365
0.369249
0.373659
0.762737
0.455745
0.380685
0.438904
0.456455
0.376132
0.428644
0.377568
0.608857
0.439497
0.365817
0.35494
0.469704
0.367687
0.411906
0.387187
0.362695
0.378207
0.364023
0.365292
0.372076
0.634604
0.360986
0.365516
0.365592
0.365144
0.359567
0.36953
0.375576
0.383479
0.388859
0.397796
0.393492
0.358903
0.304025
0.389711
0.411174
0.495636
0.343539
0.778178
0.365677
0.800088
0.409345
0.273809
0.388389
0.399236
0.395397
0.366855
0.352113
0.38713
0.382938
0.369283
0.373088
0.362187
0.699249
0.361834
0.368891
0.404255
1.15535
0.249924
0.379099
0.787392
0.45345
0.62149
0.547981
1.04798
0.202023
0.404896
0.391667
0.381504
0.36567
1.12763
0.436337
0.431465
0.364971
0.3615
0.691164
0.384216
0.41867
0.373356
0.387568
0.431948
0.390983
0.613636
0.370915
0.38016
0.362164
0.368211
0.399294
0.358081
0.381302
1.02964
1.05878
0.780832
0.477281
0.719849
0.372948
0.360435
0.355645
0.380016
0.363232
0.409701
0.370097
0.44653
0.39073
0.365881
0.361697
0.374652
0.365868
0.378509
0.381246
0.369324
0.384554
0.539527
0.376064
0.410919
0.748134
0.383451
0.631326
0.821243
0.386504
0.410061
0.360691
0.502702
0.39046
0.4043
0.640969
0.364535
0.418482
0.374174
0.405916
0.367347
0.367818
0.477389
0.547174
0.378399
0.393222
0.751069
0.423128
0.612708
0.578939
0.367171
1.21484
0.426768
0.423665
0.407926
0.36678
0.447134
0.396047
0.348014
0.368818
0.334948
0.594723
0.21531
0.374572
0.401372
0.459879
0.22495
0.796041
0.360479
0.377788
0.430186
0.361643
0.433195
0.425485
1.28488
0.390774
0.380877
0.381273
0.721337
0.371187
0.417648
0.394384
0.375169
0.372651
0.384304
0.379526
0.359787
0.732898
0.401461
0.806439
0.363633
0.948631
0.737736
0.51528
0.397136
0.376631
0.488873
0.390939
0.379786
0.363756
0.382003
0.741176
0.364395
0.494714
0.558434
0.367279
0.368411
0.360335
0.365779
0.375132
0.365624
0.42803
0.409762
0.394255
0.382873
0.416967
0.368841
0.461181
0.365276
0.382429
0.36914
0.730931
1.11262
0.400498
0.386612
0.363038
0.68144
0.359252
0.368567
0.377427
0.363909
0.389668
0.376588
0.357229
0.365669
0.375438
0.744391
0.554682
0.371063
0.721997
0.367001
0.374604
0.358484
0.366035
0.703289
0.399867
0.779439
0.362991
0.363226
0.775215
0.845056
0.371088
0.365082
0.615751
0.382492
0.40624
0.440195
0.410383
0.389149
0.450067
0.384965
0.36572
0.391634
0.374308
0.512085
0.360165
0.381465
0.362696
0.368477
0.616758
0.66368
0.36079
0.368188
0.378105
0.375798
0.379164
0.537319
0.378751
0.389657
0.421828
0.376447
0.472578
0.423542
0.51187
0.417317
0.364916
0.363476
0.360469
0.413087
0.360743
0.510002
0.438886
0.359835
0.955
0.370188
0.358997
0.392751
0.368387
0.409294
0.627001
0.371312
0.46463
0.373461
1.11618
0.4235
0.404926
0.380747
0.63729
0.381123
0.550047
0.399199
0.438037
0.362834
0.426677
0.425453
0.628984
0.486531
0.368488
0.361776
0.363224
0.534382
0.389275
0.968845
0.665671
0.379539
0.454227
0.365747
0.495422
0.478953
0.414238
0.577905
0.506724
0.690057
0.371444
0.403753
0.918275
0.511849
0.391921
0.496602
0.369151
1.03341
0.424951
0.3841
0.3629
0.361356
0.364037
0.373747
0.365313
0.690254
0.36451
0.540617
0.364665
0.460312
0.414153
0.55252
0.37115
0.374197
0.361164
0.567363
0.483752
0.525265
0.364257
0.374457
0.481403
0.408554
0.399374
0.356763
0.355784
0.358758
0.372864
0.363142
0.409595
0.365691
0.562797
0.452088
0.966819
0.756483
0.57528
0.570536
0.425787
0.429451
0.360692
0.593405
0.368127
0.389001
0.372099
0.490735
0.451588
0.376253
0.453224
0.757042
0.475055
0.359788
0.358881
0.733797
0.812675
0.414835
0.781052
0.85175
0.639546
0.684941
0.584443
0.687611
0.434657
0.63319
0.78376
0.363282
0.366033
0.362323
0.480102
0.619879
0.374512
0.36404
0.433058
0.391888
0.400856
0.785841
0.511021
0.851334
0.374866
0.361087
0.368383
0.353404
0.375327
0.768007
0.400138
0.534513
0.6516
0.360254
1.11929
1.18419
0.360098
0.49571
0.466194
0.773628
0.389051
0.498462
0.754535
0.700943
0.479534
0.703093
0.531062
0.61654
0.376631
0.388606
0.388641
0.848956
0.73695
0.420978
0.381363
0.55872
0.471494
0.581353
0.372294
0.404437
0.939443
0.722283
0.27644
0.357923
0.312445
0.36337
0.231699
0.424677
0.47638
0.601777
0.227358
0.46248
0.500619
0.197582
0.482507
0.616742
0.452865
0.421582
0.56055
0.383879
0.528312
0.375404
0.363988
0.372829
0.386069
0.697204
0.702206
0.760227
0.422573
0.425881
0.559196
0.422638
0.263049
0.437597
0.400314
0.375366
0.541849
0.381087
0.320126
0.370512
0.45118
0.437547
0.733413
0.498583
0.802143
0.845272
0.749983
0.381669
0.432871
0.659567
0.353421
0.560708
0.405116
0.424183
0.36622
0.781739
0.581453
0.372142
1.31352
0.627614
0.366058
0.464539
0.748865
0.771583
0.42902
0.388114
0.492041
0.941989
0.395781
0.366131
0.391642
0.390523
0.490516
0.452193
0.63879
0.422895
0.600403
0.852071
0.571457
0.48338
0.6738
0.554147
0.803613
0.61058
0.573045
0.792226
0.560215
0.417254
0.475315
0.366714
0.360441
0.367123
0.41879
0.552495
0.788214
0.377248
0.393452
0.406108
0.378697
0.380039
0.580428
0.485718
0.369272
0.386936
0.831904
0.998076
0.246892
0.432575
0.36379
0.398762
0.710557
0.630216
0.378652
0.283159
0.379003
0.267283
0.339749
0.596904
0.378431
0.380848
0.369644
0.429813
0.796686
0.469465
0.391176
0.589605
0.362244
0.771692
0.625233
0.487155
0.632115
0.407275
0.361764
0.365316
0.370998
0.384636
0.437143
0.365423
0.377586
0.368994
0.36882
0.552065
0.504948
0.698628
0.373138
0.499011
0.4074
0.430372
0.39101
0.50227
0.391797
0.387065
0.38179
0.358233
0.374132
0.375506
0.477048
0.364699
0.391818
0.402301
0.61931
0.375708
0.429377
0.483321
0.747984
0.781685
0.42122
1.18199
0.250949
0.401638
0.409386
0.545955
0.385459
0.779741
0.467237
0.359449
0.449555
0.569455
0.443577
0.479244
0.632947
0.554077
0.490851
0.697191
0.388431
0.362977
0.425659
0.367861
0.35864
0.438213
0.361246
0.363827
0.566672
0.366121
0.368632
0.588003
1.00076
0.35945
0.362338
0.89572
0.360682
0.368515
0.554925
0.368713
0.646641
0.450526
0.766457
0.364462
0.558999
0.475157
0.65595
0.368713
0.467155
0.364419
0.794936
0.368614
0.36654
0.450783
0.45893
0.500658
0.400995
0.384556
0.380038
0.36618
0.508404
0.365682
0.362222
0.355555
0.471289
0.54712
0.360387
0.375721
0.361978
0.367499
0.376212
0.628567
0.364793
0.468575
0.366206
0.594457
0.379454
0.407142
0.382556
0.493668
0.374809
0.463628
0.371725
0.377429
0.376579
0.398779
0.370836
0.465274
0.453766
0.726534
0.758068
0.744093
0.429407
0.395338
0.387302
0.358601
0.359016
0.897701
0.644905
0.428628
0.406711
0.372555
0.382856
0.362193
0.359932
0.534193
0.519746
0.718427
0.492075
0.410256
0.371879
0.447773
0.363852
0.623076
0.367976
0.408679
0.379985
0.394621
0.9309
0.444387
0.357778
0.379562
0.431422
0.359633
0.259957
0.364197
0.304621
0.414696
0.890423
0.492075
0.751147
0.363155
0.388252
0.399582
0.383404
0.405336
0.363809
0.358486
0.357173
0.372371
0.374063
0.364911
0.570848
0.430099
0.811147
0.452972
0.367303
0.51658
0.383431
0.364983
0.337873
0.932108
0.858333
0.288032
0.322447
0.368522
0.747481
0.476159
0.462437
0.419435
0.406852
0.268709
0.387345
0.384028
0.356503
0.442133
0.529971
0.786784
0.550179
0.461366
0.357432
0.434828
0.659593
0.387578
0.362686
0.745378
0.767642
0.553886
0.616356
0.358594
0.355989
0.439324
0.361437
0.787745
0.360744
0.366221
0.363017
0.658714
0.363485
0.406139
0.488253
0.486827
0.365669
0.363934
0.380686
0.369609
0.35445
0.371263
0.42913
0.571352
0.46883
0.393521
0.598991
0.382439
0.628304
0.411128
0.857156
0.47592
0.466276
0.65788
0.312521
0.458138
0.482078
0.585317
0.448338
0.35762
0.37531
0.363063
0.382578
0.810968
0.398096
0.366422
0.374033
0.415203
0.361981
0.505673
0.388798
0.384822
0.486056
0.388093
0.364162