/*--------------------------------*- C++ -*----------------------------------*\
| =========                 |                                                 |
| \\      /  F ield         | OpenFOAM: The Open Source CFD Toolbox           |
|  \\    /   O peration     | Version:  2506                                  |
|   \\  /    A nd           | Website:  www.openfoam.com                      |
|    \\/     M anipulation  |                                                 |
\*---------------------------------------------------------------------------*/
FoamFile
{
    version     2.0;
    format      ascii;
    arch        "LSB;label=32;scalar=64";
    class       volScalarField;
    location    "0.0207921";
    object      nut;
}
// * * * * * * * * * * * * * * * * * * * * * * * * * * * * * * * * * * * * * //

dimensions      [0 2 -1 0 0 0 0];

internalField   nonuniform List<scalar> 
47425
(
0.00665198
0.00546151
0.00546599
0.00214842
0.00377606
0.00508439
0.00520551
0.00350525
0.00743318
0.00171884
0.00258543
0.00738341
0.00632178
0.00485095
0.00419166
0.00395518
0.00568244
0.0028514
0.000286939
0.00314235
0.00425362
0.00751442
0.00349566
0.00577286
0.0073929
0.00751216
0.00498411
0.00049106
0.00548472
0.00662079
0.00753526
0.0073802
0.00742828
0.00585624
0.00693996
0.00545212
0.00750777
0.00539354
0.0056337
0.00485638
0.00519251
0.00686606
0.00643481
0.00261655
0.00078336
0.00352904
0.00382808
0.00456759
0.0046819
0.00727451
0.000616266
0.0026238
0.00722605
0.000986745
0.003363
0.00304732
0.00752377
0.00652306
0.00211468
0.00588796
0.000855541
0.000605599
0.00100955
0.00403801
0.00737785
0.00737378
0.00563278
0.00603851
0.00107964
0.0051895
0.00479989
0.00720861
0.00719768
0.00422523
0.0012123
0.00745174
0.00103959
0.00456436
0.000224854
0.00236469
0.00116835
0.00588257
0.0074675
0.00721386
0.00743497
0.00444753
0.00683033
0.00716185
0.00504658
0.00131539
0.00748972
0.0046578
0.00749918
0.00331084
0.00263203
0.00193914
0.00710606
0.00719944
0.00440491
0.00472178
0.00577454
0.00111639
0.00704622
0.00103406
0.00725514
0.00674648
0.00743048
0.00408343
0.0075127
0.00747446
0.0021349
0.00586786
0.00645387
0.00239836
0.00698496
0.000329984
0.00707497
0.000754617
0.00461086
0.00648936
0.00477239
0.00746789
0.00610763
0.00359736
0.00375941
0.00656497
0.00445793
0.00742777
0.00351544
0.00747909
0.00747561
0.00365956
0.00105225
0.0030443
0.00713789
0.00649843
0.00715845
0.00639295
0.00531933
0.003653
0.00509625
0.00287113
0.00504729
0.00604513
0.00682652
0.00742391
0.00491365
0.0056741
0.00246458
0.00508717
0.00617574
0.000525544
0.00736327
0.000406743
0.00398462
0.00433239
0.00363056
0.000287202
0.00403233
0.00492182
0.00706333
0.00753278
0.00720933
0.00734242
0.00120947
0.000512545
0.00747758
0.00121575
0.00344387
0.000869372
0.00122463
0.00428794
0.00484179
0.00489404
0.00512503
0.00141369
0.000363227
0.00561715
0.00683894
0.00748329
0.00030336
0.00743098
0.00636333
0.0074472
0.00733717
0.00678063
0.00653014
0.00121779
0.00254795
0.00682866
0.00747236
0.00572078
0.0042486
0.0047483
0.0073445
0.00716019
0.0058328
0.00499858
0.00717468
0.00471169
0.00551319
0.00304758
0.00749615
0.00713969
0.00320509
0.0023916
0.00706174
0.00714891
0.00418443
0.00745793
0.00578077
0.00592422
0.00743022
0.00425252
0.00597998
0.00618171
0.00559359
0.00202495
0.00410328
0.00398401
0.00212414
0.00355218
0.00670322
0.00410036
0.00239832
0.00172795
0.00732181
0.00294476
0.00700959
0.00522418
0.0058925
0.00498879
0.00352868
0.00749287
0.0022887
0.00382433
0.00201493
0.0031749
0.00232227
0.00206448
0.00447796
0.00685314
0.00751549
0.00368199
0.00744095
0.00721561
0.00569629
0.00582223
0.00748763
0.00509608
0.00755134
0.00241654
0.00572181
0.00742157
0.00402836
0.00751334
0.00749571
0.003144
0.00386595
0.00734459
0.00316972
0.00745436
0.00510135
0.00279802
0.00625524
0.00364202
0.0074652
0.006016
0.00618316
0.00458609
0.00488415
0.00256039
0.00200958
0.00719732
0.00272644
0.00213551
0.00270545
0.000543325
0.00208436
0.000669988
0.000885655
0.00684722
0.000877809
0.00306177
0.00469234
0.00450314
0.00355099
0.00415984
0.00299764
0.00691917
0.000709871
0.00667714
0.00737569
0.00655093
0.0058283
0.00362889
0.00329446
0.00740142
0.00560936
0.00456142
0.00411616
0.00738355
0.00408023
0.00642022
0.000919458
0.000810521
0.000523864
0.00750471
0.00728078
0.00752531
0.0034669
0.00074775
0.00425269
0.00306389
0.00156115
0.00491762
0.00352506
0.00313916
0.00418723
0.00190928
0.00176553
0.00754792
0.00612986
0.00740172
0.00440364
0.00749177
0.00486728
0.00626562
0.00697006
0.0052099
0.00514418
0.00110381
0.00514552
0.00486482
0.00300688
0.00759837
0.00117399
0.00701681
0.00731823
0.0069348
0.00749601
0.00744827
0.00747038
0.00690339
0.00717544
0.00689369
0.00645395
0.00729179
0.00475871
0.00431305
0.00738683
0.00733004
0.00582102
0.00722027
0.00723392
0.00315105
0.00486916
0.00754887
0.00711292
0.00387117
0.00190576
0.00653962
0.00452273
0.00410574
0.00736408
0.00711001
0.00288773
0.00736957
0.00539181
0.00745644
0.00289178
0.000678911
0.00472951
0.00751958
0.00192717
0.00749861
0.0069401
0.00401534
0.00504015
0.00750501
0.0056061
0.00745405
0.00749606
0.0048183
0.0042203
0.00439347
0.00431973
0.00697086
0.00713613
0.00437119
0.00723595
0.00738662
0.00457495
0.00652764
0.00574079
0.00720579
0.00595836
0.00398709
0.00212094
0.00731762
0.000799153
0.00740284
0.00245493
0.00503967
0.00359539
0.00360685
0.00725179
0.00256428
0.00736561
0.00385491
0.00737038
0.000998939
0.000943108
0.0074245
0.00368924
0.00465052
0.00437099
0.00457075
0.00473376
0.00501002
0.00410963
0.00534881
0.00745749
0.00348448
0.00547547
0.00716568
0.0033972
0.00532595
0.00697018
0.00100396
0.000338953
0.00721988
0.000508906
0.000407685
0.00411923
0.00045628
0.000634164
0.0070666
0.00485257
0.00520219
0.0051582
0.0010776
0.00409756
0.0071229
0.00693854
0.00551931
0.00536936
0.00441079
0.00449296
0.000885769
0.000794027
0.00144685
0.00541984
0.00124596
0.00505514
0.00674762
0.00732663
0.00656159
0.00731144
0.00425866
0.00479527
0.0028508
0.0053386
0.00749072
0.00474387
0.00632799
0.00458678
0.00722237
0.00596656
0.0055544
0.00526809
0.00562718
0.00345519
0.00298362
0.00618306
0.00435799
0.00723624
0.00105512
0.00288099
0.00247253
0.00736969
0.00273696
0.00287312
0.00382185
0.00747904
0.00489666
0.00716721
0.00547313
0.00361465
0.00350418
0.00495699
0.00395101
0.00681944
0.00247935
0.000944235
0.00740325
0.00192448
0.00644304
0.00191356
0.00720449
0.00695758
0.00746846
0.00535574
0.00677784
0.0032549
0.00610052
0.0073477
0.00750639
0.00725127
0.00487321
0.00283454
0.00476205
0.00752132
0.00635746
0.00684289
0.00681024
0.00632672
0.0051385
0.00525625
0.00323787
0.00473669
0.00373957
0.000668631
0.00596159
0.0052818
0.0066687
0.00741684
0.0018036
0.00164396
0.00471506
0.00699019
0.00454727
0.00529769
0.00723196
0.0017316
0.00749999
0.00252336
0.00264696
0.00310052
0.00628523
0.0029172
0.00755161
0.00511184
0.00526299
0.00742604
0.00752517
0.00710838
0.000848529
0.0060938
0.00258609
0.00742514
0.00176706
0.00723986
0.00637266
0.0024631
0.00266608
0.00516697
0.00749068
0.000640263
0.00682171
0.00647603
0.00695289
0.00705737
0.00743349
0.00268009
0.00357308
0.00736968
0.00693305
0.00537926
0.00748772
0.00156706
0.00742642
0.00590286
0.000513592
0.00502768
0.00747991
0.000646516
0.00140675
0.00751662
0.000222619
0.00027106
0.00518139
0.00733254
0.00701571
0.0075545
0.00444873
0.00408113
0.0016442
0.00755072
0.00288464
0.00692014
0.00204397
0.00248832
0.00443064
0.00535192
0.00157645
0.00286951
0.00705317
0.00400995
0.00439815
0.00343558
0.00306388
0.00308408
0.00713034
0.00392708
0.00286587
0.00495905
0.00549514
0.0033715
0.00425494
0.00725978
0.00278859
0.0039225
0.00488729
0.00298002
0.00353615
0.00582402
0.00493659
0.00668977
0.00205728
0.00519248
0.00710439
0.00735105
0.00029314
0.00460687
0.00602659
0.000522962
0.000749183
0.00751992
0.00485433
0.000207556
0.00216214
0.000935855
0.00217425
0.00316558
0.000568383
0.00645453
0.00725467
0.00589122
0.00336429
0.00338465
0.00334676
0.00740087
0.00323692
0.00570642
0.00460353
0.00698832
0.00447845
0.00480204
0.00226154
0.000572141
0.00309892
0.00339878
0.00425799
0.00756678
0.00349437
0.00722263
0.00595137
0.00563377
0.00539
0.00747366
0.00207728
0.00473388
0.00736153
0.00173778
0.00202644
0.000930333
0.00146444
0.0041436
0.00755476
0.00492533
0.00746094
0.000930666
0.00517916
0.000898552
0.00441948
0.00499363
0.00666887
0.00512941
0.0059207
0.00449187
0.00236821
0.00422032
0.00694334
0.00192991
0.00523088
0.00748711
0.00515995
0.00408822
0.000777568
0.00668977
0.00189338
0.00453781
0.00747926
0.00742701
0.00264502
0.00462445
0.00489846
0.00732594
0.00556762
0.00516798
0.00483542
0.00452078
0.00458936
0.00570176
0.00108069
0.000674446
0.00516856
0.000913566
0.00556376
0.00320092
0.00386705
0.00734956
0.00679104
0.00644081
0.00499558
0.00456285
0.00749642
0.000592331
0.00157431
0.00370806
0.00540861
0.00734196
0.00400152
0.0070576
0.00259605
0.00712099
0.00117627
0.00427516
0.00742029
0.00466557
0.00725139
0.00609956
0.00521666
0.00721868
0.00400492
0.00743719
0.00734135
0.00480542
0.00097943
0.00755345
0.000556104
0.00204609
0.00245778
0.000473293
0.00446338
0.00408186
0.0026193
0.00459902
0.000870724
0.000449638
0.000831437
0.00440812
0.00629182
0.00476238
0.00312348
0.000954527
0.00277126
0.00397771
0.00680469
0.00534438
0.00541553
0.00325728
0.00634593
0.00446113
0.00130921
0.00235787
0.00553012
0.00246896
0.00122625
0.000791628
0.00523094
0.000350783
0.00143095
0.000664642
0.00081883
0.00452043
0.00311865
0.00746201
0.00729716
0.00500464
0.000427477
0.00184424
0.00497647
0.00498595
0.00751142
0.00087809
0.00046463
0.00754243
0.00231488
0.00397265
0.00749684
0.00227952
0.00751484
0.00754731
0.00505992
0.00506583
0.00166544
0.00712555
0.00756815
0.00627829
0.00538242
0.00536611
0.00116708
0.00175934
0.00749851
0.00149637
0.00720371
0.00749744
0.00741214
0.0018707
0.00467969
0.00248308
0.00317404
0.00681147
0.00738961
0.00150207
0.000785519
0.00495607
0.00427371
0.00173547
0.00565511
0.00562209
0.0031992
0.00297015
0.00295513
0.00206377
0.00239812
0.00115914
0.00742296
0.00125754
0.00683568
0.00408967
0.0074865
0.00217767
0.00288868
0.00750495
0.00194093
0.00134904
0.00425187
0.0016186
0.00563421
0.00691601
0.00508565
0.0036117
0.00509635
0.00359883
0.000784151
0.00539077
0.00319206
0.00182284
0.00181175
0.000660372
0.00178035
0.00426175
0.000566846
0.00741853
0.00733283
0.00393755
0.00229854
0.00413546
0.00160571
0.00143224
0.00344408
0.00625428
0.00552538
0.00337393
0.00368149
0.0040709
0.00305583
0.00159074
0.00442779
0.00620227
0.00213336
0.00171196
0.00195754
0.000541398
0.00405623
0.00539115
0.00390105
0.00406759
0.00416207
0.00743917
0.00341896
0.00391748
0.000906307
0.00319897
0.00529623
0.00389154
0.00687431
0.00356248
0.000867612
0.00465413
0.00224963
0.0068846
0.00237477
0.00287211
0.00376922
0.00548003
0.00534719
0.00360162
0.00142166
0.00406516
0.00174119
0.000738399
0.0060938
0.00735426
0.00647541
0.00126978
0.00630339
0.00231449
0.00681103
0.00175714
0.00108686
0.00313267
0.00397329
0.00436833
0.00746053
0.00516262
0.00323478
0.000866098
0.00252475
0.000673175
0.00742608
0.0028266
0.00338052
0.00244972
0.0042381
0.00253734
0.00171507
0.0016783
0.00470817
0.000741086
0.00408499
0.00445609
0.00517821
0.00610059
0.00530713
0.00527712
0.00149743
0.0038106
0.00377101
0.00624538
0.00672749
0.000778367
0.0015234
0.00075756
0.00185868
0.00128145
0.00210049
0.00404965
0.00138723
0.00435975
0.00136426
0.00203746
0.00206928
0.00155645
0.00395405
0.00634673
0.00532747
0.00754249
0.00169264
0.00378161
0.00375637
0.00488548
0.00168614
0.00682545
0.00473037
0.00709464
0.00745812
0.00298921
0.00232231
0.00302662
0.00414795
0.00680826
0.00235297
0.00748266
0.00396002
0.00351432
0.00741788
0.00284448
0.00161067
0.00558609
0.00266007
0.00475277
0.00208407
0.00208717
0.00298762
0.00335468
0.000221303
0.000361229
0.00172
0.000403842
0.00353355
0.00418561
0.000513325
0.000517101
0.00668515
0.00122267
0.0034535
0.00430173
0.000428591
0.00267229
0.00694351
0.00329444
0.00186559
0.00715415
0.000738087
0.000355822
0.0025938
0.000757266
0.00247339
0.000922108
0.000737724
0.00629612
0.00472284
0.00279935
0.00145361
0.003877
0.00711491
0.00243681
0.000614928
0.00695057
0.00179421
0.00558022
0.00220283
0.0072352
0.00660173
0.00224666
0.00229235
0.00444225
0.00204651
0.00600644
0.0010177
0.00745634
0.00732877
0.00334546
0.00201262
0.00505673
0.00745727
0.000769234
0.00134383
0.0019713
0.00379532
0.0039467
0.00235896
0.00101941
0.00479576
0.000945058
0.00175312
0.00665998
0.00387424
0.00237658
0.000784118
0.0026988
0.00214051
0.0061474
0.00722072
0.0025459
0.00460685
0.00244991
0.00553642
0.00740631
0.00731934
0.00522328
0.00207547
0.000716874
0.00519536
0.000470367
0.00462393
0.00498625
0.00284234
0.00680552
0.00418144
0.00569056
0.005505
0.00197647
0.00687787
0.00151791
0.00756446
0.000366463
0.00105109
0.00194685
0.00201152
0.00561941
0.00565095
0.00360462
0.00699567
0.000727035
0.000679091
0.0035293
0.00199422
0.000819481
0.000846749
0.00224134
0.0011233
0.000493439
0.00388088
0.0072118
0.000434415
0.00447962
0.00627567
0.0049549
0.000710561
0.000494775
0.0045746
0.00508784
0.00147504
0.00207902
0.00109792
0.000694593
0.00341071
0.00100791
0.00106622
0.00349167
0.00474378
0.000836791
0.00681011
0.000985598
0.000224289
0.0074507
0.00570937
0.00463317
0.0065912
0.00313724
0.00371547
0.00724431
0.00309937
0.0042033
0.000990044
0.00185163
0.00614341
0.00131898
0.00563318
0.000363082
0.00682099
0.0039536
0.00204826
0.00713775
0.00100356
0.00421165
0.0032114
0.00243314
0.00236154
0.00419986
0.00211531
0.00214141
0.00077731
0.00695285
0.00101169
0.000743485
0.00116176
0.00471338
0.00107115
0.00217672
0.00479155
0.00506221
0.00115134
0.00189148
0.00253395
0.000698277
0.00259322
0.0011017
0.00118002
0.00297013
0.00240057
0.000957832
0.00242967
0.00729108
0.0023908
0.0043294
0.00255983
0.00241114
0.000585451
0.00625548
0.00452517
0.00576611
0.00148914
0.00565857
0.00052528
0.00231865
0.00566402
0.00728729
0.00202568
0.00199796
0.000961145
0.00175849
0.00286191
0.00139612
0.00100535
0.00458308
0.00090142
0.00140785
0.0034971
0.000548211
0.00130628
0.00309468
0.00333981
0.00560871
0.00184117
0.000577247
0.00206615
0.00179227
0.0028975
0.00700403
0.00224281
0.00526047
0.00382726
0.00624291
0.00127962
0.00201217
0.00155769
0.00484525
0.00185381
0.00458586
0.00302317
0.00134008
0.00194797
0.00247676
0.00295081
0.00652167
0.000396628
0.0014783
0.0017862
0.0013607
0.00198619
0.00668149
0.00106314
0.000423886
0.00173486
0.00338819
0.00348448
0.0027283
0.00242117
0.000962623
0.00636187
0.00137246
0.00173184
0.00692324
0.00154055
0.00353213
0.00260914
0.00294069
0.00160006
0.00246607
0.00732472
0.000618727
0.00349454
0.000670972
0.00270527
0.00528307
0.0030632
0.00234899
0.00166405
0.00389986
0.00503568
0.00352433
0.00120332
0.00498137
0.00565494
0.000570633
0.00749355
0.00444716
0.000764785
0.00425011
0.00259164
0.00131283
0.00252717
0.00112406
0.00488335
0.00020454
0.00225074
0.000811886
0.0026022
0.00136095
0.00370348
0.000941585
0.00144762
0.00126666
0.00393312
0.00413288
0.00730009
0.00422873
0.00417048
0.00294229
0.00056333
0.00391956
0.00645044
0.00588339
0.00614802
0.00378552
0.00436128
0.00734115
0.00746232
0.00310775
0.000947923
0.00743399
0.00291371
0.00264107
0.00563775
0.00727187
0.00295782
0.00304387
0.00746399
0.00666204
0.00355085
0.00378529
0.0073249
0.00396869
0.00103059
0.00404938
0.00465342
0.00657886
0.00755093
0.00136613
0.00549479
0.00677134
0.000849321
0.00114455
0.000933459
0.00737402
0.000877208
0.000456896
0.00726166
0.000261737
0.000811285
0.000523928
0.00407374
0.00534379
0.00447446
0.00172214
0.00752058
0.00462604
0.00471421
0.00404087
0.00314344
0.00416024
0.00356127
0.00125124
0.00449652
0.00295887
0.000839347
0.00413232
0.000353909
0.00220094
0.00126254
0.00738119
0.00313417
0.00206222
0.007131
0.00540765
0.00196575
0.00755399
0.00178637
0.00185678
0.000372509
0.00678384
0.00125554
0.00657984
0.0031836
0.00351042
0.006438
0.00139555
0.00607122
0.00238829
0.00653652
0.00123171
0.000246917
0.00467924
0.00752009
0.000704484
0.00500011
0.000218793
0.00472383
0.00388154
0.00504151
0.00497933
0.00639052
0.00701358
0.00482321
0.00219315
0.00607372
0.00223362
0.00424935
0.00440382
0.00744503
0.0024179
0.000762562
0.00411263
0.00142886
0.00679198
0.00530111
0.00313892
0.00447739
0.00503272
0.00653432
0.00246702
0.00275573
0.007465
0.00419446
0.00538518
0.00536084
0.00390775
0.00153048
0.0011054
0.00480703
0.00414417
0.00296947
0.00408506
0.00689611
0.00561136
0.00717139
0.00219505
0.00228142
0.00196379
0.00373924
0.00514956
0.00519904
0.00136388
0.00679004
0.00696089
0.00604457
0.00162187
0.00301038
0.00126228
0.00125115
0.00121595
0.00420521
0.00566118
0.00557047
0.00516923
0.00706239
0.00126083
0.00524865
0.00734816
0.00447566
0.00342006
0.00511627
0.00111317
0.00525958
0.00240348
0.00281483
0.00360605
0.00685988
0.00513156
0.00409413
0.00403308
0.00545002
0.00317361
0.00409189
0.00339582
0.00441291
0.00510088
0.0048841
0.00235546
0.00205446
0.00582555
0.00442229
0.00269753
0.00388753
0.00231501
0.00741743
0.0069505
0.0026721
0.00557995
0.00665032
0.00483438
0.00735913
0.0074576
0.00476971
0.00473486
0.00150555
0.00513405
0.00278995
0.00731104
0.00529524
0.000743443
0.00451466
0.00435543
0.00639786
0.00591047
0.00416011
0.00439191
0.000312438
0.0035343
0.00163027
0.00712802
0.00621948
0.00515965
0.00747886
0.00718306
0.00358919
0.00432343
0.00709614
0.00744413
0.00224201
0.000946394
0.00142864
0.00312768
0.00175577
0.00363974
0.00529878
0.00363272
0.00218243
0.002066
0.00414901
0.00455302
0.000836756
0.00564642
0.00448654
0.00414203
0.00423103
0.00743141
0.000337605
0.00542454
0.00386512
0.00722551
0.0028899
0.00344736
0.00034218
0.000242482
0.0053405
0.00679788
0.00746587
0.00415189
0.00389492
0.00641977
0.000228645
0.00102021
0.00572045
0.00262516
0.00137612
0.00583055
0.00712194
0.00256494
0.00748622
0.00604276
0.00723115
0.00499589
0.00312319
0.00422411
0.00458765
0.00674547
0.0023961
0.00491494
0.00742952
0.00114349
0.00566731
0.00410325
0.00263371
0.000968412
0.00126052
0.00358674
0.0028883
0.00610641
0.00285109
0.00303237
0.00753783
0.000571803
0.00134798
0.00288381
0.00427548
0.00343043
0.00406674
0.00406752
0.00108725
0.0075106
0.00732685
0.00573351
0.00538339
0.000993654
0.00145008
0.00105388
0.00162195
0.00362728
0.00289503
0.00751233
0.00751278
0.00457985
0.0061452
0.00532268
0.00663819
0.0075589
0.00100492
0.000390897
0.00741784
0.0074972
0.00356506
0.00129039
0.00366689
0.00750813
0.0060849
0.00139001
0.0008937
0.00396115
0.00182858
0.0021205
0.00217971
0.000438876
0.00293562
0.00698737
0.00755023
0.00613834
0.000898713
0.00674838
0.00437351
0.00454508
0.00751328
0.000745948
0.000176467
0.000235223
0.00176328
0.00103909
0.00695881
0.007387
0.0030299
0.00480501
0.00075176
0.000927431
0.00050911
0.000420396
0.000570689
0.0019873
0.00729666
0.000861268
0.00730999
0.000369332
0.00396057
0.000689319
0.00461999
0.00202981
0.00727154
0.0037586
0.00225807
0.00228204
0.00717403
0.00557312
0.00402803
0.000990294
0.00132292
0.00500223
0.00527055
0.000451871
0.000339249
0.00452566
0.00140133
0.000758931
0.00110318
0.00546888
0.00742765
0.000540332
0.000526214
0.00128459
0.00751667
0.00112616
0.00709039
0.000596338
0.000934538
0.000236508
0.0022063
0.00691831
0.00200018
0.007392
0.00499602
0.00428944
0.00245529
0.00642402
0.00440721
0.00623999
0.00393651
0.0047427
0.00745762
0.00730961
0.00445905
0.00718162
0.0069716
0.0046288
0.00635391
0.00197306
0.00405133
0.00249113
0.00413913
0.00708585
0.00608897
0.000921026
0.0045021
0.00369173
0.00227365
0.000654366
0.00491505
0.00218256
0.00423095
0.00105068
0.00267246
0.00137487
0.00658264
0.00738711
0.00469628
0.00386801
0.00671124
0.0038284
0.0035406
0.00428654
0.00710713
0.00550457
0.00677128
0.00515085
0.00341801
0.00570065
0.00381026
0.000696506
0.00400818
0.00435894
0.00476261
0.00321149
0.00120266
0.00231635
0.00443087
0.00538218
0.00343529
0.000990473
0.00115987
0.0047149
0.00347838
0.000354262
0.0016074
0.00208452
0.00414033
0.00154886
0.00327854
0.00415262
0.00378107
0.00111187
0.00483533
0.00424322
0.00306481
0.00672766
0.00238213
0.00306909
0.00333773
0.00346987
0.0019836
0.00478828
0.00601512
0.00750892
0.00230554
0.00372208
0.00448727
0.00207479
0.00578016
0.000991027
0.00299919
0.00353469
0.00040737
0.00211907
0.00734261
0.00357737
0.000742447
0.00168231
0.00248534
0.00745481
0.00291489
0.00139401
0.00668114
0.00755212
0.000672399
0.00202983
0.00160127
0.00180049
0.00703143
0.0053181
0.00118104
0.000536761
0.000766588
0.00632263
0.00601949
0.000520381
0.00740317
0.00201332
0.00311165
0.00136499
0.00143715
0.00716594
0.00382462
0.000929446
0.00410359
0.0045545
0.00539989
0.00373612
0.00566378
0.00111489
0.000294816
0.00451701
0.00365607
0.000352307
0.000610799
0.00064214
0.0025436
0.00106539
0.00225272
0.000526192
0.00358726
0.00356169
0.000761811
0.00287657
0.00244303
0.000567805
0.000800158
0.000340891
0.00748332
0.00722091
0.000479552
0.00658498
0.00434277
0.000687752
0.00625802
0.00308707
0.00538789
0.00372892
0.00513874
0.00693138
0.000470981
0.000425548
0.00169712
0.000630981
0.00241092
0.00442604
0.00449194
0.00534344
0.00335304
0.00580332
0.00660483
0.00492184
0.00573444
0.000476297
0.000408834
0.00605259
0.00211622
0.0067571
0.00387874
0.00298638
0.00361057
0.00376623
0.0054412
0.000563239
0.0012987
0.00441759
0.000583091
0.00285802
0.00125429
0.00302921
0.00401012
0.000890268
0.00284549
0.0012081
0.00178988
0.00292967
0.00294222
0.00687643
0.0012456
0.00749896
0.00650863
0.00276239
0.00440912
0.0014811
0.00357321
0.00219158
0.00355432
0.000792693
0.00434698
0.00350826
0.00374285
0.0074654
0.00383205
0.00503802
0.0016432
0.000540576
0.00368302
0.000600966
0.00344162
0.00526342
0.00195014
0.00531931
0.00598
0.00596057
0.00321445
0.00124937
0.00194505
0.00156521
0.000651689
0.00183069
0.00544694
0.000163044
0.00105573
0.00606239
0.0027644
0.00150121
0.00413544
0.000800485
0.00043683
0.00271529
0.00123294
0.0014353
0.00312806
0.000835119
0.00206523
0.00724686
0.00358393
0.0010017
0.000908014
0.00741187
0.00100887
0.00739414
0.00269554
0.00639387
0.00269183
0.00197869
0.00102907
0.000961699
0.00582734
0.00565607
0.000223189
0.00750464
0.00484063
0.00110596
0.00673492
0.00296218
0.00218127
0.00427596
0.000469227
0.00152316
0.000348798
0.00137583
0.00316163
0.00129821
0.00714816
0.00628859
0.00122759
0.00739513
0.00399801
0.00265783
0.00581227
0.00150894
0.000548298
0.00741042
0.00265721
0.00726242
0.000853484
0.00527119
0.000580531
0.00294729
0.00240551
0.00691916
0.00266004
0.00268068
0.00714468
0.00617518
0.00360312
0.0075354
0.00118835
0.00396936
0.00360056
0.00647334
0.00484226
0.0035989
0.0030247
0.00295198
0.00257855
0.00330212
0.00493002
0.00518589
0.00177766
0.000622713
0.000745902
0.000752919
0.00123613
0.000827054
0.000863886
0.00328841
0.000285813
0.00055365
0.00131147
0.00227056
0.0028746
0.000783315
0.000982478
0.00236079
0.00126552
0.00214946
0.00640022
0.00291217
0.00120978
0.00424874
0.000388687
0.00285955
0.00037444
0.00218505
0.0011767
0.00136289
0.000600918
0.000547481
0.00210756
0.000525849
0.00285981
0.00170199
0.00502985
0.00180926
0.005772
0.00662587
0.00101901
0.00371166
0.000841701
0.00148004
0.00568718
0.00238708
0.00541419
0.00127753
0.000997266
0.00729119
0.00574077
0.00179768
0.000861518
0.00381842
0.00280632
0.00117205
0.00112793
0.00596359
0.00734331
0.00401343
0.00506873
0.000795812
0.00748169
0.000961376
0.000316649
0.0056309
0.00311931
0.00530036
0.00474365
0.000660555
0.0028073
0.000713834
0.0041345
0.00567526
0.000577485
0.000806931
0.00638983
0.00250807
0.0064026
0.00721622
0.00109902
0.00270442
0.000701354
0.00464726
0.00707887
0.0022435
0.00656259
0.00601527
0.00624751
0.00553915
0.002796
0.0021717
0.00128923
0.00324434
0.00128688
0.00372043
0.00735486
0.00221285
0.00127202
0.000792446
0.000937129
0.00103864
0.00206355
0.000982867
0.00103994
0.000836778
0.000954535
0.00372543
0.00302564
0.00422917
0.00145151
0.00468934
0.00268134
0.00338701
0.00174947
0.000527824
0.00351219
0.00195321
0.00352881
0.00592191
0.00344732
0.00605686
0.00624562
0.00552037
0.00267417
0.00337192
0.00290339
0.00651036
0.00313094
0.00137776
0.000801106
0.0047182
0.000614573
0.00724265
0.00390268
0.00746961
0.0047423
0.00105807
0.0027481
0.00130398
0.00387196
0.00440708
0.00412828
0.00464653
0.00582551
0.00296955
0.00368331
0.00407763
0.00687089
0.000902126
0.00336689
0.00150038
0.00296635
0.00116522
0.00699095
0.00467936
0.00366414
0.00408842
0.00297879
0.000949265
0.00726613
0.00532502
0.000695771
0.00248865
0.00243439
0.00318031
0.00245206
0.00272136
0.00219115
0.00616803
0.00705527
0.00671381
0.002013
0.00191147
0.005616
0.000354071
0.0055901
0.0017376
0.00705369
0.00709575
0.00196115
0.00445147
0.00633799
0.00111119
0.007398
0.00434686
0.00174625
0.00204612
0.00747645
0.00125471
0.00708208
0.00698519
0.00129258
0.00380615
0.00289726
0.000852034
0.00750255
0.0015765
0.00157415
0.0017449
0.00103193
0.00119671
0.00597276
0.00576858
0.00294174
0.00643638
0.00236981
0.00230741
0.00652221
0.00725735
0.00350061
0.00126668
0.0030205
0.00413499
0.00214089
0.00348888
0.0021555
0.00736913
0.00210544
0.00138399
0.00381593
0.00549394
0.0054796
0.00620729
0.00391911
0.00438814
0.0023044
0.00401746
0.000522696
0.00475191
0.00727401
0.000909025
0.00288851
0.000681858
0.000898737
0.00613361
0.00434529
0.00131455
0.00311287
0.000445102
0.00152371
0.000726181
0.00167205
0.000411422
0.00286912
0.0015221
0.0017962
0.000609145
0.00106037
0.00304538
0.000558646
0.000375058
0.00172431
0.000351181
0.000874906
0.00158823
0.00116686
0.00056843
0.000874157
0.00752073
0.00381351
0.000972286
0.000875313
0.000946778
0.00152515
0.00156443
0.000705149
0.00297472
0.00376365
0.00477615
0.00739331
0.00330389
0.00723206
0.00102843
0.00302048
0.00444163
0.000755498
0.00419155
0.00234112
0.00554377
0.00679352
0.00324747
0.00527632
0.00179399
0.00731827
0.00230736
0.000577391
0.00575688
0.00730668
0.00422408
0.00597361
0.00143281
0.00327693
0.00611624
0.00661006
0.000615603
0.00721708
0.00504503
0.00692529
0.00198225
0.00357387
0.00467629
0.00645539
0.0058576
0.00128391
0.0043696
0.00255267
0.00702728
0.00726625
0.00734805
0.00519805
0.00495152
0.00376879
0.00697084
0.00362199
0.00380941
0.00308919
0.00115177
0.00134299
0.0040053
0.00203484
0.00439153
0.00277325
0.00350177
0.0037844
0.0070733
0.00319771
0.00435392
0.00654172
0.00199375
0.00478035
0.00314592
0.00120602
0.00496195
0.00290094
0.00142203
0.00399599
0.00118245
0.00212418
0.00107142
0.000383353
0.00292902
0.00622108
0.00245859
0.000488258
0.00292821
0.00702268
0.00713962
0.00719033
0.00431832
0.00485398
0.00745031
0.00748029
0.00438143
0.00312874
0.00731882
0.00723501
0.00751752
0.00635713
0.00323387
0.00196689
0.00318291
0.00666497
0.00423012
0.00090653
0.00627375
0.00674763
0.00366714
0.000500322
0.000697762
0.00378462
0.00535802
0.00599048
0.00328841
0.00398167
0.000589041
0.00199527
0.0054452
0.00410617
0.00722972
0.00395199
0.00206394
0.00357309
0.00331382
0.00413685
0.00141068
0.00197773
0.00140984
0.00108749
0.000281847
0.0015779
0.00194515
0.00414635
0.00424224
0.0036661
0.00333257
0.00706086
0.00473896
0.000443142
0.00743476
0.00187675
0.00106851
0.00344299
0.0030407
0.000413668
0.00201903
0.00460454
0.00394882
0.00751173
0.00312663
0.00094251
0.00396627
0.00179902
0.00353457
0.0028603
0.000567276
0.000852429
0.00384029
0.00386779
0.00111424
0.00536404
0.000709278
0.000707394
0.00115796
0.00742031
0.00734002
0.000233864
0.00686022
0.000482242
0.00228998
0.00345326
0.00117499
0.00100657
0.00711128
0.00745888
0.00101039
0.00712116
0.00684874
0.00560532
0.00732281
0.00446186
0.00506323
0.00243054
0.00657645
0.000353174
0.00334316
0.00599416
0.00424379
0.000308716
0.00442536
0.00053635
0.00557264
0.00429677
0.00418171
0.00117184
0.00575322
0.00418151
0.00575443
0.000819481
0.00214659
0.00215133
0.00143315
0.002991
0.00705184
0.000856563
0.00313794
0.00338952
0.00313456
0.00598461
0.00336703
0.00384445
0.00737615
0.000398129
0.00156469
0.00498826
0.00575015
0.00198204
0.00538211
0.00302323
0.00377498
0.00600138
0.00240404
0.00554981
0.00621939
0.00443301
0.00134045
0.0050279
0.00547403
0.00574584
0.00373443
0.00729781
0.00537373
0.00662008
0.00283495
0.00534626
0.00275451
0.00259324
0.0042217
0.000447321
0.00580362
0.00353646
0.000846386
0.000738355
0.00123199
0.00407397
0.00228877
0.00197339
0.000363428
0.00401551
0.000962434
0.00405163
0.00728198
0.00309952
0.00182998
0.00396438
0.00606421
0.00725541
0.00652055
0.000327538
0.00644956
0.00703191
0.00276736
0.00048365
0.000427781
0.00424106
0.000260371
0.000777122
0.0010541
0.00118453
0.000729257
0.000415281
0.00617461
0.000757602
0.00408058
0.00706118
0.00331369
0.000478867
0.00220035
0.00713926
0.00688364
0.000894331
0.00581359
0.000468893
0.00714538
0.00295094
0.00611156
0.00300959
0.000614308
0.00725137
0.00321182
0.00295717
0.00662233
0.00373341
0.0070468
0.00298522
0.000588969
0.000565968
0.000597925
0.00167487
0.00184032
0.00692921
0.00710509
0.00613727
0.00376533
0.00733699
0.00175456
0.00749816
0.00105778
0.00425122
0.00721732
0.00673577
0.00481701
0.00717375
0.00398506
0.00313264
0.00741239
0.00329225
0.000899194
0.00725807
0.00129277
0.000884229
0.00660502
0.00025285
0.000520977
0.00290385
0.00299117
0.00456242
0.00133392
0.00458055
0.0022116
0.00170543
0.00636792
0.00178233
0.00681945
0.00248588
0.00482362
0.00267537
0.00201621
0.000662087
0.00334067
0.00414391
0.000725379
0.00157929
0.00217953
0.000941562
0.00563176
0.00135066
0.0046336
0.00194905
0.00292784
0.0060298
0.00131392
0.00271949
0.00290634
0.00672443
0.000591878
0.000891721
0.000432841
0.0066566
0.00507085
0.00100526
0.000543707
0.00275083
0.00448756
0.0025475
0.0012646
0.00061528
0.00203659
0.00658439
0.00319973
0.00444184
0.00642075
0.0040799
0.000650001
0.00657506
0.00217812
0.00319629
0.00724875
0.00271933
0.00280333
0.00700499
0.00445659
0.00319176
0.00231698
0.000730743
0.00509063
0.00141688
0.00262176
0.00192269
0.00310814
0.00204023
0.00162676
0.00368339
0.00694061
0.00657955
0.00673502
0.000687869
0.00455026
0.00108004
0.0039652
0.00486481
0.00619888
0.00376185
0.00732003
0.00254301
0.00747587
0.00246294
0.00241612