/*--------------------------------*- C++ -*----------------------------------*\
| =========                 |                                                 |
| \\      /  F ield         | OpenFOAM: The Open Source CFD Toolbox           |
|  \\    /   O peration     | Version:  2506                                  |
|   \\  /    A nd           | Website:  www.openfoam.com                      |
|    \\/     M anipulation  |                                                 |
\*---------------------------------------------------------------------------*/
FoamFile
{
    version     2.0;
    format      ascii;
    arch        "LSB;label=32;scalar=64";
    class       volScalarField;
    location    "0.0207921";
    object      omega;
}
// * * * * * * * * * * * * * * * * * * * * * * * * * * * * * * * * * * * * * //

dimensions      [0 0 -1 0 0 0 0];

internalField   nonuniform List<scalar> 
47425
(
54.0722
70.0938
65.5461
162.595
120.36
71.0007
84.4126
103.46
49.5279
489.42
142.162
51.7425
63.6669
73.9008
85.9693
93.2895
63.2258
54.2494
1043.29
168.566
84.0421
47.8828
106.2
62.1676
50.2089
48.0703
71.5138
660.118
64.8294
56.1351
49.0466
50.1033
49.2578
62.3082
51.9409
67.3855
48.4225
68.884
64.5113
73.0527
74.0939
53.3358
63.4801
145.379
1868.78
110.26
96.4068
80.5526
76.6992
49.8962
556.632
163.342
49.9384
728.093
116.546
123.383
48.1781
56.6086
81.7186
62.1801
994.306
1122.88
774.182
50.6513
49.6269
49.6195
65.5877
61.2052
740.803
52.462
74.9173
51.0586
50.5456
86.0156
613.954
49.6593
748.482
79.5628
1342.19
214.546
645.923
61.8836
48.9983
51.4453
48.4363
81.4615
53.1441
49.8492
75.7349
343.652
49.4524
79.4356
48.6846
116.032
149.438
196.314
50.4304
49.8011
80.807
81.5392
63.0258
91.6013
51.1827
106.002
49.8105
54.3531
48.484
86.7312
47.4868
49.871
217.426
61.6102
57.9987
154.584
52.1296
897.974
51.386
231.289
83.5863
57.3636
74.0797
49.0201
61.2272
59.8911
100.181
58.3799
82.6107
49.3514
108.211
48.9468
49.2445
102.211
138.424
125.57
51.7412
61.2084
51.5441
60.0795
68.6887
97.1328
73.4735
135.693
71.1355
66.4785
54.1564
49.484
85.8467
64.1523
153.803
73.6857
64.1309
483.228
49.6965
673.654
51.1486
84.7449
58.3077
866.07
97.1288
76.6423
52.3512
48.6197
50.0632
49.7469
358.243
794.23
49.6521
615.849
106.968
657.054
606.611
89.6916
75.1933
49.5515
76.0078
69.6351
703.074
63.6895
53.2256
48.0473
957.531
48.1387
56.5767
48.9007
48.8418
54.777
55.9749
84.9197
147.108
52.9455
48.9289
63.6763
73.7236
77.6262
49.6334
51.561
62.6943
72.4855
52.1545
74.5303
67.6402
122.815
47.9394
51.4044
54.079
158.878
50.9999
51.4466
90.4517
49.4738
62.5388
60.7422
50.0172
82.793
60.6381
58.9885
65.6077
208.62
52.402
97.4063
234.735
99.4144
57.6918
86.0361
167.969
196.373
49.7043
125.838
54.7305
64.2121
62.1897
74.131
109.523
49.3814
165.712
94.5873
264.641
119.6
220.761
181.407
79.4785
53.6547
48.5493
97.5236
48.7331
51.3133
62.4108
64.8486
47.9764
72.3246
47.3244
175.773
64.1402
49.526
91.2263
48.4482
48.5324
123.959
91.1667
49.6308
129.683
50.6442
72.405
135.818
63.6788
94.1237
48.5656
64.0468
58.4227
80.8212
75.2236
195.144
260.427
50.9826
179.497
180.92
181.664
127.322
244.022
179.367
1034.6
52.2553
952.571
127.489
77.8479
78.0937
108.061
85.5966
93.4308
53.3757
571.833
51.1299
50.3514
54.3333
61.533
103.035
112.231
48.8685
63.7233
58.5884
94.3726
49.2319
91.6106
56.4018
714.901
964.964
651.758
48.1991
49.6615
48.6884
104.878
641.587
85.8471
119.731
192.37
77.5766
105.715
126.166
86.2023
323.078
172.067
48.3786
58.5763
48.4464
86.5917
48.2334
74.2747
57.1939
52.0017
69.7446
70.3567
485.075
53.3628
73.9194
130.643
48.5875
510.199
52.2053
49.0613
52.2876
49.6395
49.8833
47.8578
52.9148
50.8825
52.8248
57.0014
50.2583
76.0368
88.7702
49.8538
50.4797
62.6086
52.426
50.3312
55.1798
76.4449
48.7965
53.2383
95.5325
64.5973
57.7402
84.4004
89.8584
48.5772
51.2896
134.785
49.9682
67.0727
48.8947
134.981
679.226
74.3784
48.8181
200.347
48.918
53.2173
97.4916
73.2624
48.3857
65.5236
49.0585
47.4903
75.1219
89.7209
83.5704
85.8067
51.7515
51.5281
84.2825
51.0653
50.2896
81.4645
55.2062
64.859
51.0861
60.603
91.4176
66.9058
49.4773
439.545
48.8311
302.522
74.3416
109.219
107.508
49.7458
145.004
48.3694
96.7526
49.9918
809.93
316.908
50.1089
53.2257
76.9613
81.5597
79.0556
77.0916
71.8021
91.0404
68.6892
48.1187
101.376
65.2131
50.0783
75.0023
68.5548
52.8572
150.152
1121.62
50.6356
292.127
914.933
92.6877
933.971
828.223
51.3737
74.1772
69.512
70.3915
583.503
93.8292
50.7633
52.0109
66.7778
68.4359
81.9151
80.0505
390.34
600.725
141.509
66.9681
76.5507
75.0037
53.6137
50.7591
60.1312
50.9859
85.9422
76.1705
132.89
67.9995
49.4112
75.4816
58.6761
82.2365
51.4188
60.4765
65.0783
68.934
64.3847
110.755
128.293
58.3189
87.3928
51.3225
422.657
131.355
74.4393
50.5773
142.662
161.758
51.4368
48.7295
51.7397
52.5869
66.1613
52.7228
112.616
71.7258
51.2891
53.5636
154.344
100.097
48.2067
55.2273
56.4194
59.5275
49.7158
51.6679
48.1845
66.8921
56.6137
113.56
58.7553
48.4889
48.2414
51.9654
74.7456
131.374
50.1549
48.5397
57.0068
52.834
53.2416
57.5387
74.0774
69.2824
54.2374
77.2442
101.434
404.564
61.9349
69.3619
56.3289
49.4936
112.253
112.989
81.1558
52.2324
85.2364
78.6869
50.9002
123.429
49.0566
253.745
55.4922
55.9003
58.8468
110.846
47.5703
70.9218
69.651
48.8396
47.5726
50.869
1072.92
58.8274
154.877
48.5062
90.6426
51.3994
57.3189
78.8618
71.6858
71.3096
48.2196
391.735
52.5587
55.8068
52.1054
50.9945
48.4268
61.2464
84.7763
51.8649
51.8475
67.6628
48.1956
196.542
48.8939
61.3169
471.118
72.9346
48.3551
350.479
518.074
48.7178
629.902
681.136
68.8284
51.2564
51.1749
48.049
88.7329
93.6611
396.937
48.8818
134.529
51.7917
95.3068
60.1283
87.2807
69.1926
394.348
181.251
51.5001
90.4202
81.3716
80.4494
124.229
128.414
51.4148
95.6865
133.6
72.5394
69.602
122.335
54.7618
50.6276
124.809
97.0633
74.0794
127.981
105.903
61.624
74.5969
56.5073
58.6399
71.6973
51.1561
49.3879
1344.7
61.1011
66.4253
1021.08
986.735
47.5814
79.7376
1585.2
176.71
91.9469
215.53
119.906
717.535
55.6745
50.2522
62.8495
149.045
114.766
113.48
49.1662
122.096
63.1881
78.005
53.1149
82.3965
55.9709
317.633
636.137
125.335
56.6086
87.9632
49.9885
111.836
51.1569
62.1141
65.5217
68.2938
49.7964
189.92
79.0193
48.6347
76.9095
194.68
837.698
197.098
90.7815
49.9387
75.8677
48.402
843.547
69.7405
472.981
85.7265
84.7879
58.5053
71.0896
62.6933
80.217
58.6309
86.6246
51.4449
210.984
75.5694
49.3416
66.4265
91.5598
1000.72
58.251
207.007
62.3293
48.9925
47.8616
149.913
77.4335
66.5243
50.2095
64.7129
60.3343
75.5379
80.4531
79.8466
62.876
124.554
196.069
71.3381
98.1792
65.6529
117.202
91.1
48.5494
55.0191
56.1649
70.6419
79.1697
48.8308
309.799
370.939
97.2513
67.5258
49.3715
93.4501
51.334
141.035
52.1056
206.446
85.7356
48.3558
78.2001
49.7577
58.5937
69.5574
50.028
89.633
49.8772
49.645
51.3946
171.801
47.4395
373.757
184.053
229.357
350.708
82.7418
112.621
58.9961
54.1411
141.457
344.235
361.249
83.304
57.3523
84.9899
123.331
156.551
135.118
94.8614
53.1914
67.0528
75.3333
118.701
58.6913
86.5792
318.511
62.5323
66.6038
153.815
119.723
114.196
95.7165
623.359
399.55
223.125
249.555
81.1823
123.14
48.7661
49.084
74.0594
394.141
190.505
72.9458
75.2466
48.3085
341.507
352.802
47.8481
173.453
91.4701
48.2791
170.814
47.8742
48.1354
71.3319
73.6206
91.0794
50.8622
48.4518
57.7816
71.2381
69.719
144.271
97.8907
47.4678
260.57
50.5228
47.7086
48.3855
205.385
81.7916
226.195
113.399
52.4222
50.3437
70.6591
1060.88
73.7063
85.2201
82.3493
66.7043
64.9546
122.427
124.472
128.39
363.84
85.2542
695.412
49.6031
70.4816
52.8956
64.874
48.272
170.35
132.15
48.492
393.032
108.824
67.0592
208.818
71.1034
52.6822
73.0072
69.8683
70.9388
105.08
373.257
66.6199
70.8066
210.532
225.729
652.096
221.837
92.1316
186.047
50.0035
49.8479
95.4382
122.865
88.5509
85.3371
96.294
103.456
50.5056
63.9104
110.517
102.541
92.8614
162.234
903.292
88.6877
65.3073
109.525
453.759
191.327
222.081
96.0186
67.947
97.4482
95.6001
85.8445
48.6501
52.5696
97.8594
380.675
115.96
69.483
96.3151
52.0468
110.884
132.703
78.9792
362.743
52.5854
67.3374
131.551
97.8853
67.0315
68.6267
105.419
98.8065
95.1103
65.4318
137.034
52.0226
49.8883
52.8713
88.5111
56.9254
149.675
53.7964
226.48
303.896
170.031
89.7781
84.1983
49.8096
70.7147
116.785
468.864
200.62
728.727
49.6378
59.8077
55.1722
235.358
84.2356
311.064
241.575
236.417
83.8326
260.359
87.7681
79.9111
69.7659
53.0745
75.3802
70.1101
74.3972
151.331
78.8875
57.5581
54.5581
271.372
445.317
153.743
181.105
603.341
193.37
95.503
79.1191
81.7853
109.297
186.756
190.502
640.046
51.6033
58.0955
67.723
50.0106
67.6834
103.475
95.0673
55.3639
111.014
53.1985
78.0381
51.5147
49.558
125.63
64.5432
124.867
51.4709
49.7525
164.038
49.8817
88.5784
100.426
49.9525
63.1274
117.969
67.6242
63.9536
75.8247
297.999
187.167
126.574
107.343
1818.88
983.464
478.939
404.664
109.126
55.2372
1047.44
381.399
55.5442
69.3849
110.136
88.8831
343.506
140.433
52.7102
117.396
59.4293
50.6831
205.286
871.89
137.972
1221.74
147.266
251.128
1142.14
56.9091
80.8518
134.764
214.302
97.3896
53.014
53.2356
784.65
53.2092
295.373
65.4188
167.634
49.727
55.7505
447.481
446.396
87.5073
59.4026
67.242
360.637
48.9102
48.8062
347.986
479.928
74.5806
49.3363
1015.77
797.259
423.842
101.571
154.607
378.186
447.768
76.5309
107.241
94.8193
57.1486
95.6722
435.577
1608.06
63.341
62.3735
60.6915
51.072
53.6494
80.0661
137.785
66.0691
49.618
49.3105
69.1015
351.476
1142.05
51.8028
240.288
92.0907
71.4419
161.68
52.7655
88.7291
64.9933
54.5259
202.506
52.0532
470.1
48.1182
775.549
512.424
359.897
206.087
71.0056
66.2723
107.315
51.9743
204.833
1473.8
108.343
327.298
193.952
430.273
141.166
788.063
552.348
95.3119
50.3829
1493.67
80.7577
50.1151
73.3098
473.852
995.93
78.8336
54.4136
430.228
82.6911
657.296
705.111
111.727
130.466
918.804
107.189
53.762
633.185
51.3718
821.684
1012.19
49.9735
64.472
80.453
55.9602
128.365
95.4618
51.7354
126.824
91.0769
120.985
61.0925
49.3272
144.092
81.3983
684.984
55.7002
97.415
157.517
50.1317
755.805
85.3851
118.348
152.377
486.455
87.1776
704.181
183.981
137.311
57.8923
1223.05
222.244
254.384
81.9862
155.571
62.5309
76.3514
66.3071
310.009
291.265
99.802
674.83
150.527
102.909
274.55
131.149
148.74
708.086
194.105
49.2008
154.163
85.0033
148.588
247.805
890.237
57.9825
52.1984
63.2081
669.425
64.6619
339.897
63.1234
64.884
50.4415
124.556
61.1763
205.405
246.139
56.1827
65.9541
95.5981
78.9438
943.728
214.478
104.875
696.355
306.89
122.22
161.707
65.4648
60.5279
916.117
60.2202
660.131
208.458
52.9423
61.9398
74.2495
96.2314
58.7595
72.362
111.458
83.347
74.0035
70.0866
78.8809
147.363
68.7961
202.337
160.362
145.971
55.6056
706.351
367.223
62.0374
489.755
352.054
54.4313
117.817
476.008
230.261
52.7622
123.223
268
164.699
371.572
56.3086
534.3
102.662
52.6312
68.6347
113.511
156.938
129.849
67.9459
233.65
49.046
292.363
112.313
1102.87
147.493
69.7911
123.34
218.053
59.5817
150.988
83.6923
102.964
635.299
74.1547
69.2219
931.962
48.0041
85.0292
392.663
59.3056
213.177
836.364
153.616
81.0653
76.048
930.48
216.079
363.331
207.333
80.3166
64.363
106.384
541.669
859.712
189.62
91.5988
50.4918
87.8338
87.7935
131.974
320.43
96.5062
56.5011
60.01
58.6838
51.5689
89.2617
52.2765
51.5096
124.91
94.528
48.9274
133.556
170.031
65.453
50.5625
135.573
61.4531
49.669
53.9573
106.334
98.8933
50.8935
99.1391
553.785
90.9588
53.9323
54.3761
48.2205
195.984
65.1046
53.5967
595.099
889.131
288.28
50.2812
611.528
157.311
50.5353
895.662
105.041
879.366
94.8128
69.5662
85.9773
70.7913
48.3534
86.3309
87.9541
94.9708
113.608
86.7972
106.966
151.707
82.6941
76.3711
409.256
89.3021
1203.25
73.2843
627.001
49.8152
122.295
188.457
51.4104
69.5167
194.407
48.0747
244.901
280.857
1209.69
56.9357
588.625
55.1937
115.179
135.338
55.623
519.736
62.1249
255.546
54.7032
665.228
658.451
79.8358
48.0171
302.677
73.7594
285.395
76.6921
98.6598
71.6484
71.8033
56.2531
52.2809
77.7721
223.55
66.4199
180.498
88.4157
82.4666
49.3979
155.952
261.178
90.7318
215.689
55.857
67.2215
121.871
84.5558
72.5725
55.9651
157.648
131.55
48.9746
84.3438
67.3947
71.1471
95.4935
222.926
252.229
79.5726
94.9166
218.902
88.2377
52.5878
64.1608
50.1133
176.959
169.23
204.145
107.906
71.7836
69.9982
70.2105
53.683
51.9506
60.7412
445.015
131.08
627.157
464.824
582.711
55.5213
64.307
64.6249
68.999
52.7365
288.834
72.1336
48.7769
82.2503
109.392
70.8975
233.082
68.7214
159.14
97.823
103.199
51.7244
70.7657
90.2803
93.7894
66.0766
119.155
90.1777
132.677
80.9996
71.7571
77.8328
155.004
177.915
61.4762
85.8281
131.462
100.534
171.676
49.3998
51.4867
133.391
63.9692
54.2805
78.751
49.8618
49.4767
76.2137
78.5542
285.523
71.1247
85.9562
49.0306
69.1695
573.131
82.7451
87.5219
56.2417
62.2475
91.8222
88.2535
892.182
109.143
219.633
50.0242
58.6574
73.6245
48.8212
51.8527
110.838
85.7853
51.2185
48.514
240.102
105.627
463.239
124.062
198.608
106.343
69.3013
112.174
439.216
183.838
87.7122
79.4321
895.617
63.4452
81.7572
92.9996
87.7228
49.4356
937.086
66.5522
97.4188
51.6884
128.788
60.5419
929.476
991.15
67.6418
52.6542
48.3565
94.4439
99.5124
57.0408
1154.39
747.072
62.8558
143
388.728
61.4446
57.8106
107.932
48.369
59.4999
50.6434
73.0339
135.056
88.5372
79.1783
51.2958
62.0768
74.7254
49.127
254.396
64.4518
113.618
135.781
369.58
264.896
105.881
135.054
68.7177
133.313
125.713
50.4163
575.126
273.048
131.417
89.9483
107.106
94.9771
93.2525
255.331
48.1371
48.8568
64.5631
68.9203
133.264
82.749
359.699
426.064
52.5729
131.934
49.1234
49.7725
80.2328
61.347
69.6654
54.2717
48.0951
274.889
396.203
49.4171
48.0233
140.138
975.709
56.1134
47.6679
65.3081
147.505
889.312
88.9685
334.316
244.985
292.346
336.491
74.2506
51.9282
48.1292
60.1247
920.824
53.6623
86.1516
83.1571
48.1729
520.588
956.137
954.204
210.496
212.805
52.7867
50.2182
55.4638
80.2192
559.835
513.433
355.303
535.294
367.096
62.6126
49.8701
812.106
49.9476
884.414
96.618
878.937
82.615
131.525
50.5965
137.537
169.972
171.783
50.9875
66.1203
92.9665
83.669
67.6871
73.4481
70.7049
1124.95
549.366
84.7657
292.153
395.709
273.756
66.6791
49.7968
428.309
483.916
422.005
50.3902
892.833
51.7927
936.454
1079.17
469.048
214.187
52.6821
60.2351
48.3171
73.0067
86.0578
147.969
61.468
82.5317
57.7414
96.4777
76.2939
48.4813
49.4042
108.768
49.9869
51.2113
81.4951
57.0651
88.4559
92.7541
159.184
92.9917
50.7851
67.5885
111.92
77.7467
96.5469
127.054
1194.06
56.8784
373.638
65.8143
97.2164
284.371
75.0906
58.289
49.193
76.7485
95.2679
53.4953
97.2073
103.331
83.9499
52.6429
65.3663
52.5244
69.3059
113.264
65.4277
102.123
299.196
90.1726
83.2507
75.9691
114.593
88.9552
270.181
49.9717
66.9727
110.372
259.804
266.6
76.5463
109.838
915.22
247.337
189.715
92.3271
74.6729
115.59
88.5662
52.5767
141.996
80.0029
88.8957
274.168
54.6589
166.067
119.701
118.433
107.785
205.048
79.1139
61.049
49.0509
57.5945
94.0717
83.5526
549.903
62.2049
90.7246
130.223
103.774
843.814
60.4766
49.7279
105.865
285.407
336.705
157.472
49.9077
136.234
69.7417
53.715
48.9001
508.856
104.195
63.1492
325.36
52.9109
67.9516
155.568
682.295
903.678
61.5687
68.8099
844.356
48.7832
147.107
97.0314
491.232
303.99
51.4493
95.9517
535.81
94.0354
64.7657
66.3269
102.391
56.318
70.144
372.85
51.7809
101.765
478.7
152.661
552.915
81.5851
409.653
56.7108
1076.22
107.769
106.995
545.566
157.889
231.575
398.051
370.861
296.745
48.712
50.1316
377.341
59.0032
87.5271
361.177
62.354
63.148
68.1523
120.567
72.527
53.0854
718.422
369.447
140.999
336.18
168.069
86.8978
84.147
74.1267
115.893
64.0962
55.209
79.1827
61.9629
309.066
322.812
62.5321
58.5309
53.8793
74.4609
107.562
108.116
99.42
73.7772
348.203
63.2756
64.756
357.183
132.546
494.154
130.781
92.4467
623.519
139.874
113.901
296.636
135.366
128.573
53.0848
827.666
48.4911
54.7773
58.4095
88.8171
71.8386
104.148
165.499
105.761
146.791
82.6979
113.847
102.414
48.1388
203.324
78.3075
475.753
1268.82
98.2993
342.517
101.176
69.3393
606.122
67.6194
59.9855
66.2737
93.2067
609.137
269.021
57.2553
305.99
294.353
66.6283
1788.59
358.704
66.4121
269.852
66.6172
87.4113
232.491
374.448
149.066
710.869
60.1536
55.2924
161.157
58.7494
50.9882
108.245
292.781
444.01
48.1004
144.341
50.6876
147.999
59.8009
147.787
260.089
92.125
261.367
63.1649
65.0284
736.455
49.2987
53.2337
122.825
54.5508
131.785
283.526
51.8978
937.459
502.98
833.27
421.466
119.755
73.1227
50.5585
57.7047
85.7706
49.2867
90.6943
150.895
62.5375
78.5258
592.447
49.2605
148.753
50.8379
131.803
66.5296
701.804
126.638
89.9817
49.7969
139.134
152.188
51.278
57.3917
101.21
47.6132
206.623
87.9031
108.145
58.3247
51.2996
104.992
53.3585
131.097
242.593
51.7806
65.3449
51.7194
67.3109
390.061
229.917
139.88
388.208
762.868
279.037
77.6843
574.428
428.663
593.919
70.3351
181.07
302.685
289.387
241.69
886.194
60.9236
53.0279
177.037
689.467
56.8237
359.35
100.273
365.17
75.633
75.6217
530.905
348.735
369.117
63.6154
317.104
129.957
456.356
50.074
215.578
62.7055
55.2055
99.5301
98.2339
310.214
114.529
64.6269
164.4
68.7704
219.125
309.711
51.524
66.685
60.9329
892.229
77.7011
132.258
150.599
142.258
60.2516
50.5582
95.0107
71.0615
350.155
49.3658
106.519
340.665
64.8242
54.8758
70.6057
67.6844
527.302
139.925
191.105
86.6663
64.5703
1131.67
1280.85
57.7719
149.749
57.5721
51.0663
352.041
74.7188
477.614
56.2951
51.6485
97.898
59.3594
54.8585
59.4272
66.3702
139.688
187.996
217.795
191.124
71.9445
78.9282
49.7653
172.819
527.625
848.12
75.8147
498.981
190.468
597.927
86.0806
379.026
111.3
115.792
130.708
88.0038
274.639
71.5233
167.82
110.52
62.7261
992.37
108.549
496.416
109.064
61.2019
110.869
66.907
60.5262
65.196
218.592
107.236
122.158
54.6464
121.24
431.173
134.078
77.1504
168.198
53.7997
60.1215
48.7952
78.7274
81.7071
150.733
75.6136
100.131
81.2492
70.6569
81.0198
60.8142
71.0138
59.6514
175.675
55.8188
105.78
55.4285
71.1407
129.896
81.2722
51.8667
81.7537
98.0438
93.4419
130.43
329.734
49.292
95.5239
328.743
159.975
156.483
54.7622
157.625
86.2826
235.351
59.6981
52.7618
56.2345
132.87
62.5338
63.4717
786.025
91.4307
301.2
52.2626
50.5149
167.711
83.87
58.4793
127.93
49.69
85.4786
59.5765
327.54
48.6295
156.756
51.4233
52.6694
79.5367
66.757
133.871
108.208
48.1598
208.333
69.4872
75.1627
93.1552
708.731
61.9514
63.8697
131.312
63.0675
57.659
129.376
55.8277
50.5308
108.185
189.135
127.615
87.9609
318.242
112.019
310.108
49.6945
182.888
69.1219
95.3863
79.1952
55.6228
63.8931
62.9517
83.5391
165.046
67.0413
532.033
93.3507
50.5785
461.447
132.311
1575.38
304.434
75.118
87.2906
104.963
122.945
403.412
67.9817
401.7
93.1339
359.927
67.5333
320.977
69.4978
235.306
217.205
130.291
366.8
419.693
678.33
1244.14
505.225
761.26
233.778
363.529
370.606
48.6806
99.5492
303.316
73.3259
555.725
61.1992
425.208
579.93
127.279
103.985
78.1421
48.2239
114.459
49.8313
260.931
134.989
86.1955
179.872
85.7978
157.692
66.1769
55.8948
115.726
54.7801
222.109
49.6159
71.869
682.093
62.4057
50.8684
87.6612
60.2993
468.919
203.715
68.4639
56.8494
180.725
49.9342
71.6953
54.9838
57.7382
102.745
79.7558
56.0032
61.2213
309.012
80.6948
62.4699
53.0959
50.8927
50.2903
80.8648
74.6835
99.543
52.0214
74.0781
96.5116
55.943
232.209
77.5425
54.638
64.5635
85.2064
144.543
112.252
100.454
51.7818
121.406
86.3752
57.3127
60.5555
80.7703
76.8936
97.631
75.1645
132.533
69.563
80.7969
119.125
234.352
673.193
1068.18
130.775
58.9992
337.363
174.939
108.616
52.1228
50.9044
51.1908
83.1424
76.1805
48.9806
50.3069
53.6309
115.941
51.0776
50.0163
49.061
58.0278
159.327
59.1408
119.811
55.1956
87.7543
279.795
57.2508
54.5618
64.1683
995.146
1013.33
100.789
69.8239
63.8108
60.1149
76.1818
460.234
69.5564
68.059
92.9563
52.2528
92.9342
57.6677
70.1395
115.431
86.9129
66.9343
206.962
206.542
69.1108
1922.68
178.934
203.561
63.0751
84.8039
101.989
118.747
51.4804
76.1251
317.97
49.4121
203.181
536.904
110.662
128.051
490.823
73.9186
78.0892
95.2486
48.3754
125.259
362.472
96.358
88.6337
279.071
196.138
1102.69
586.616
95.6947
52.1091
145.218
66.9999
178.661
143.119
509.748
49.9284
49.5017
562.494
54.0112
205.071
73.8195
107.72
606.769
772.28
51.6208
48.9581
817.637
51.7294
52.9256
63.5267
49.3146
85.7347
80.8995
236.126
57.0736
547.733
109.231
51.7583
83.8488
676.315
84.0554
599.734
66.0671
59.9277
87.6871
88.9655
63.0522
85.1245
61.6709
529.751
108.82
111.227
422.901
123.453
52.9874
545.103
97.0291
112.312
77.0573
76.2714
111.71
73.9317
51.1877
254.098
72.3408
73.3355
61.7271
105.504
68.3165
61.3192
53.4873
60.4353
157.322
65.5919
58.7345
83.9332
383.617
71.7965
66.7727
63.6272
97.7777
49.2705
68.766
56.7329
135.268
72.7347
144.416
151.738
85.014
393.846
60.8872
59.8994
316.965
334.972
560.097
89.7594
349.572
59.2876
414.16
96.7223
267.407
97.5894
50.3785
113.602
211.549
96.5948
60.8954
51.422
55.5456
454.937
56.1021
52.4596
59.0165
2222.78
382.109
50.5581
1482.28
410.624
319.34
164.867
1437.06
328.482
65.0914
323.552
93.4925
51.786
340.294
911.186
68.7486
51.1217
52.5159
522.783
54.1
892.89
52.2514
131.337
70.6771
129.913
326.846
51.151
118.363
122.47
55.6015
106.952
50.8146
127.73
1748.21
1805.75
675.198
95.5721
391.154
49.2641
50.7291
57.9484
100.925
49.5069
59.3223
49.3584
76.0207
91.91
50.6948
53.698
77.7769
51.0009
94.9822
121.701
49.8253
116.806
134.681
51.8132
59.884
846.086
58.0545
784.72
601.39
133.101
137.09
79.057
123.39
61.1232
57.6089
320.952
57.2454
64.5851
54.8686
58.0688
76.1558
137.483
100.996
184.255
113.27
53.5937
508.004
65.4343
281.119
229.021
65.1964
899.443
71.9706
62.0831
61.4711
60.8278
74.7432
54.3669
119.743
54.8475
368.169
205.402
372.26
56.2708
57.8326
84.1138
352.29
289.382
80.3283
148.298
67.7855
340.595
67.4988
64.6203
401.558
87.9758
55.2733
93.4515
1109.75
56.4538
61.5034
123.388
51.7564
137.038
137.089
54.1794
80.7314
213.902
173.269
767.921
71.4318
353
281.389
268
56.8671
184.602
102.019
106.136
54.7195
55.2859
56.7189
470.497
80.0823
102.422
140.834
75.497
59.4319
95.7864
49.9696
147.515
48.9073
65.2924
169.595
106.671
76.619
171.079
101.321
84.778
78.4912
129.064
48.9586
209.282
385.668
111.765
65.9197
49.5722
186.149
57.2967
50.0338
87.3964
50.1991
110.132
91.3748
49.0771
51.8901
104.014
193.7
190.273
49.6678
748.319
48.9449
99.4428
89.8728
49.0786
728.221
151.801
651.792
50.8798
68.8192
518.232
662.429
93.0954
100.836
192.542
128.913
56.8466
75.4779
63.3367
149.756
82.9846
136.471
50.6091
137.383
103.001
114.836
54.7769
90.9944
48.6319
62.8645
526.78
212.042
96.1652
54.9106
108.333
88.6514
88.5623
146.668
50.0043
53.2806
64.7514
89.6688
86.4731
65.3251
116.356
59.387
55.8955
54.4982
68.6228
61.1001
58.4035
151.138
76.2445
67.3161
1515.47
79.3506
64.2584
81.0522
49.2401
87.3927
211.172
52.6549
83.2093
81.1901
1004.19
65.8496
60.3487
95.963
1441.24
96.4684
155.577
126.459
69.7554
49.1734
71.5053
67.6658
783.325
100.843
69.7532
65.9972
50.9415
240.108
52.234
694.447
232.291
112.668
77.051
61.2158
110.512
93.13
61.7473
431.425
120.48
331.021
50.7211
140.842
635.535
120.213
53.7803
103.974
54.682
684.366
63.9196
57.3481
91.1682
48.2249
59.0428
85.6347
51.4564
188.002
50.5187
318.433
49.0285
79.8709
63.5327
153.068
90.641
131.475
99.1432
541.774
101.203
123.589
76.7495
51.1024
102.941
60.0442
55.3822
76.9566
73.6579
61.9745
126.73
49.1055
62.5366
50.264
260.522
86.9083
477.388
522.854
267.102
161.442
66.5319
70.0951
58.4245
192.413
92.0078
52.4931
51.712
113.806
103.202
51.4212
77.0373
1039.48
99.2297
65.8299
70.5694
507.6
830.441
62.1613
515.607
560.263
217.546
266.988
170.117
441.452
72.8429
226.073
723.753
72.8404
49.2044
57.5848
99.464
318.674
52.0028
50.1207
69.9151
152.085
157.159
1047.19
114.949
941.394
118.84
63.7806
88.0749
73.8219
63.5583
581.379
69.8185
267.965
468.459
62.0204
652.975
2160.71
60.0108
117.625
97.2063
435.018
154.829
121.276
698.615
996.736
99.1154
535.332
131.445
347.21
82.6933
51.6364
154.648
662.672
615.815
62.8274
110.909
147.221
96.6948
227.852
54.354
63.9909
871.648
274.506
415.595
48.2606
365.772
65.7413
380.789
63.6913
105.665
191.061
329.331
86.158
110.963
343.59
100.055
502.461
79.1336
64.0284
316.418
51.7357
154.831
50.521
53.107
49.3768
83.2683
391.607
449.418
299.681
63.0607
66.293
258.406
62.6336
415.256
70.537
56.7666
81.7858
171.824
154.082
560.856
51.0616
76.5501
68.9795
314.53
107.645
571.316
845.287
426.03
105.696
66.2603
364.237
388.142
151.663
55.0317
65.1288
48.4542
730.038
231.439
343.601
2011.9
241.557
96.3748
84.2972
722.256
399.231
67.5006
91.3833
105.354
447.319
58.203
50.3123
91.7979
71.8474
597.734
320.997
236.205
120.42
232.926
407.49
172.977
96.1774
775.608
316.047
671.547
211.718
295.992
572.34
160.451
61.9226
103.168
60.0382
53.6193
72.1625
70.7229
150.435
228.06
86.1442
179.481
182.341
146.786
66.8094
189.488
102.805
69.6554
129.802
660.293
1064.21
502.775
71.1466
117.95
74.6828
207.958
522.13
155.329
402.214
76.0021
391.052
309.597
189.628
50.8067
50.3397
70.4691
66.6204
604.959
88.6984
56.7822
368.362
71.49
780.629
396.701
101.441
402.558
61.7393
48.6796
49.7008
49.2075
101.757
68.9026
94.1319
135.29
74.0762
49.554
168.672
596.651
487.397
49.6256
106.731
56.5589
67.2167
55.6307
610.481
55.7528
54.0809
54.4643
98.9138
51.1837
52.9864
92.7126
55.1159
56.8776
58.5848
231.918
49.8545
63.6191
115.458
403.317
421.944
65.96
636.222
501.995
58.521
58.6874
163.795
67.935
228.825
85.2877
92.7584
81.058
211.18
72.9857
92.1705
971.437
382.196
103.835
577.78
51.9766
50.1974
66.0675
50.1584
48.5818
73.0153
55.936
73.6782
191.306
77.1072
420.532
110.148
369.117
79.7097
48.0164
608.826
127.493
85.6014
542.575
103.578
616.59
73.3496
423.157
49.37
171.629
89.5174
246.467
50.2424
87.6217
78.733
541.892
49.701
48.3664
68.1955
82.2606
121.886
60.1886
62.8005
92.3208
51.8749
127.424
52.5819
64.1026
147.658
90.1004
170.747
64.5675
51.037
59.2534
48.9746
56.5811
137.923
48.1336
87.9356
48.5433
238.254
120.829
56.0999
115.04
110.929
61.4434
83.0992
65.3662
130.523
160.18
55.8645
50.4014
89.5384
76.8303
387.928
525.063
478.324
64.887
53.3708
55.8613
62.284
85.865
811.764
239.581
65.6917
57.1186
67.6495
51.5369
50.4133
75.2638
139.392
173.055
446.006
204.948
59.3893
77.5845
82.2451
48.0706
257.53
74.2733
79.1669
116.351
56.3817
932.743
76.4561
55.3635
68.4458
68.8865
158.174
453.766
49.0695
413.795
59.9998
735.831
110.956
502.796
71.8136
52.1868
59.3475
105.937
55.7835
49.5845
124.119
47.8875
50.206
52.8591
63.0192
203.911
63.8426
733.196
76.9772
58.8803
136.623
171.873
49.0741
432.451
907.765
731.73
526.729
420.981
52.9049
403.971
363.219
82.957
61.6177
57.8156
655.819
93.6912
99.0484
49.2287
73.5816
253.414
670.558
157.358
83.2421
47.8575
68.7669
241.99
51.6021
56.8785
526.138
462.303
236.215
702.891
76.1999
48.2045
70.9186
80.0559
1083.52
49.9319
49.7828
48.629
300.232
49.1927
57.3549
97.7636
99.7042
48.9318
105.284
51.1726
149.033
74.6466
138.345
61.3419
204.186
92.2169
115.952
177.809
114.308
220.081
56.8254
627.397
93.3189
323.182
322.407
347.027
83.5012
92.6853
191.944
75.8989
47.9534
54.1052
51.4277
89.3263
570.878
120.388
49.8007
84.9429
63.366
49.4733
117.589
59.4019
137.509
99.7186
53.0485
103.022
56.318
73.9518
247.69
497.343
67.3208
101.749
81.9697
106.755
521.348
220.287
500.75
812.14
143.116
53.4729
54.4638
49.4836
108.422
806.054
82.9439
777.838
133.347
51.6427
120.2
382.009
52.9711
52.6524
58.1596
75.6107
54.5321
235.474
67.5023
89.4201
233.257
49.5676
100.9
58.062
129.454
61.1681
58.1733
610.1
78.6005
118.206
59.8052
71.3222
49.4406
109.145
123.395
95.9766
94.7953
74.0519
62.1868
68.6816
57.3488
233.359
58.0168
57.0952
119.094
222.747
236.902
55.4806
93.7759
115.614
170.335
71.0249
256.792
60.3893
137.971
101.83
61.3089
156.039
85.6219
60.7577
238.807
96.8643
52.6924
51.5829
252.003
91.5023
103.731
55.2656
114.505
86.3863
49.9867
96.6399
361.339
81.8969
70.952
89.8389
610.908
70.9158
87.987
152.721
62.1754
158.968
55.1829
683.383
85.6918
79.6945
86.4447
57.0017
118.044
56.5791
429.46
48.5044
75.3489
591.843
59.4504
115.103
206.21
99.2966
52.8052
500.426
55.1661
49.4707
92.9863
132.585
55.5303
293.416
48.9043
381.366
103.885
49.3003
79.9081
120.655
676.459
183.085
73.9009
51.3916
129.833
353.325
481.233
119.176
126.791
958.246
206.915
237.818
132.214
85.7079
105.785
60.8935
525.622
952.382
153.934
176.602
101.24
884.265
472.555
447.494
389.469
168.751
62.6957
56.9343
152.986
74.244
526.689
337.9
78.6564
707.091
110.625
54.1962
64.1765
54.2769
109.352
89.0105
92.5981
80.0345
144.361
184.905
844.653
57.9434
119.975
638.615
588.113
182.435
184.379
67.6148
685.204
48.3877
65.6574
367.083
148.583
50.4178
294.937
389.834
67.0903
123.377
53.6034
103.469
56.14
81.2949
177.687
88.4098
560.318
48.6246
57.6481
90.7914
462.931
176.769
124.869
169.758
216.282
123.449
72.0577
373.756
110.078
73.574
212.039
766.051
273.025
57.8807
316.002
160.579
89.1833
68.5037
127.045
50.4688
93.9429
83.7395
78.8987
72.7432
62.3987
87.2855
49.928
48.8917
49.5195
102.408
53.9086
161.39
426.902
682.333
94.4888
78.7783
57.1253
55.836
106.096
616.136
56.8087
147.313
74.5216
188.56
59.2148
96.6332
75.3077
356.121
49.942
55.873
241.673
54.492
71.421
95.2187
60.6982
345.665
81.0415
409.562
360.452
261.025
590.108
178.51
381.659
78.0436
112.383
146.287
59.0023
368.744
102.295
87.6512
147.526
81.5753
74.7455
50.0023
60.3248
53.2829
48.887
86.9912
297.697
49.1354
850.993
115.171
310.964
120.82
315.907
1814.64
58.2576
267.362
1255.06
101.714
338.744
81.0669
71.3038
720.243
953.923
260.371
161.56
60.1113
297.602
102.626
522.931
54.7394
59.3646
215.637
976.601
62.0543
77.6004
56.2682
165.9
385.45
54.9703
467.331
262.592
535.532
678.458
56.4974
259.176
64.0835
505.616
397.157
242.109
319.193
159.557
399.322
234.29
246.872
74.2279
70.5039
67.1731
57.7597
58.7903
1312.38
70.6629
99.0541
70.7545
72.9954
96.7785
909.761
104.579
247.493
305.388
105.939
233.006
133.073
47.7303
67.1846
888.89
526.212
237.312
192.789
186.442
78.1507
424.032
56.5101
188.336
216.631
58.823
449.399
114.402
224.077
356.865
105.488
143.299
148.108
105.678
54.968
143.978
67.3916
462.454
66.7575
176.193
75.9188
230.376
62.6778
69.6121
362.618
127.576
266.831
49.5783
1343.39
50.4795
58.9542
52.7719
60.9918
80.5417
470.364
121.227
55.5453
608.936
77.403
53.1437
65.7377
789.095
49.4914
88.7541
820.188
159.673
813.01
373.75
118.503
141.428
180.239
191.612
695.136
71.4226
269.396
102.16
63.3861
182.351
68.9692
107.895
62.9389
555.915
399.518
472.358
297.095
185.775