/*--------------------------------*- C++ -*----------------------------------*\
| =========                 |                                                 |
| \\      /  F ield         | OpenFOAM: The Open Source CFD Toolbox           |
|  \\    /   O peration     | Version:  2506                                  |
|   \\  /    A nd           | Website:  www.openfoam.com                      |
|    \\/     M anipulation  |                                                 |
\*---------------------------------------------------------------------------*/
FoamFile
{
    version     2.0;
    format      ascii;
    arch        "LSB;label=32;scalar=64";
    class       volScalarField;
    location    "0.0207921";
    object      p;
}
// * * * * * * * * * * * * * * * * * * * * * * * * * * * * * * * * * * * * * //

dimensions      [0 2 -2 0 0 0 0];

internalField   nonuniform List<scalar> 
47425
(
1.32978
1.75417
0.231006
0.869606
-11.8134
0.411834
-10.2551
0.275135
15.7409
-24.3971
-0.0290208
15.8947
-6.87793
0.0243948
0.402126
14.8704
0.419568
28.9414
-94.397
-23.2669
7.62611
17.4969
0.0065786
0.897812
16.7838
0.935863
0.20387
-31.0622
0.322648
-0.183106
17.4576
14.4802
15.5026
0.117049
0.312359
0.166475
18.7073
15.7744
8.26587
1.19299
1.67395
0.946424
2.30409
15.9598
-30.9379
1.20038
0.215453
15.3487
0.661656
0.123408
51.5778
1.98296
-0.239808
-22.1175
1.10724
9.93343
1.83583
0.218433
-13.2646
0.0238473
-24.4414
-24.6262
-58
22.6077
15.1261
4.94637
14.8567
0.34428
-38.6623
24.8467
4.94726
0.581783
3.24516
9.41879
-46.0866
15.4514
-58.3803
0.219636
-103.055
-13.0577
-50.6111
11.3894
23.7998
13.9843
1.27687
1.65908
2.42713
0.348368
-0.0472078
-18.2523
17.3306
4.03651
0.127707
1.71837
1.78183
1.00033
0.263205
1.49962
1.54935
14.3086
13.7264
27.9981
11.3003
48.7645
11.0242
1.84133
1.27023
1.20387
0.768635
15.5621
-43.5424
14.9284
1.6404
1.82405
1.38581
39.3592
1.64325
54.0255
10.502
-0.0353985
1.75559
15.7218
15.2153
-2.80509
13.2344
1.5319
0.579304
15.1317
-0.742632
0.640419
22.9342
1.34393
59.3247
9.37633
0.96977
-3.49227
3.51794
1.489
13.1984
1.41864
15.0831
-6.6431
7.7309
1.60124
12.6907
15.2149
-9.62708
14.8285
8.23145
15.8754
1.86201
46.3291
15.1806
3.88923
23.6772
0.826884
8.34691
-103.101
1.37605
-0.049865
0.800919
0.77394
0.792312
12.7498
-36.6073
-71.1906
15.0759
-46.5301
0.919296
-34.1037
-47.9058
1.50367
14.2905
20.8981
0.704757
15.2772
38.0866
0.0569735
0.147732
0.320086
32.5567
0.648731
0.357839
0.265807
0.0539455
14.026
11.9177
53.8487
0.419525
1.35688
15.4036
0.598414
-6.86043
15.5597
0.480593
1.06103
15.3963
0.996122
0.662992
1.25034
-0.0562822
2.56911
1.22012
1.36151
11.7885
3.41052
-0.0806112
1.71248
13.9334
14.8662
0.648235
1.30953
14.3199
0.790154
2.6353
-0.294876
3.09219
-10.4679
23.5723
16.0381
-15.1228
-0.373752
2.94529
3.39497
4.38416
-13.3673
-0.234527
0.0231242
-0.489879
-4.62447
4.32613
0.82854
2.18546
16.059
-0.128043
14.1575
-17.211
0.802636
-15.2253
-0.39537
0.368078
0.105524
0.0328179
-4.18251
9.87796
15.5485
1.11266
15.4998
0.385457
0.367813
1.1856
-11.4615
0.1331
15.9024
-0.470393
0.34538
17.238
-0.446068
8.38776
14.6233
0.395608
16.0047
11.4624
11.6069
-4.114
1.52438
0.40344
-3.98561
0.130508
11.9536
12.2883
-14.9215
-16.8171
12.4771
-12.9564
11.9208
-13.6201
32.8756
-15.1684
38.7102
-22.6192
1.51784
-27.204
2.18437
0.0232348
0.59916
0.196712
0.207086
1.92687
1.37398
60.8213
21.8262
14.9227
-0.0304273
0.131115
9.84521
-3.71369
11.7381
15.1631
-4.62928
1.40988
0.862047
0.456558
0.241576
-70.068
-80.7525
42.5612
0.19657
0.820195
13.5332
14.7161
54.2307
-0.242195
0.127632
-6.84247
1.87509
0.370884
1.47714
0.418425
-36.6059
-6.92429
13.9927
13.5436
-0.598328
1.28299
-0.189487
12.9713
1.25976
0.451483
0.135779
-1.40647
-65.7017
10.9104
0.103233
15.7721
-0.589444
-65.1524
15.1756
0.61909
0.783965
13.7951
13.6421
0.947938
16.0484
0.398116
0.0738829
0.564248
18.8021
-0.195011
0.397007
14.6737
9.47043
14.8671
15.0838
14.2341
-0.892591
-0.0356701
22.2011
13.9452
15.1021
15.64
-0.660829
-0.173925
0.235277
10.0742
1.77935
0.268631
15.0619
15.4376
12.054
0.703078
-23.2712
2.41605
12.8684
15.5622
12.966
0.511326
14.6515
15.0105
18.148
14.4027
12.7957
0.394494
15.7004
1.11443
15.4025
0.0508139
12.2026
14.8913
0.309709
8.9946
10.1292
-0.0579494
8.696
1.5403
9.49838
14.9935
0.241244
-9.71784
0.0981162
-19.0741
0.283059
-24.3827
0.0791647
5.20177
0.474186
0.0646768
0.441996
-0.0197657
-0.641054
10.3187
-85.8552
62.9189
0.794038
9.99333
8.62746
7.3848
0.623253
0.413266
0.321309
0.387254
0.833326
2.05627
6.8052
0.0566624
-0.224634
-1.57096
0.419949
1.98988
22.9686
-78.2299
1.74213
32.7687
-73.376
1.64528
-79.9695
-22.5057
0.848409
4.53652
5.56861
2.40811
-82.8734
0.893301
0.794355
0.218441
2.08439
4.006
1.10599
1.25648
-13.6958
-76.4631
-14.8258
15.5102
25.6907
0.500605
1.13554
3.43179
-5.26627
3.68121
15.5007
15.7268
15.882
8.85954
15.8371
0.574245
13.2044
0.210696
2.08371
0.756052
0.838227
15.2294
15.3532
14.9274
9.83131
14.0266
1.20699
2.72463
-13.3173
14.648
-7.21891
15.1748
1.24676
-0.390944
15.9322
0.972855
14.1428
15.0492
14.8948
12.8561
0.388509
1.57882
14.7647
1.54269
13.4433
29.2855
0.453158
16.195
14.4788
18.2276
0.968816
0.417335
0.854045
0.219551
3.28397
0.163945
0.240362
0.45696
0.943478
1.98712
0.195218
0.268065
27.5736
-0.249988
1.14754
0.939658
0.987269
0.728187
-0.0958295
13.8844
11.5888
14.9771
15.0874
51.7055
0.0286926
-0.10332
14.9162
15.7679
-15.9691
-19.4347
0.412404
1.01225
1.40711
-3.15433
14.1113
-20.6143
15.8076
-59.9675
30.9531
19.037
-0.0798711
-15.172
0.180129
1.39877
-0.408651
1.07281
0.0676282
0.831522
-69.2646
0.278569
0.169551
0.0305274
-15.7134
0.318038
-0.0655719
-15.3491
-11.309
0.0856449
0.272638
-46.5775
0.325074
1.46576
-0.0885273
0.643514
0.366542
-7.82879
-3.80897
20.8432
0.880615
0.395858
0.292322
-22.0746
22.2324
0.284107
-47.5501
-0.0882356
0.0313406
-49.5749
-30.3203
16.0637
-46.8171
-46.9746
0.149716
15.4289
0.100929
19.3498
14.7193
-0.0604582
-37.1828
13.9901
0.289696
0.504364
-13.57
-7.39303
15.4834
9.85196
-52.4539
-12.3814
5.27534
0.301668
1.16192
10.0488
0.051902
1.30717
14.3164
10.6366
15.8345
0.755411
14.5958
-16.8491
9.62163
6.95136
-18.9451
11.57
0.591462
8.00578
13.0821
0.212651
15.2394
0.997271
33.8672
13.8552
1.97494
1.41939
-106.72
9.0045
-3.75862
-31.2827
-33.6357
0.0185775
1.78238
-34.0165
-0.233148
10.6084
-4.70594
15.5706
-29.9041
0.596159
-0.22325
14.4641
-21.0248
16.2127
16.0437
0.487559
-0.0413305
1.08826
-0.0521558
0.688153
1.48178
1.16008
-18.6822
-42.6089
4.41338
13.8526
0.541872
20.1613
13.9153
15.4932
15.4127
15.7077
15.6529
24.0913
2.43842
15.679
11.363
-10.0409
0.272172
-77.8421
-17.7389
-0.179612
21.2288
7.53809
-0.167785
-87.304
0.0233455
-45.585
0.904389
-4.73467
-6.03206
0.808359
16.5803
11.3922
31.7244
0.0658191
0.481436
1.76424
-7.01219
16.217
-8.35412
2.16196
-88.7041
-4.81214
2.05621
-6.65281
15.4777
0.916936
8.03854
1.85043
-7.78823
15.618
13.9369
-7.18085
0.158071
1.92849
0.210386
0.301309
37.3292
36.6805
16.3031
24.3197
0.0222946
0.0689728
7.83698
1.52866
0.690647
0.124467
1.17766
0.479983
1.0804
40.4978
-1.01503
0.285621
14.4177
0.579628
0.514505
1.08602
0.0846844
0.618331
-14.4676
0.834222
0.164447
-0.104633
0.543891
17.5355
-0.128358
1.94272
0.643859
0.614289
0.242786
22.9491
44.4233
1.15652
-50.036
-0.981247
-21.8786
-48.5207
1.79128
2.00621
12.4218
0.686019
50.3677
-49.8736
63.3761
-3.83626
3.25527
-7.44016
0.392631
62.1787
9.40822
2.29253
0.24089
0.842922
-3.41695
1.64247
1.32075
0.958671
-51.2749
32.357
14.7816
15.5002
51.8248
48.1188
-2.97158
-43.7203
-7.16193
54.8442
52.4872
15.2639
0.575887
20.2913
0.463308
8.56876
-46.5639
8.74747
7.85458
9.49204
0.204468
-49.4598
-49.7843
0.0530738
7.89342
0.82683
0.325266
9.19959
0.244793
18.9227
-0.266915
0.670436
38.7954
0.0506262
-0.93907
-0.114691
0.28386
0.0057142
57.9972
-13.7803
0.150993
11.4748
0.736553
18.0158
18.2661
-6.13931
0.174498
-61.7227
-7.16083
8.59454
5.56265
31.6783
-61.1422
0.790472
0.117465
-11.1658
1.46967
15.1631
3.41271
-0.0563572
15.9009
-67.4403
-12.5265
-58.4832
15.7824
33.2546
0.705244
-5.64965
19.6332
-6.71209
0.117427
21.3533
-67.7721
-14.3304
-7.5556
-56.0475
-6.79939
1.49674
0.429678
-6.83328
0.36064
-7.62988
-53.2091
-0.0385739
-9.43927
1.37809
1.1051
-33.3969
0.756948
1.54227
14.6647
18.1576
14.6377
-14.9359
-0.112939
1.68857
-10.3138
51.6261
2.4037
18.617
0.89714
0.98053
1.7326
1.61533
-9.70412
-96.5012
-5.15098
2.27152
-9.31178
-6.73086
-8.21762
-2.78206
1.0116
15.9384
16.1029
1.47741
-0.216254
18.6027
24.6615
16.1537
-50.6618
-7.21218
1.41004
0.442327
0.347489
1.0588
38.0615
15.1661
-4.05171
0.255137
11.8678
15.3749
15.1337
14.6038
14.0601
15.8172
-19.7985
-4.99749
24.1165
25.7247
19.0857
10.1124
0.429332
41.9691
1.81011
-3.03883
1.73967
-6.53708
-29.2044
-0.0955886
1.29166
15.9654
18.6007
15.4763
0.979177
-53.3994
-17.5722
-25.6271
12.3037
-4.19348
10.9835
-45.5365
1.42428
-50.9277
1.62562
2.41214
-2.49436
1.16817
0.657365
14.9741
-0.00368894
5.37174
-3.53866
0.809925
6.01086
-14.5077
-11.2899
1.20773
18.7893
58.5961
-75.476
42.4911
-15.8009
-41.2747
0.0753383
0.860778
23.2494
0.93749
56.1557
0.883297
0.0672341
-74.1694
15.5584
4.20448
0.168383
16.2805
29.4823
14.5136
0.506399
13.9463
-9.04845
12.1636
16.0924
15.774
15.5011
0.683044
-4.60701
-4.74509
32.3323
15.6029
1.23201
11.9378
0.725686
0.518794
9.40343
-4.96409
-18.612
-3.62284
-2.02428
16.4987
-21.1637
1.23447
0.0716451
0.341921
-92.6347
-57.3254
-11.2084
-44.9538
1.85268
-0.64168
-28.1396
-47.1665
-0.924558
10.1516
0.738608
1.6456
-20.7257
7.19586
1.23995
1.0259
15.6034
3.3887
40.8177
-89.262
-6.43809
-19.9125
0.768489
59.9152
-88.0828
0.993364
13.6498
4.56587
-29.5184
13.5987
-1.04186
19.4462
-16.6989
2.01058
-16.552
4.3931
-2.80555
1.6624
10.1731
-11.9805
-12.252
13.4637
19.9673
-4.56269
-38.0798
11.6839
1.05495
-8.42759
-22.3195
14.0377
10.5787
-49.2059
-70.3234
-25.9651
12.2165
0.184376
-6.66888
-29.9389
12.3918
22.7358
-16.7374
-2.86914
-1.50597
-10.5277
-27.3272
2.97003
15.9329
15.0402
17.7669
14.2784
11.6797
-13.2506
15.5107
15.8104
16.0928
1.11016
-67.4365
-25.588
14.8148
41.9794
-10.1259
14.3691
-38.1264
8.18601
11.7404
-3.02039
-1.28462
14.2085
11.2536
-35.3088
15.7785
-23.4987
-81.8073
-28.7989
12.8747
-2.72077
14.3459
0.612416
0.714885
-8.46633
-29.0622
0.812693
-64.3147
-28.9769
65.001
-15.2379
-71.2836
-18.6719
-0.0889269
1.08197
-31.753
0.867084
20.0548
-0.332126
-41.8587
-28.2318
-0.0315246
5.12509
-26.4296
-18.2581
-33.5578
53.3478
1.06443
-12.2368
-84.2159
0.221969
24.7378
-13.6925
19.0207
-96.3908
-21.5127
13.5855
0.0473687
0.574604
3.14149
1.28452
4.00887
2.73148
1.69783
10.1978
42.138
14.8078
28.0034
-24.3045
0.635217
23.5766
0.530671
1.52232
-4.10705
16.5639
-53.5206
1.00699
1.25088
0.765521
-20.033
1.60427
-84.15
0.29039
16.66
5.07474
-101.839
58.0533
-53.4357
-12.0593
43.5701
4.63933
15.3048
-3.53468
-18.9557
-66.5305
-16.014
54.4837
15.3487
-7.11844
-50.7019
-4.3244
2.16722
-28.2236
-14.7315
1.35422
-6.21041
14.733
15.4917
-41.0639
-42.8884
1.36702
10.8141
14.8304
-92.7417
14.7645
-25.3718
-8.70486
14.1523
15.6104
-11.9956
2.28557
56.494
-8.58434
8.55601
36.3388
34.76
12.3714
-71.0231
-20.955
-6.72044
-100.58
68.2529
15.7763
-31.075
15.628
27.9423
-86.808
6.10688
-97.6221
-28.1874
0.493119
25.3976
-1.28844
15.6159
14.9262
21.0089
-14.9269
-3.27942
-0.0591801
31.1919
0.553273
-0.524426
21.6054
-4.18888
2.15233
-8.85004
17.6852
-45.1896
-20.044
5.74049
-20.1214
-66.1095
0.141822
51.2482
-46.6044
-0.327533
32.8605
-3.77355
-4.3514
-14.4883
-17.4347
9.80429
-32.493
-11.2974
8.50656
6.67346
0.526032
-14.787
-3.54163
30.1147
-40.664
1.47439
20.9263
0.494214
-42.7034
-0.031561
0.774756
-3.97378
-13.6115
27.2378
2.87055
-5.12715
-4.3948
-95.8339
0.00772072
-4.82732
-43.2341
0.896449
-2.56894
62.5933
-0.363558
-10.1307
-54.5829
0.672834
6.12753
0.186435
-114.496
-59.5452
-19.2607
-56.5738
27.5321
2.45796
-7.51414
-36.0023
-59.8352
-2.1765
0.0858068
15.1166
0.962289
1.01938
5.40506
57.0331
16.6127
15.0434
-1.3706
0.410115
16.7325
16.0735
26.2522
15.4343
1.08583
19.2465
15.8122
13.3858
-5.8773
1.38611
14.1581
12.5919
-3.34765
15.0603
0.439945
0.666319
13.3832
16.9205
15.4532
-78.6255
14.7403
23.4349
1.58923
-0.286716
-22.4403
16.3037
15.7047
-72.4521
-46.3207
62.0724
18.5142
-76.9054
19.4933
1.17135
-69.362
4.61848
-74.334
-0.115995
-0.909848
15.2044
26.1565
13.0446
2.28958
1.63149
2.29724
11.849
10.669
1.38917
-8.90078
1.43939
-5.78984
64.4453
15.0414
-36.8813
-11.2598
-55.5464
0.665112
14.2269
-1.01311
16.4355
1.22586
15.3498
0.653718
-22.871
-14.9556
-30.103
0.516503
-3.03908
0.479271
5.33285
-18.2605
1.29609
-38.2829
1.09259
-33.3579
0.627139
-43.5157
-70.7389
2.30157
-0.248232
-37.7784
0.429074
-33.1146
14.1999
2.78214
0.973074
1.52675
3.29259
1.4304
-4.79186
-14.8562
-2.05365
14.3971
1.49152
14.1589
0.687243
14.2081
-28.8634
12.8245
-18.509
1.94793
0.713269
12.1707
0.773313
12.464
11.8854
1.65074
1.45487
15.7713
1.36674
0.0702835
2.15916
1.84962
-14.7752
-30.0722
-4.88977
1.1886
-36.7178
1.35741
0.254356
0.323689
0.372349
1.07734
1.65557
15.3684
14.3205
1.30533
0.360035
46.5429
1.37261
0.714932
1.56721
-34.8755
2.21921
-40.6726
-26.3386
-34.745
14.6921
0.258224
2.19305
0.16977
0.785711
-31.0525
-3.09575
0.862017
1.13089
2.2293
2.53685
-54.6667
2.47342
0.181572
-8.16309
0.367452
0.271048
0.197723
-0.366823
-0.215212
0.363093
0.513511
-3.3433
-6.86892
0.0504848
13.7389
0.987946
-1.74141
-0.708245
0.696714
1.96193
-3.51177
1.57978
0.708816
1.11286
0.587523
-2.83831
-0.0923084
1.12957
0.870739
0.248383
0.979138
-1.34635
-0.238808
-50.897
0.569717
-11.0301
1.65613
-0.752678
-50.6944
-0.0165462
2.03487
0.10854
0.224272
0.951999
1.31756
58.0874
2.23627
-9.11536
1.11974
0.41526
1.97771
0.671041
0.216306
1.15599
0.631203
0.614543
0.0472726
-2.59882
-7.56546
-29.3436
13.6516
-5.49515
-0.260438
0.324236
0.894237
-11.2036
-0.126593
0.239019
0.179158
-45.2999
0.00170991
1.56383
0.49857
0.174352
1.38271
-126.355
-0.0211767
0.77411
14.199
0.13706
-4.40111
24.7722
31.7649
-0.162556
9.60907
0.260489
1.49183
0.145108
0.215136
-43.9535
-45.1197
-0.0715039
0.546259
-30.2277
-0.124296
2.11231
-14.9387
0.041782
0.79167
7.05556
-0.576724
-1.96809
-0.253659
1.92217
21.631
0.477493
-0.321266
14.715
-14.1196
14.6808
-15.4114
-19.3752
-46.3279
-14.9322
0.761395
14.6245
-8.1507
14.8615
1.98226
18.5517
-22.9804
-16.4848
15.4702
-5.61121
15.3594
0.466484
0.962667
-51.7938
0.769494
0.778739
14.5042
14.8475
45.1805
48.4956
67.1111
-42.632
30.6231
15.2965
17.2877
25.5777
15.1065
0.524314
-0.0504846
0.525044
-0.526722
-52.1763
-51.8572
0.450982
1.3528
2.24395
-72.5744
-0.290496
0.840522
2.12111
-24.0691
-45.0404
0.793771
-29.9283
-1.26082
-21.1153
-20.4535
-13.0293
0.125706
0.302799
15.8539
-45.4422
-0.143287
16.1368
0.949074
0.0295086
-62.0192
-63.5937
-69.674
1.26366
-32.4045
19.6087
11.1012
6.91589
-6.11422
-73.404
-68.3373
-47.1325
65.661
-48.8033
38.7187
14.5013
-30.4616
15.445
-47.5187
15.138
-43.7316
14.3553
-16.3124
1.34416
-18.449
16.0107
15.5226
1.59204
14.9172
14.6315
35.5377
5.95657
15.8638
14.7177
-52.9314
-53.0348
-5.28858
-15.6046
-53.0022
-15.1442
0.89376
17.7324
-48.4049
-19.7254
-18.988
15.4576
-84.9147
9.25796
-45.9516
-100.208
-47.8137
-4.23898
17.9066
10.485
11.6515
15.1427
1.0386
-20.0572
1.76281
2.53605
0.706822
0.0578278
0.139035
0.948745
0.575394
-14.8773
0.0391975
0.00865807
-0.353429
1.0502
-11.1677
0.760327
0.917119
0.723018
1.04
-0.710771
-13.6637
0.802386
17.1463
-19.9518
-99.6949
-2.13111
-72.7295
-2.5355
-8.24726
-9.93778
38.9826
7.49854
10.7483
-1.56757
0.110811
0.167923
0.463817
0.0533314
-0.0668859
0.795329
0.560602
1.12143
1.43756
11.7962
-4.28944
1.03991
51.6524
-0.0264552
15.5885
-0.0231205
0.0309975
45.9995
-46.8601
28.3694
0.501744
1.18048
-15.7474
-55.6657
0.267025
1.31291
19.4702
-3.70885
2.56425
0.659727
-11.6198
14.8816
-0.509893
18.6722
59.4173
1.23394
1.58223
-2.57849
1.18624
1.30263
0.480819
1.04099
13.1328
15.5659
9.44031
14.6163
15.3494
8.0506
5.95501
-1.08799
-38.2707
8.70468
-4.04781
13.4355
14.4187
66.7458
6.87564
1.64352
2.96763
-34.3445
-20.6058
5.7728
18.9264
1.66373
35.4937
-2.08736
17.2771
-21.6379
52.0061
34.3577
-1.32511
1.81266
9.2028
-29.5399
-76.7001
-57.9143
1.94914
-4.72872
-78.0438
1.56586
-5.17931
-1.9017
-19.2051
-61.9829
1.47661
16.3553
-84.0992
14.1321
-1.912
1.57665
11.5679
-2.12051
13.9002
-9.87027
16.3864
12.4718
-45.2939
13.49
63.48
-11.2201
59.2918
34.5157
-56.4558
15.8721
16.0151
-41.0524
-5.2358
2.81248
-47.1213
-14.8646
-10.18
1.11644
1.24646
-45.8664
0.547905
8.06684
62.1791
-2.63845
8.76559
-1.46159
-8.313
10.2548
10.6841
-20.7297
-45.3246
-21.3693
-50.1444
0.51598
-7.20503
1.74813
-7.74936
-4.99955
1.00977
1.46963
-6.4016
0.0489729
-48.8345
-49.9329
0.222633
10.7837
0.813552
-5.41025
-13.2522
12.6466
11.2737
-6.88525
-50.0822
12.4319
-2.51865
-51.7776
3.83532
-18.2388
0.943538
-0.898717
-40.1143
4.4366
57.0795
-2.17516
2.84867
3.00272
1.64186
-94.7513
0.739487
0.921367
-2.43933
0.709224
13.5042
0.411786
-15.7171
13.3906
34.6821
15.4936
14.1226
14.0006
1.02247
0.739557
-1.72634
-3.41166
-94.7836
0.788959
-27.2023
-3.56056
-0.64548
-47.3336
-0.343974
0.738948
2.03136
-2.36586
-39.3008
-11.7904
15.032
45.1388
-0.491868
1.10284
-23.5452
-28.8385
0.0615533
-32.1551
37.9672
14.3174
-0.811284
41.5309
15.7514
-51.7658
19.4589
10.8171
52.9931
37.4849
15.5884
12.4221
65.8068
-47.854
1.10303
57.6656
8.83566
16.1923
-3.5433
16.6176
-14.9487
16.1586
63.7068
13.9252
15.3056
45.8848
12.3773
17.2557
-11.3339
0.140801
17.5145
-50.713
27.4404
-14.6886
-40.7625
-51.2971
-9.52684
15.7212
40.6981
17.2793
7.79894
15.8397
14.024
16.5983
1.69508
1.07783
45.5908
-27.4641
14.115
-16.1177
4.63632
13.6851
-7.99975
-53.6492
0.630664
-8.57027
14.6503
5.50809
0.683852
14.0851
-2.76217
1.21503
1.0187
-36.2268
5.2924
1.01288
-3.14939
13.522
0.767778
23.7318
1.43555
-5.804
29.7068
8.5648
21.2204
39.408
-52.5726
61.6378
45.9223
-20.0078
-43.5773
-54.1145
-14.7714
-51.6061
-52.0856
-16.2504
-12.3877
-19.5887
-54.1635
64.4525
1.9467
-52.2413
9.001
0.959584
-22.2887
-55.8988
-4.42506
-46.4881
-8.76069
-45.4035
-8.28589
43.9447
-27.2031
-17.398
-53.317
29.1349
-51.8297
1.29654
-63.1486
27.6281
11.0063
0.722675
1.27278
49.5394
8.63587
-33.966
-15.1761
15.6869
1.03112
-0.551016
-16.3438
-21.7897
0.633405
-0.0669652
20.213
-18.0423
-1.70066
1.2074
-12.7974
47.568
0.791955
8.16171
1.42029
7.02959
-30.1528
12.6802
10.8618
-12.237
1.48641
8.87045
4.03562
3.27416
67.7374
5.77951
-23.6256
-1.20055
4.15896
-89.3716
-94.0609
11.3997
12.1231
10.6203
14.2072
-13.9365
-3.58319
63.0943
-5.68016
14.1036
-17.2852
0.709329
-2.32998
11.0416
-5.21684
11.0688
-11.3176
-56.6055
-26.1714
38.2616
-17.0922
19.0947
11.8184
-40.6354
-51.0905
33.8883
-60.7711
12.6113
-44.2404
39.3878
-16.6516
27.3954
-6.61109
3.68262
0.233873
0.841772
-6.59453
-25.8565
3.62568
16.4094
-76.1542
15.9245
-10.6966
15.8259
0.862451
12.1575
2.5723
1.3996
0.356235
0.648432
8.62442
3.81583
17.6315
0.593288
-54.1399
37.8025
14.176
44.0163
15.8337
7.4304
13.6476
15.7
33.7885
1.5038
33.7313
0.898005
0.806296
-9.62509
0.794499
0.37174
-12.1949
-7.92979
-14.1133
0.246017
39.135
6.80827
32.7944
1.00869
16.167
18.1418
2.76123
0.490125
0.533104
3.30346
64.6517
0.415602
-1.15095
-47.6157
15.5052
15.9039
20.6306
15.578
-11.333
-17.7225
4.45412
0.168856
0.225706
-6.64978
38.7529
0.33183
-38.1859
1.84344
-16.8051
2.89856
11.5963
-16.2096
15.2658
14.8089
-8.56284
16.1724
1.01944
10.0472
-34.9164
19.782
59.825
1.971
1.87093
40.141
13.0473
3.22445
36.9209
10.2273
-6.28671
41.8186
-14.561
43.9703
-72.3317
7.22733
15.5214
1.8719
-3.23787
5.09717
1.24938
1.37025
0.338588
15.8488
-22.1661
6.97415
2.22487
-8.20475
2.42483
-2.98664
15.1006
15.5527
26.9216
7.62307
2.6862
-3.68733
1.8117
-4.77212
14.7068
1.93986
-10.014
65.5578
-10.272
1.71911
64.2823
15.0676
-93.3986
57.7389
2.39527
4.80908
36.4027
15.7932
-49.7599
40.0831
-49.3493
4.11129
-49.1692
-12.1476
-24.477
40.206
4.67549
65.5319
0.460193
-50.6028
-45.1809
-94.9092
-94.6492
-27.3751
-60.4876
-16.9918
-47.2998
63.3049
11.7136
13.2013
52.3391
26.9143
-27.651
11.3452
-30.051
53.3102
1.00197
13.5527
0.0910341
0.633945
0.372164
0.696737
64.4451
1.18805
0.720422
21.5075
1.67102
1.13541
14.0701
-2.56415
0.577028
-2.70207
0.710833
9.63807
33.3122
-31.4054
2.84358
4.21035
-1.31147
1.75189
-37.4264
-36.8823
-11.2442
2.13721
45.4427
16.3914
0.753798
-2.17494
7.36733
6.48365
0.855882
14.0314
14.7653
-56.2697
0.608988
16.2204
0.313801
5.51812
13.9641
0.293306
10.6254
13.9975
13.9448
-7.30845
13.147
14.5567
54.1829
31.9635
13.3716
29.4654
13.6936
1.74302
14.3711
0.755164
0.70161
2.69069
8.53329
-0.645786
22.2043
13.1289
-10.0561
31.2322
0.903185
11.9861
34.3925
-6.74782
37.0916
-14.4999
-33.3939
-56.4715
2.77872
0.596997
-10.2066
36.7139
-2.26769
0.955665
11.5163
3.63141
1.17751
0.981254
11.7983
15.6487
32.8159
10.0095
4.20668
14.4843
13.7789
0.092809
-21.9755
39.3834
-0.323431
10.9283
-4.0156
43.1987
14.7662
12.9979
-4.90076
-36.4671
-94.2523
15.0744
14.6722
-3.39594
-7.73987
-2.92726
-19.5204
37.3742
1.19009
1.93875
1.71068
-0.737635
20.0329
-8.19933
-0.314574
1.19222
36.7235
1.07714
-0.392889
26.483
-22.276
-15.4715
0.673048
-4.65385
16.6688
-0.125672
0.646485
15.4865
12.0267
-7.29688
25.2461
7.99703
-47.3082
0.145774
1.34352
-46.5923
-7.29281
16.4607
0.718382
10.3751
15.4785
67.4418
0.739741
-3.51381
-19.9116
-24.0334
-65.0499
-44.1189
0.725581
20.3346
53.488
-0.0682842
16.8676
15.4063
-35.1491
15.9217
8.66779
-18.0526
14.5997
21.5451
-9.51257
11.131
-32.3969
-53.4443
17.892
22.6432
-48.3479
17.981
13.9694
5.29493
16.5423
14.9999
2.71241
-22.9511
-1.43037
19.5783
17.1168
17.696
15.6663
12.5812
0.0195346
45.4468
-0.100027
0.141605
2.48557
41.149
15.5478
-5.47444
7.01783
62.2271
-13.6733
-18.2085
-42.2195
5.75705
-0.705356
-34.6962
-10.1762
17.7446
-8.061
-0.110128
0.0235583
-2.78295
14.4651
13.8534
11.0786
0.129889
-0.338828
-11.3765
-0.364525
-6.11031
2.21359
1.86768
-0.0989746
1.72298
-0.789387
15.3985
-26.3338
15.3811
1.74599
2.1916
15.4406
13.9771
14.6541
2.40324
2.62773
-2.93369
5.95646
1.94795
3.42148
-46.1805
3.6822
-4.87481
-53.9892
-47.9168
-48.3001
17.4605
-63.0899
20.1309
-46.2285
1.48231
-52.5095
-0.0432235
4.82397
4.44129
-0.198567
0.38711
4.82122
1.41686
17.5409
1.76576
18.6773
-0.596744
-5.83367
-94.2457
-50.7016
27.8813
34.1215
-38.6418
-26.928
-25.8398
-67.8702
-51.3528
-2.4875
-52.1729
1.97806
1.56291
-46.9059
-81.4891
-7.28502
2.26108
16.074
54.5354
-1.17466
-81.8751
2.33787
7.52249
1.25297
2.02249
-29.087
3.49452
1.72274
1.81358
4.62485
10.6676
2.31384
0.746693
-73.1679
-76.121
-24.5539
30.1651
-30.1859
15.1016
0.537916
16.8181
9.57466
6.6038
27.821
14.5041
30.1239
-0.366746
6.81964
8.15056
2.52583
5.07143
-3.97747
10.0684
15.7463
10.4525
44.5569
3.10918
24.0629
-44.2981
-0.258812
-34.8175
40.2969
13.251
12.5231
8.17999
-21.3253
-5.13311
12.8123
-32.2554
10.5408
6.55837
-0.275419
18.04
12.2652
-1.22712
-7.29035
-24.1034
15.9291
0.0687819
-38.2427
3.10785
-29.9949
-34.5199
15.6582
-72.3374
-0.642189
35.4351
-2.59677
15.0896
13.4259
18.8123
-0.75233
15.1469
-51.5355
-3.17912
-50.1418
-1.83297
-6.26262
24.9068
-51.5796
-7.64138
1.33698
3.11881
23.4086
-52.2976
15.2903
2.7784
-22.909
0.796215
1.74944
14.1756
-100.424
-0.547184
7.05086
1.10681
2.08964
14.2791
12.3693
1.90482
13.8927
-7.58134
14.2732
-87.8258
13.7363
-55.0773
-16.0661
-0.533836
10.4696
-1.27226
-5.73636
13.2844
-0.67449
1.60619
-2.0092
59.9903
0.365655
41.2603
-0.919579
0.822982
-0.676439
-0.577352
15.6305
14.0407
15.8364
0.958607
1.15989
15.2217
-3.89926
1.01828
0.507994
-13.0521
4.92046
-0.520073
14.9561
-28.1064
-65.4505
0.00853894
-0.689506
0.428603
-19.8355
0.294464
0.272911
1.81164
0.816712
2.04494
1.54133
0.157892
0.494998
14.7378
-22.7135
-30.4519
16.1583
54.1789
19.1346
14.6853
-0.12953
15.3849
47.9217
0.0786037
43.6792
2.62095
-0.761815
11.3307
36.2707
1.26374
-0.00720817
58.1479
15.9885
29.0962
-2.2904
-6.46994
0.356167
-0.00650653
-0.148843
0.73957
4.87908
1.41078
56.3075
0.807832
1.10319
0.65835
14.9317
-17.6926
-8.65048
-0.430789
1.70355
2.39172
0.635728
14.8742
-16.5884
27.7345
22.0832
1.11
0.566556
48.7151
-7.38197
47.6442
32.6504
13.4919
14.9294
0.557202
-2.3261
4.11471
-5.30936
-5.36441
15.381
-94.0499
1.38789
0.967869
-0.0445546
13.469
1.7195
55.7203
0.0261574
50.6278
1.18707
-62.6002
-6.30531
-6.57571
1.48428
-33.0808
0.507169
37.3667
14.94
38.1347
0.949374
-8.98694
6.61633
-33.7952
30.0563
14.5772
14.4826
1.73691
-13.9511
14.6258
-85.6455
-8.92468
15.2705
39.6857
14.2859
-12.9014
49.4166
6.38461
-0.79822
48.0541
36.9323
4.38351
5.71905
-54.8304
47.1446
12.3754
46.564
-0.530698
-48.9278
31.3539
1.11425
0.152215
-0.142685
0.661301
2.24232
16.6283
-26.4369
2.25559
-17.246
19.4243
44.1193
-8.07004
40.7045
0.10417
0.060242
-5.32391
61.4943
-8.49347
54.5171
18.1502
7.17928
28.999
9.31249
21.7062
-0.0723219
-0.231909
0.0390089
-0.106271
10.8472
-6.36031
16.6162
-24.7281
0.565872
-22.4232
16.5627
-11.8364
52.5064
4.784
3.39481
0.22486
46.5739
-0.161628
25.5539
1.45272
11.6206
-2.50377
3.63186
38.1047
40.882
-6.03837
-0.0108795
2.0056
-27.4206
-52.6549
-4.67468
58.2022
33.7129
61.1157
62.9107
51.6726
-48.1737
2.63595
51.6104
-38.2335
0.0929614
7.69291
0.483088
-14.9584
-26.538
1.18609
4.23841
-1.31675
-0.404611
13.9884
-29.2792
45.5078
-32.5885
14.2973
2.55363
13.6262
5.45586
-1.15138
-89.4411
1.92603
-18.5818
-7.78318
14.0626
-73.1964
-96.0212
13.8951
-3.8097
-5.70314
20.325
13.8305
-5.76167
28.8058
-72.1294
-17.7014
-25.8476
42.8647
-24.7053
8.38356
28.9873
8.43455
-35.4529
-38.8687
8.33319
1.58568
56.5325
3.31782
-26.1068
0.970737
-7.19341
-46.5824
-3.63955
-48.3736
1.33958
-49.3833
0.272438
-48.1594
13.6564
-12.6838
57.1732
-50.7385
26.5585
-17.9102
-52.3363
-8.55483
-18.9362
38.4629
36.2049
-20.4338
14.3283
22.4872
18.9111
8.71697
16.048
-3.22828
-51.2839
-142.08
-53.6203
23.3229
26.6847
-23.6109
29.8605
-46.5068
-4.8931
10.1019
4.79798
-34.8866
15.6263
-49.7931
18.1071
37.4782
38.5133
67.268
36.7445
-14.2385
-42.2817
52.9257
15.7302
41.2598
-31.8133
-50.4183
54.4176
32.6352
-0.0907502
24.5846
21.0612
-29.2237
-49.6555
-95.3682
26.233
11.6534
42.0429
-38.4957
51.7596
34.4191
15.5918
43.34
-69.3047
9.78518
5.68983
16.5208
-3.67825
-22.927
-59.0268
49.9773
-0.655945
-33.6863
-72.1931
50.2492
49.5203
47.5095
-42.3027
-77.1152
49.9002
-9.06056
-40.5512
50.7135
2.63429
-3.76673
14.4936
0.779722
3.04613
-2.37822
48.1965
-15.7089
-0.901439
2.93362
2.80073
3.6932
1.74479
14.0757
-19.93
-0.985986
2.59726
-37.5407
-56.5282
-53.1997
-8.34053
3.57339
-7.03995
-25.8291
-16.5035
2.83552
-47.4314
5.9748
-46.0285
-47.6955
47.8925
24.8267
29.9813
-0.457045
13.3991
-50.9287
-13.0727
-3.62005
-50.8246
-0.198643
-42.1341
-26.1946
-13.3057
-27.2016
2.98373
18.7752
14.7291
17.8666
14.4591
46.3253
0.885438
-0.256951
-0.0307197
17.9796
-18.6268
-61.8757
-40.1486
18.0324
43.3853
27.2313
35.5587
7.43716
-66.5122
-1.16848
18.0338
9.20067
1.34017
22.6918
13.1595
-4.40079
18.2325
-4.63292
-4.14182
3.72249
19.1379
40.8293
-17.5719
61.0036
-78.0945
23.4365
-89.1217
-57.5664
-4.4792
13.0045
42.9092
-0.864054
-25.3899
1.00268
18.0088
-15.6709
-56.5996
23.4919
51.8149
67.937
-43.3913
-12.8572
-41.4758
17.8603
3.95616
-6.36971
13.5521
9.91726
-12.9801
6.75044
14.345
-26.6241
-2.62233
-55.5176
1.65191
-73.7436
0.14152
14.6043
-86.8667
-7.30201
-0.235745
66.6385
12.0733
55.3753
6.29269
-45.9367
20.7256
9.3092
40.0174
61.4699
18.9529
40.5936
-0.289112
-30.9571
15.9546
15.0187
3.07113
15.2898
-22.2991
4.18053
-2.33852
16.1057
6.86282
-10.8011
8.05864
12.714
-1.17586
-1.85919
-21.0681
0.0620034
16.0198
-0.166786
17.0683
0.169207
-2.95827
15.0333
-11.4695
14.6255
-42.1183
-0.0303452
36.265
-5.14028
42.3538
0.330482
2.56717
0.127074
0.00895449
-3.09263
6.35069
19.2931
40.9229
29.7077
-71.877
-37.1705
51.9189
31.0419
24.333
12.4419
0.0938889
-0.129218
-54.7971
52.1314
25.7929
21.5169
1.03989
22.1331
-0.0114915
0.151867
-9.51154
-15.7572
-23.6587
-51.0992
14.6629
1.33846
-12.1394
15.0769
43.2886
14.2637
-5.84923
14.2539
-2.33857
-59.0239
-10.6916
0.124602
10.3574
-0.294663
-1.48094
-45.6091
14.8758
-46.7736
29.8146
-57.0677
-18.5643
-15.8463
0.244784
25.5104
10.5419
16.0153
38.0784
15.6383
-2.07806
13.2144
14.4329
14.7031
15.4065
-25.7035
15.3671
16.8551
47.6474
15.4486
-11.0055
15.9023
15.7219
-48.665
-57.6506
-15.171
-51.4882
-46.2609
15.0922
61.2004
-62.317
-7.5187
19.3213
26.0565
-46.6737
1.01309
0.305392
13.0098
-11.8319
-55.0962
-30.6559
39.7507
7.34919
0.927134
11.5525
-63.9478
32.1366
12.255
-39.4556
-72.1832
-60.3248
68.225
16.8009
12.8045
10.883
17.0573
-59.5896
21.0248
14.0015
22.7226
-19.4309
19.2387
28.4082
50.6546
42.3792
13.1566
-7.24527
26.9789
-0.753223
0.826121
0.466285
33.9662
-18.1992
-13.2547
0.448624
61.5411
0.436406
-62.7103
32.2309
30.9013
45.4467
-56.266
-31.4081
-51.4255
38.5124
-3.49275
-18.9774
-11.0299
13.504
3.31753
17.2757
1.56874
25.587
1.46724
14.2269
1.54045
-2.70367
0.207636
41.9087
9.99359
5.61896
-14.0034
9.04845
1.31389
9.86052
2.37345
-24.7198
-32.5528
-9.74414
7.397
42.2774
1.2849
65.146
-39.9036
64.2751
60.2242
1.43995
4.87945
6.01733
1.04435
1.44915
-71.0134
18.6949
-40.4267
-28.2327
7.60385
2.54412
-47.8075
7.20366
7.1026
14.2407
10.0996
1.06267
-45.9609
1.32422
1.58062
-0.636271
1.47099
1.03096
1.47288
1.49871
0.589436
6.76464
-39.1013
-0.567763
1.11933
-5.753
-2.06314
24.3983
-12.7934
15.674
15.7268
-0.332128
-0.196743
-3.18123
-6.3392
8.24811
1.30603
5.68795
9.67171
-0.371872
60.6551
0.73776
1.79099
0.138613
0.00551208
-16.5489
0.0410598
-54.4038
2.1625
54.7463
5.59818
0.313336
-14.545
-7.89324
1.16331
-22.2982
2.85144
0.132379
8.45782
-53.6164
0.238826
5.77262
28.321
43.4953
-0.799728
10.4343
12.3749
-28.8709
-12.7302
0.0727716
52.5272
-43.3283
-10.9546
-3.44371
56.1182
-4.99702
-1.44796
34.2865
-48.9817
7.00112
0.0687233
0.287222
0.283174
0.0290736
-0.38313
-54.0915
19.8357
-0.422388
-38.1004
8.09514
0.36871
-0.960296
3.97951
20.9652
-31.8911
8.47147
18.5481
-14.639
2.65044
15.8692
65.5702
17.5733
-75.071
46.4017
20.5546
32.0169
0.411215
52.6284
0.450193
14.2238
26.2261
-0.0366346
-29.1209
-60.8833
0.986838
0.391742
-116.334
27.7429
-54.0856
3.39593
-3.25367
-0.88218
15.4234
31.6053
57.062
15.6391
57.8962
15.6685
-67.0335
-57.1635
-51.9144
-56.8694
-2.27105
1.12911
31.3534
16.0609