/*--------------------------------*- C++ -*----------------------------------*\
| =========                 |                                                 |
| \\      /  F ield         | OpenFOAM: The Open Source CFD Toolbox           |
|  \\    /   O peration     | Version:  2506                                  |
|   \\  /    A nd           | Website:  www.openfoam.com                      |
|    \\/     M anipulation  |                                                 |
\*---------------------------------------------------------------------------*/
FoamFile
{
    version     2.0;
    format      ascii;
    arch        "LSB;label=32;scalar=64";
    class       surfaceScalarField;
    location    "0.0207921";
    object      phi;
}
// * * * * * * * * * * * * * * * * * * * * * * * * * * * * * * * * * * * * * //

dimensions      [0 3 -1 0 0 0 0];

oriented        oriented;

internalField   nonuniform List<scalar> 
92401
(
0.14753
-0.0950889
-0.00752667
-0.0449144
-0.0634903
0.0601253
0.0378967
-0.0345317
0.0222231
-0.0389489
0.0425443
-0.0258185
0.00630318
-0.0123443
0.0122715
-0.00623043
0.00132381
-0.000467135
-0.00561033
0.00475365
0.0194392
0.00983541
-0.0256029
-0.00367175
0.00543568
-0.00447896
0.0003671
0.0323974
-0.0258778
0.0129196
0.0487878
-0.038934
0.0319538
-0.0418075
0.000710596
-0.00118535
-0.000322895
0.000797651
0.00478737
-0.0417946
0.0383223
0.0256661
0.0235209
-0.0875093
-0.0164345
0.0104768
-0.000107812
0.0060656
-0.0342742
-0.0399856
-0.016568
-0.0161927
0.0554045
-0.0226439
0.00158131
-0.0641548
0.0625735
-0.00221564
-0.00765559
0.00197374
0.00333327
0.00234859
-0.000922272
0.00140713
0.000349382
-0.000834236
-0.00464625
0.0101861
8.51175e-05
-0.00562498
0.0158813
-0.00552566
-0.00458965
-0.00576599
-0.0403619
0.0084322
0.0366279
-0.00469818
-0.0393297
0.010876
-0.0555971
-0.0538116
-0.00350423
0.0556259
0.00168995
0.091404
-0.0896302
0.0233384
-0.0251122
0.0502247
0.0603805
-0.0714088
-0.0391965
-0.0323561
0.0509206
-0.0578942
-0.00252966
-0.00106112
0.00386316
-0.000272382
0.0315411
-0.0635382
-0.000359029
0.0615818
-0.0612709
-0.0323159
0.032005
0.0125688
-0.0171974
0.000915437
0.00371326
-0.036669
0.106816
0.0605705
-0.130718
-0.0842561
0.108862
0.00750941
-0.0321157
-0.130037
0.0317243
0.0301138
0.068199
0.0156932
-0.0620544
0.0372824
0.00907882
0.0618159
0.0102495
-0.0563722
-0.0442548
0.0104605
0.00215551
0.0316388
-0.0501528
-0.0413583
0.0650383
0.0264728
-0.033506
0.0399438
-0.0137537
0.00731584
-0.0206293
-0.101554
0.0655409
0.0566426
-0.0862181
0.0857279
0.000490182
0.0317694
0.00112944
-0.0759891
0.0430903
-0.00129728
0.0286282
-0.0305496
0.00321868
0.0274004
-0.0504493
0.0230488
0.000174156
-1.85618e-05
-6.82797e-05
-8.73142e-05
-0.000217975
-0.0592116
0.0594296
-0.0688958
0.0429334
0.0626135
-0.036651
0.0899607
-0.0256394
-0.0126609
-0.0516604
-0.00071919
0.0702962
0.00122518
-0.0708022
-0.0468806
0.0732603
0.038171
-0.0645508
0.000498681
0.00099682
-0.000344267
-0.00115123
-0.00216774
-0.00392824
0.000706718
0.00538926
-0.0384336
0.0843853
-0.0462196
0.000267845
0.000374464
-0.000866796
-0.000685661
0.00117799
-0.0542144
0.0539354
0.000278991
0.0749944
-0.00698635
-0.019746
-0.0482621
-0.097766
0.0888927
0.00630974
0.00256355
-0.054671
0.0267626
0.0119844
0.0159241
-0.00091194
-0.0160277
0.00634855
0.0105911
-0.0129406
0.0253159
0.0381339
-0.0505092
0.00102166
-0.000353664
-0.000293536
4.3877e-05
1.87487e-05
0.000799037
-0.000861663
0.00124264
0.000231916
-0.000847569
-0.000626988
0.00401657
-0.00902321
0.00522431
-0.000217676
0.0681516
0.00503061
-0.0174644
-0.0557178
-0.0148299
-0.00451695
0.0100365
0.00931034
-0.03997
-0.0527522
-0.0557277
0.14845
0.00370512
-0.0331179
-0.00380203
0.0332148
-0.000427106
0.000552359
0.000707563
-0.000832815
0.00527046
0.00382304
-0.0285236
0.0194301
0.0184839
-0.00701304
-0.00932108
-0.00214977
0.0410172
-0.075919
-0.0275301
0.0624319
-0.0279734
-0.00345938
0.0101837
0.0212491
0.0118005
0.00791144
0.0128996
-0.0326115
-0.00106517
-0.000435295
-3.72116e-05
0.00153768
0.0246097
-0.00928856
0.0367414
-0.00132668
0.000924151
-0.00155869
0.00196122
0.0449629
-0.0333892
-0.0683454
0.0567717
0.000622617
-0.000277012
-0.000345605
-0.00105485
-4.69626e-05
0.000554813
0.000547004
0.00101985
-0.000624858
0.00121899
-0.00161398
0.0224083
-0.0218858
-0.0628934
0.0623709
0.00123716
-0.0128363
0.0025811
0.00901803
0.0440757
0.0566431
0.0188043
-0.119523
-0.116423
0.0249028
0.129242
-0.0377213
-0.0054585
-0.043495
0.00422265
0.0447308
0.0522183
-0.0290362
0.02551
-0.0486921
0.0261346
-0.00416708
-0.151936
0.129968
0.00605143
0.0159518
-0.0255552
0.00355195
0.000690959
-0.000242469
-0.000691612
0.000243122
0.037479
0.0128419
-0.00205108
-0.0482698
-0.00196767
0.082369
-0.0841405
0.00373918
-0.0189844
0.0494768
-0.115383
0.0848902
0.0415333
0.00496058
-0.0519524
0.04197
-0.000436751
-0.002393
-0.0291877
0.0417086
-0.0101279
0.0709925
0.0167386
-0.0312984
-0.0564328
0.127996
-0.141049
-0.0294241
0.0424774
-0.0141483
-0.0458858
0.0576411
-0.0813335
0.000630616
0.0807029
0.00165468
-0.0992945
0.165242
-0.0676022
-0.00235187
0.00332086
-0.000502082
-0.000466905
0.0885766
-0.148638
0.030909
0.0291519
0.00159134
-0.000257663
0.000756962
-0.00209064
-0.0851176
0.143407
-0.105511
0.0472213
0.0283784
0.00367902
-0.0397503
0.00769287
0.08724
-0.0170934
-0.0791593
0.00901261
0.00611376
0.0311086
-0.0513707
0.0320577
0.0290324
-0.135744
0.0746534
0.0850981
0.113529
-0.0778409
-0.120787
0.000921561
-7.61149e-05
-0.00217794
0.00133249
-0.0952361
-0.0281528
0.111104
0.0122847
0.00223198
-0.0056573
0.0144859
-0.0110606
-0.0138643
-0.033645
0.0575931
-0.0100839
-0.00522874
0.0164308
-0.0138454
0.00264337
0.00028981
-0.00062029
-0.000499223
0.000829703
0.0209789
-0.0250057
-0.00120198
-0.00172101
-0.000754809
0.00142395
0.00105187
-0.0571935
0.059516
-0.00232249
-0.00239183
-0.00603126
-0.0019987
0.0104218
-0.0356715
0.0281273
-0.00632013
0.0191636
-0.0477997
-0.05562
-0.0512675
0.0418931
0.0979605
-0.0885861
-0.00743475
-0.00160374
0.00481208
0.0042264
0.0470486
0.0121461
0.00137122
-0.0605659
0.000299342
-0.00883614
0.00671703
0.00181977
-0.0375144
-0.0546363
0.0116648
0.0804859
0.0646354
-0.0387697
0.0262533
-0.052119
-0.00843265
0.0591648
-0.0581148
0.0073826
-0.0597498
-0.0340433
0.0089332
0.0848599
0.0172083
0.0051553
-0.0339812
0.0116176
0.0595946
-0.0578851
-0.00170947
0.00196684
0.00186932
-0.00112105
-0.00271511
0.0414499
-0.043702
0.00225208
-0.0499005
-0.0424839
0.108728
-0.016344
0.000881036
-0.00960451
0.0093437
-0.000620226
0.00315251
0.00593692
0.00236753
-0.011457
0.00157461
0.00613738
-0.00741265
-0.025946
-0.0568086
-0.0092411
0.0919957
0.0250779
-0.00704984
0.0165551
-0.0345832
-0.08511
0.0929244
-0.102909
0.095095
0.0736657
-0.049315
-0.0243507
0.00128136
-0.0342013
-0.0100418
0.0429618
0.00779193
-0.00561162
-0.00865121
0.0064709
0.045736
-0.0691571
-0.0613811
0.0848021
0.074604
-0.0648512
0.0289034
-0.0386563
-0.0131906
-0.00819578
0.0313922
-0.0100058
-0.0592872
-0.0874688
0.0569241
0.0898319
-0.0410235
0.0534689
-0.011164
0.0983027
-0.0489613
-0.0493414
-0.00383038
0.014497
-0.00287474
0.000930886
0.000620644
-0.000690324
-0.000861206
0.0481538
-0.0166961
-0.00527185
-0.0261859
0.00350548
-0.00174835
-0.000524074
-0.00123306
0.00555751
-0.00977759
0.00851685
-0.00429677
0.0726386
-0.0423303
0.0256745
-0.0559829
0.0084029
-0.000187217
-0.00692284
-0.00129284
0.001592
-0.00055524
-0.00103676
-0.063248
0.063605
-0.000357038
0.0111199
0.00497962
-0.0951305
0.0790309
-0.0108696
0.0137883
-0.0100593
0.0071406
-0.0727666
0.0165109
0.0833498
-0.0270941
0.0190932
-0.0977725
0.0749531
0.00372621
-0.051657
0.0418016
-0.00791948
0.0177748
0.00858859
-0.00175435
-0.00289158
-0.00394267
8.2341e-05
-0.00100513
0.000922784
0.0239226
0.172493
-0.240803
0.0443877
0.000230127
-0.000275449
-0.0243487
0.0606913
-0.0535102
0.0171676
-9.79234e-05
0.00511977
-0.00417165
-0.000850191
0.000824495
0.00181731
-0.00326666
-0.0721069
0.000637647
0.0714693
-0.0331368
0.114737
-0.048182
-0.0334182
0.000120106
0.00102941
0.00932491
-0.0104744
-0.00117514
0.0910171
-0.0898419
0.00232842
-0.00162993
-0.00110097
0.000402482
0.00128111
0.000584688
-0.0005999
-0.0012659
-0.0366323
-0.0016753
0.0324009
0.0189699
-0.0643115
-0.0721109
-0.01621
0.00562817
0.0826927
-0.000573407
0.00185452
-0.0987959
-0.0416202
0.112442
0.0279739
0.0273097
0.167051
-0.0840057
-0.0577361
-0.025309
-0.0177578
0.118766
-0.0439664
-0.0570417
0.041881
0.0296353
0.0370815
-0.108598
0.105929
-0.246809
0.106733
0.0341459
0.00150603
-0.0013178
-0.00143875
0.00125052
-0.0122059
-0.0358849
0.0563532
-0.00826246
0.0250846
0.0406161
-0.0253241
-0.0403766
-0.0353699
-0.0264485
-0.0195079
0.0813263
-0.0546778
-0.0127956
0.0552676
0.000758083
-0.0116951
0.00766212
0.00327487
0.0556437
-0.0287014
-0.0510557
0.0241135
-0.0882499
0.103963
-0.0502261
0.0345133
0.0156818
-0.022583
0.00700988
-0.000108688
0.0521367
-0.0607095
0.0642165
-0.0568794
-0.00327399
-0.014877
0.0750304
-0.00531822
-0.0122621
0.0020868
0.0154935
-0.000791182
0.0575953
-0.0571862
0.000382116
0.13606
-0.0545177
-0.00238724
-0.079155
0.0586186
-0.00765565
-0.0480427
-0.00292018
0.0533903
-0.0211812
-0.0757672
0.0435581
-0.00945333
-0.00199828
0.0144786
-0.00302702
0.00522213
-0.00170221
-0.00476847
0.00124855
0.0020728
-0.0425593
0.0392362
0.00125034
-0.000951333
-0.0863274
0.00403534
0.0189981
-0.0127696
-0.0627903
0.0476343
0.015156
-0.0599816
-0.0164995
0.0101413
0.0663398
-0.0983429
-0.00375487
0.103972
-0.00187379
0.00380316
0.0228265
-0.0125043
-0.0141254
-0.0697608
0.14993
-0.0667972
-0.0133717
-0.00506116
0.0139861
0.0224676
-0.0313925
-0.0504798
0.0960714
0.0376799
-0.0832715
0.0272689
0.00226196
-0.014544
-0.0149869
-0.0354605
0.0365477
0.000985586
-0.00379198
0.00680674
-0.009624
0.00660924
-0.000569346
-0.0040174
0.0101443
0.0369546
0.0378871
-0.0748418
0.00108711
-0.00183446
7.17664e-05
0.000675592
0.0188956
0.00807109
-0.0182406
-0.00872607
0.0225494
0.0087678
-0.00283703
-0.0284802
-0.0510015
-0.000937158
0.00681898
0.0451197
0.000386999
-0.0429463
-0.0009158
0.000582608
0.0014203
-0.0525246
0.0377616
0.0514665
-0.0367036
-0.0432593
0.0290924
0.0183113
-0.0041444
0.00131445
-0.00307588
-0.00953355
0.011295
-0.00820865
-0.00485011
-0.00367214
0.0167309
-0.0424517
-0.00450417
0.0114954
0.0726589
0.0401299
-0.0730051
-0.0397838
-0.0438961
-1.83083e-05
0.0439144
0.0868906
-0.0484461
0.0586557
0.00375594
-0.00788553
-0.0384419
0.0425715
0.0361993
0.0111145
-0.00569167
-0.0416221
-0.000477356
0.000294456
0.000980954
-0.000798055
-0.016731
-0.0447955
0.0615265
-0.000275834
-0.00125638
-0.00446409
0.0321185
-0.0238984
0.0060078
0.0279094
-0.0418027
0.0961234
-0.0899288
-0.00127808
-0.00491652
-0.0215095
0.100291
-0.0187826
-0.0599985
-0.0312172
0.00672941
0.0155648
0.00892297
-0.0390041
0.0352195
0.0144128
-0.0106282
0.0317764
-0.0251185
0.0013748
-0.00803272
0.0187955
0.0716589
-0.120873
0.0304182
0.0746514
-0.0734526
-0.0240137
0.022815
-0.142702
0.00310157
0.00276387
0.136836
0.0301426
0.0127415
-0.0413413
-0.00154284
0.0400123
-0.0580562
0.0193412
-0.00129733
0.00204142
-0.00121164
0.000234763
-0.00106454
-0.0142877
-0.00157717
0.0736461
-0.0415336
0.0189587
-0.0510711
-0.0113388
0.0470641
0.000601424
-0.0363266
0.00531741
0.096625
-0.0930466
-0.0088958
0.0506539
-0.0983387
0.0573107
-0.00962591
-0.0495473
-0.000518895
0.0387273
0.0154127
-0.00470746
0.00882201
-0.0195272
-0.0235954
0.0481458
-0.0133547
-0.0111958
-0.0495076
-3.97113e-05
-0.00607614
-0.122658
0.176321
-0.0475874
0.00982012
0.00895315
-0.0617092
0.0429359
0.050569
0.00541519
-0.0461641
-0.0121903
0.00647763
-0.00355596
0.00926863
-0.0552943
0.000416457
0.0548778
0.109299
0.0427594
-0.134597
-0.0174611
-0.00885045
0.000376985
-0.00371685
0.019012
-0.113085
-0.0235038
0.117577
0.0124492
0.0656476
-0.0691436
0.00289359
-0.0537382
-0.0108646
0.000464002
0.00180931
-0.00254915
0.00193329
-0.00178734
0.000318057
-0.0511693
0.026598
0.0738552
-0.0492839
-0.00188809
0.000946257
0.000894873
-0.0352082
-0.00783245
0.0459342
0.000227023
-0.000305803
0.000330962
-0.000904228
7.44374e-05
0.000498829
8.88829e-05
0.00207143
-0.00164969
0.0013198
4.4048e-05
0.000285846
0.000432089
-0.000224795
0.000814369
0.10416
0.120093
-0.0767231
0.000184437
-0.000952317
0.00119997
-0.0529199
0.0532855
-0.000365556
-0.0104097
0.0751529
-0.0702539
0.00551073
0.00179659
-0.0188419
0.00499431
0.012051
-0.0596311
-0.00369851
-0.0168942
0.00421311
0.0470405
-0.0343595
-0.0644537
0.000359582
0.0640941
-0.00622888
-0.0158312
-0.0123421
0.0344021
0.000242323
-0.00032284
-0.000438279
0.000518796
-0.0040082
-0.00758051
0.008957
0.00263172
0.0549785
0.0438934
-0.0174889
0.0470045
0.0883968
-0.0375842
-0.0978171
-0.0117592
-0.0440839
-0.0214772
0.021057
-0.0566733
0.0570935
-0.00991639
0.0285444
-0.00768604
-0.010942
-0.0155382
-0.0131636
0.0142041
0.0144977
0.0972305
-0.0950714
0.0176434
-0.0198025
0.00102104
-0.0042471
-0.000238095
0.00346416
0.000466779
-0.0651297
0.064663
-0.0729583
0.00345029
0.0662115
0.00329647
0.0398529
0.0376016
-0.0774544
0.0191248
-0.0600864
0.0292024
0.0023197
-0.00142866
0.000911878
-0.00180292
-2.94837e-05
-0.000530621
0.00191644
-0.00135634
-6.11355e-05
0.000407141
-0.000906258
0.000560253
0.063758
0.0554695
-0.0392107
-0.0800169
0.00584936
-0.0858008
0.0819652
-0.00201383
-0.0134906
0.000106152
0.0265062
-0.0131218
0.0517119
-0.0515339
0.0196426
-0.0198207
-0.000454571
0.00123638
-0.000606844
-0.000174965
0.0203271
0.0483033
-0.0495056
-0.0475628
-0.00171009
0.000845429
0.00152961
-0.000664951
-3.82512e-05
0.079865
-0.0798267
-0.0500537
-0.0151697
-0.0232615
0.088485
-0.0504114
0.000357705
0.0118554
0.0171399
0.0158405
-0.0448358
0.000413402
-0.00277336
0.000144342
0.00221562
-0.0016195
-0.000694483
0.000603897
-0.108712
-0.00765368
-0.0448783
0.161244
-0.0103785
0.00680938
0.139369
-0.1358
-0.0385251
0.0428569
-0.0637694
0.0594376
-0.0780987
0.0761747
0.00192392
0.00166869
-0.0508822
-0.0301656
0.0654554
0.0187765
-0.00546956
-0.0787623
0.0510643
0.0918711
-0.154927
0.0119913
0.0428631
0.0148313
0.032608
-0.0903024
0.104468
-0.107504
0.042889
-0.00334274
0.0126473
-0.0114999
0.00219533
-0.00235663
0.000387973
-0.000873178
0.00284183
-0.0026464
-0.0055108
0.00147608
0.00668113
0.060379
-0.00577079
-0.0179185
-0.0366898
-0.0565122
0.0284015
0.0281106
-0.0920001
-0.00730438
0.0122327
0.000209285
-0.000277523
-0.00228839
-0.117414
0.0235163
0.00665813
0.0872397
0.000714348
-0.0535668
-0.0097934
0.0626459
0.0460793
0.0280471
-0.101111
0.0269851
0.0385571
-0.0431778
-0.0194176
0.0240383
0.047403
-0.0590498
0.0502039
0.0299947
-0.0561759
0.0500939
-0.0239127
0.0340389
-0.0357864
0.000924145
0.000823353
0.0156968
-0.144081
0.0918413
0.0365424
0.000874548
-0.0599308
-0.00338453
0.05282
-7.75767e-05
-0.107413
-0.0336593
-0.00947492
0.00658433
0.0365499
-0.0481764
0.0448067
0.0497489
-0.0463792
-0.0419001
0.0816085
-0.0397084
0.010438
-0.101788
0.0481724
-0.0169909
0.00770133
0.0241408
-0.0148513
-0.088197
0.0933356
0.0370556
-0.0421941
0.0574779
0.0338467
-0.0808508
-0.0104738
-0.0482515
0.1412
0.00548271
-0.0984315
-0.000360796
0.00313133
0.00333423
-0.00610477
0.0548391
-0.0731175
0.0836268
-0.0653484
0.00886957
-0.0403975
-0.0086617
0.0401896
-0.043244
0.0298638
0.103732
-0.0903521
-0.0504128
-0.0271351
0.0550425
0.0225054
-0.0105004
-0.000750399
0.00673589
0.00451493
-0.00922759
0.0204829
-0.0173519
0.00609661
0.000190745
0.0736634
-0.0738541
0.0148174
-0.04411
-0.0188838
0.0486349
-0.0335771
-0.00208288
-0.0129749
0.00144282
-0.0242507
-0.020601
0.0434089
0.0355747
-0.0351832
-0.000391443
0.062782
-0.0414123
0.0625528
-0.0839225
-0.0995221
0.097033
0.0997196
0.000247741
-0.0107898
-0.00190786
0.0124499
0.0503921
-0.000219027
0.000124903
0.000318312
-0.000224188
-0.000236703
0.0467025
-0.107946
0.0614799
-0.00865998
-0.000261153
0.0048727
0.00404844
0.0268634
0.0100125
-0.036876
0.00110901
-0.00114736
-0.00862163
-0.0313622
-0.0353476
0.0168093
0.057444
0.000671354
-0.0581154
0.0726672
-0.0437836
-0.0511845
0.0223009
0.00185545
-0.0249517
-0.0211586
0.0693069
0.0429602
-0.0395999
-0.00797967
0.00933642
0.136122
-0.12047
0.0354686
-0.051121
-0.0455598
0.0374255
0.0220488
-0.0139146
-0.0526208
0.0520162
0.000604577
-0.0481962
0.0300369
0.0106472
-0.0467681
-0.0106031
0.046724
-0.002584
0.159696
-0.158884
0.0017719
0.108638
0.0158836
-0.0156588
0.050553
0.00867202
-0.0514729
-0.00775209
-0.0142412
0.00443385
0.0104581
-0.000650739
-0.00955906
-0.00516312
0.00478749
0.0099347
0.0673609
-0.0384667
-0.0534644
0.0245702
0.0298119
-0.0160596
0.0232284
-0.0369806
0.027161
-0.0950862
0.0907599
-0.0228348
-0.00559223
0.00041723
-0.00906624
-0.0949067
0.108172
-0.0233766
0.0101118
-0.0111664
0.0476268
0.0142057
-0.0506661
-0.00440329
0.000111135
0.003093
0.00119916
0.0829359
-0.00632509
0.0520294
-0.12864
5.65193e-05
-0.00071764
1.21316e-05
0.000648989
-0.0667893
0.0578281
0.0747175
-0.0657563
0.00349363
0.00138821
-0.00204918
-0.00283265
-0.0775879
0.0754356
0.00215228
0.0622418
-0.0591698
-0.00307203
0.0598749
0.000118177
-0.059993
-0.0131988
0.123671
-0.000654599
-0.109818
0.00998149
-0.0312077
0.0330816
-0.0236754
-0.000411752
-0.0563335
-0.0674472
0.0122599
0.0673173
-0.01213
-0.0130518
-0.00209947
0.000417165
-0.000655277
-1.29662e-05
0.000251078
0.00110448
-0.000262888
-0.000229319
-0.000612273
-0.0637288
0.00743258
-0.00162803
0.0579242
0.000504513
-0.00532768
0.00175775
0.00306541
0.0119227
-0.0144367
0.000114953
0.00239903
0.00795996
-0.00668018
0.0106429
0.0559687
-0.0102816
-0.0224296
-0.0232576
0.0364386
-0.00540999
-0.0362422
0.0052136
0.000464886
0.0669592
-0.000388258
-0.0670358
0.00748105
-0.0714275
0.0193395
0.0446069
-0.0431993
-0.0321875
0.0423417
0.033045
-0.0330974
0.0187191
-0.0905481
0.104926
-0.000819184
0.0148885
-0.00769683
-0.00637253
0.0493378
-0.058864
0.0471777
-0.0376515
-0.0627532
-0.00726058
-0.00681513
0.000673967
-0.000134895
0.0040884
-0.00462748
-0.0116195
-0.00281851
0.00170187
0.0127362
-0.00778428
-0.00898995
0.0106748
0.00609939
-0.000109657
-0.0021318
0.00129209
0.000949367
-0.000462086
0.000509102
-4.70156e-05
0.000846386
-0.0705315
-0.0255625
0.0952476
-0.000135125
-0.000193894
-0.00127831
0.00160733
7.17477e-05
-0.000488818
-4.50165e-05
0.00106903
-0.0655227
-0.00016906
-3.12538e-05
0.000709415
0.000650993
0.00010139
-0.000425485
-0.000326898
-0.0288604
0.0637329
0.0776491
-0.112522
-0.00889766
-0.00222558
0.00707262
0.00405061
-0.0142991
-0.000258125
0.00565955
-0.00502603
0.00538994
0.0126841
-0.013048
-0.000652042
0.000643143
-0.00016016
-0.0665419
0.0661675
0.000374349
0.0309527
0.0470836
-0.0600928
-0.0179435
0.0124632
-0.0752796
-0.0222238
0.0850402
-0.0131607
0.00278059
0.00535413
-0.00455885
-0.00614944
-0.00245246
-0.0167461
0.0587414
0.0127721
-0.0547673
0.0687973
0.00454664
-0.0532703
-0.0200736
0.000161995
0.000430291
-0.000786433
0.000194146
-0.00046145
-0.000118845
-0.00263647
-0.00112976
-0.00117904
0.00494527
0.0659749
-0.0462038
0.0115483
-0.0313194
-0.000768666
-0.00267288
0.00147716
0.00196439
-0.0162972
0.0109977
-0.00395518
0.00925467
0.00143812
-0.10203
0.102527
-0.00193512
0.00296746
0.000627503
-0.0102307
0.00663578
0.0097137
-0.0102684
0.00157631
-0.00102161
0.00978188
0.00367835
-0.0104928
0.0378263
0.0560807
-0.0279321
-0.0273651
0.0549238
0.0283075
-0.0558662
0.0277186
-0.0550837
-0.000233522
-0.000214568
-0.0330579
0.0124428
-0.0100192
0.0792192
0.0246125
0.00700747
0.0689693
-0.0535394
0.0967235
-0.112153
0.00462156
0.0927626
-0.0973842
-0.00671037
-0.00671004
0.0130286
0.000391841
-0.0339906
-0.0875673
0.0276093
0.0939486
0.0226566
0.0622393
-0.0258033
-0.0590926
-0.023362
0.114771
-0.053583
-0.0421483
0.0450977
0.0519744
-0.0559455
0.0552474
0.000698057
-0.0382638
0.0365904
0.00167344
0.0407059
-0.0802222
0.0736266
-0.0341103
0.0658679
-0.082614
-0.00932462
-0.00802662
0.0106409
0.000893458
0.00065058
-0.000598142
-0.000945896
-0.00609135
-0.0429894
-0.00686473
0.00126543
0.00137637
-0.00245388
-0.000187916
-0.0563619
0.0512326
0.0863444
-0.0812152
0.0342383
-0.0323753
-0.00186308
0.00994104
0.0266122
-0.0137584
-0.0227949
0.00416749
-0.000559984
0.00224991
-0.00585742
-0.0647055
-0.000892834
0.0206831
0.0449152
-0.00282936
0.0067202
0.000276653
0.0414198
-0.111259
0.104124
-0.0342849
0.0452192
0.0136334
-0.0588716
1.89135e-05
-0.00359398
0.00690358
0.00155447
-0.00486408
-0.00113711
0.0609163
-0.0597792
0.036529
0.00610803
0.0143726
-0.0570097
0.00411727
-0.00728222
0.00260497
-0.181493
0.0279211
0.162245
-0.00867321
0.0390031
-0.0110866
-0.0279165
-0.00103956
-0.00160622
-0.00121953
0.00386531
-0.0410137
0.0443999
0.124369
-0.127755
-0.00173981
0.000666535
-0.00212075
0.00319403
0.0899013
-0.00174383
-0.0429382
0.000439705
-0.00115381
0.00205018
-0.00133608
-0.0182147
-0.116276
0.0151245
0.119366
0.0035273
0.0518297
-0.00372819
-0.0516288
0.0492835
-0.0702205
0.0596925
-0.0387554
0.0320688
-0.0368626
0.0490582
-0.0442643
0.00873956
-0.00238669
0.00609239
-0.0124453
0.00138846
-0.0444935
0.0535013
-0.0538326
-0.0365314
0.0965887
0.0183762
-0.0252544
-0.0897105
0.047333
0.0175682
-0.135068
0.0701668
-0.00147275
-0.00856124
0.00624799
0.003786
0.0278649
-0.0501626
-0.00330514
0.028954
-0.0269669
0.00755005
-0.00576406
0.000148958
-0.00193495
-0.0873391
0.00297066
-0.00185565
0.0736751
-0.150404
0.0785848
-0.0269597
-0.0866139
0.041382
0.0721917
-0.0716798
0.0207429
0.00268922
0.0482477
-0.0431053
0.0291534
0.0102801
-0.0833842
0.0960615
-0.0126773
-0.0208346
-0.00973279
0.117356
-0.0867886
-0.00346495
-0.00390269
0.00600726
0.00136038
-0.0259101
0.0594789
0.0410352
-0.0721733
0.0283897
-0.000651274
-0.000402812
-0.000984265
0.00203835
0.0466732
-0.0482233
0.0543701
-0.0381264
-0.00706132
-0.0449453
-0.123478
0.0470727
0.0764054
-0.0431173
-0.0326764
0.0275974
0.00304688
-0.00209425
0.000615547
-0.00156818
0.00251366
-0.000268097
0.000801317
-0.0859475
0.00311977
0.0828277
0.0598061
0.0140356
-0.121864
0.0480218
-0.0717334
0.000217844
0.0715156
0.00116346
-0.00167685
0.00819063
-0.00767723
0.0487458
0.153755
-0.221909
0.0194073
0.00168954
-0.00227191
0.00152769
-0.000945315
-0.0918038
0.0659437
0.0252146
0.000645482
-0.00292284
-0.00113661
0.00337297
0.000686484
-0.000774852
0.00836793
-0.00808721
0.000494133
0.00815804
0.00814563
-0.0158076
-0.000496111
0.0412551
0.0108235
0.00294109
-0.00264726
0.00139571
-0.0974893
0.105237
0.00683058
-0.0145783
0.0118431
-0.0667966
-0.0223629
0.0773163
0.00073532
-0.00256662
0.0880895
-0.0862582
-0.0431593
-0.0368664
0.0890683
-0.00904268
-0.0406216
0.0247421
0.0403938
-0.0245143
0.0530988
0.0216049
-0.0728139
-0.00188973
-0.0021679
0.000349805
0.00210311
-0.000285014
-0.123203
-0.0429126
0.0395936
0.126522
0.0485034
-0.0378562
-0.0319261
-0.0374134
-0.0317029
0.101042
-0.00191862
0.00423738
0.000256907
-0.00257567
-0.0307799
-0.0800037
0.0276954
0.0830882
-0.0297967
-0.0286355
0.0203058
-0.000892992
-0.00311988
-0.00164172
0.00338584
-0.00362716
0.00188304
-0.00545227
0.00535743
0.0249716
-0.0768145
-0.0847715
0.136614
-0.000266064
-0.000437346
0.00043266
0.00027075
0.0563345
-0.0599592
0.0478494
-0.0442247
-0.0143129
0.0424105
-0.0069864
-0.0211112
0.0865441
-0.0860629
-0.0191905
0.0187093
0.0261556
0.0228976
-0.0632747
0.0142214
-0.127534
0.0741437
0.0192569
0.0341335
-0.00511938
0.00277408
0.000103771
0.00224154
-0.00770798
0.00931239
-0.000440959
-0.0135445
-0.00369103
0.0185595
-0.00132393
-0.0637556
-0.00404952
0.0148555
0.0529496
-0.00961538
0.104591
-0.00679279
-0.0881826
0.00756224
-0.0470843
0.0808761
-0.041354
-0.00170067
0.00412418
-0.00170578
-0.000717738
-0.0149276
0.000535498
-0.00252203
0.0169141
-0.107656
0.00304829
0.0128091
0.0917986
0.000126991
-0.000256549
0.000581096
-0.000451538
0.0369947
0.00818839
0.0274758
-0.00555215
0.0461802
0.0536464
-0.0942745
5.61929e-06
0.000735899
-0.000614528
-0.000586538
0.0021099
-0.00140883
-0.000114531
0.0174961
0.111063
-0.0479804
-0.0805791
-0.000160023
-9.65252e-05
0.000239938
-0.000399962
0.0619721
0.0167384
-0.092137
0.0134265
-0.15533
0.0855448
0.0760319
-0.00624716
-0.0183161
0.000972999
-0.0518266
0.0691697
0.0250293
-0.0148766
0.0174216
-0.0275742
-0.0657374
-0.0244123
0.0901497
-0.0770221
0.0381646
0.0388574
-0.00222656
-0.000239867
7.05053e-05
0.00239592
-0.0394831
0.0420985
0.00779974
-0.0104151
0.0477439
-0.0554722
0.00772822
-0.0605587
0.0341287
0.0452905
-0.0188605
0.00433427
-0.00222594
-0.00194826
-0.000160071
-0.00313562
-0.00258913
0.000605369
-0.0421248
-0.0429852
0.0458873
0.014559
0.00189191
-0.0623382
0.002064
-0.00026977
-0.0015996
-0.000194629
-0.00093929
0.00752288
-0.0129299
0.00634634
0.00674577
0.0219112
-0.0399378
0.0112809
-0.0192836
-0.0163968
-0.00830101
0.0439815
-0.0741511
-0.00973468
0.0288884
0.0549974
-0.00156159
0.0148875
-0.00846275
-0.00486313
-0.052961
0.000492377
0.033185
0.000324414
0.0259249
-0.134035
0.126419
-0.0183087
0.0278541
-0.0338851
-0.0511625
-0.027439
0.0551576
-0.000108803
0.0391565
0.00302465
-0.0420723
-0.0575658
-0.0598781
0.117444
-0.00301424
-0.000970003
-0.00174968
0.00573392
0.00317282
-0.00465251
0.00167415
-0.00019446
0.0361232
-0.00534199
-0.0284577
-0.00232355
-0.00316522
-0.00216879
0.00231977
0.00414732
-0.0121595
0.0683921
-0.0603799
0.0755357
-5.83367e-05
0.0278455
0.00929628
-0.00643993
-0.0307019
0.0585261
0.000119318
-0.0586454
-0.054412
0.113551
-0.0288827
0.0602399
0.0203931
-0.0517503
-0.014866
-0.0240927
0.0157432
0.0232155
0.00334126
0.00362763
0.000728943
-0.00769783
-0.0335257
-0.038855
0.0991554
-0.0267747
0.0430679
-0.0350714
-0.000168522
-0.00782793
-0.0525978
0.114735
-0.0487515
-0.0133857
-0.00160093
0.00187245
-0.000203562
-6.79561e-05
-0.000976032
0.0215074
-0.00381402
-0.0167173
0.0027469
0.00375545
0.000155059
-0.00665741
-0.000251464
-4.40795e-05
-3.59339e-05
0.000331478
2.80652e-05
7.24404e-05
-0.00035197
-0.00889436
0.0223183
0.0703056
-0.0837295
0.0810225
-0.0809137
-0.0001088
0.000308115
-0.000365998
5.78835e-05
-0.0128406
0.000968485
0.00222627
-0.00142461
-0.00177014
-0.00861502
-0.00661557
0.00396031
0.0112703
-0.0557528
0.0268701
0.00022764
0.000321154
-0.000809462
0.000260667
0.0341266
0.0546901
-0.0346838
-0.0541329
0.0144102
0.155607
-0.180003
0.00998618
0.0584411
0.0645159
-0.0627171
0.00196589
-0.0129511
-0.00170922
0.0126945
-0.0327802
-0.0297528
0.0625329
0.031652
-0.0644322
-0.0543391
-0.0449402
-0.0652183
0.164498
0.0506979
-0.0563867
0.00568878
-0.0730788
0.134369
-0.071572
0.0327797
-0.030221
0.0861988
-0.00368879
-0.0690243
-0.0134857
0.069581
-0.0704937
0.0106398
-0.00972714
-0.000275063
-0.00592562
0.00747245
-0.00127176
0.00256779
-0.00578857
0.00598574
-0.00276496
-0.000166159
4.96601e-05
0.000810046
-0.000693548
0.0219795
0.0224337
-0.033561
-0.0108522
-0.00515144
-0.00538361
0.00611211
0.00442294
-0.0113131
0.0327108
-0.0434088
0.0220111
0.000833693
-0.00838565
0.0109678
-0.00341586
0.0502464
-0.00470621
-0.0455402
0.0390144
0.0350839
-0.126588
0.0524892
-0.0986844
0.0607367
0.076962
0.0329339
-0.0999663
-0.0464271
0.108726
-0.038845
-0.0234538
0.00192847
0.00883082
-0.0123843
0.00162502
0.0280379
-0.0034522
-0.0245857
-0.030127
0.0444367
-0.00371787
0.0195845
-0.0314048
0.00127161
-2.2805e-05
0.000859213
-0.00210802
0.0118866
-0.0388535
-0.00118659
0.000184765
1.66902e-05
0.000985133
0.00264995
-0.000245483
0.000932978
-0.00333745
-0.000604023
-0.00264486
-0.0773215
-0.0143419
0.00159767
-0.0109883
0.0237325
0.0197108
-0.0900628
0.0218627
0.0484893
-0.00309702
0.0575502
-0.0822577
0.0278045
0.00102371
-0.00078897
0.00138846
-0.00162321
0.0786584
0.0127119
0.00213208
-0.0935024
-0.0010095
-0.000776254
0.00207663
-0.000290878
0.00288356
0.00161433
-0.0688855
0.0643876
0.00633737
-0.000998941
-0.00464463
-0.000693804
0.00618663
0.00442907
-0.00344069
-0.00717501
-0.111541
0.0974411
-0.0879721
0.102072
-0.0554854
0.109929
-0.0544435
0.00314366
-0.0452014
0.00914491
0.0329128
0.00349078
-0.00373303
0.000890334
-0.000648092
0.0482278
-0.00241724
0.00125353
-0.129177
0.00208836
0.0726766
-0.0334004
-0.000244543
0.00136843
0.0303684
-0.0247561
-0.00698077
0.0778582
-0.0301487
0.0339075
0.00386575
-0.00484007
0.000167163
0.000807158
0.0337272
0.0229907
-0.0739141
0.0171962
-0.000640536
0.000198809
0.000665538
-0.000223811
-0.000401619
0.00140523
0.00518302
0.000326789
-0.00767552
0.00613833
0.00540294
0.075209
0.0408332
-0.0371947
-0.0788475
-0.132215
0.141632
-0.00852111
-0.000895943
0.031099
-0.0315268
0.000427822
-0.0359899
7.3898e-05
0.000257157
-0.00300448
-0.00209274
0.014857
0.206782
-0.157873
-0.0637657
0.0289666
-0.060532
-0.0179558
0.0495213
-0.0029893
0.0388789
-0.000631956
-0.0856717
0.0474247
-0.0224376
0.0094384
-0.0380167
0.0475104
0.0464219
-0.0559156
-0.0666115
0.0891646
-0.152039
0.129486
-0.000116818
0.000150122
-0.00146587
0.00143257
0.00025088
0.00217147
-0.000723518
-0.00169883
0.0449412
-0.0157874
0.0402203
-0.069374
-0.00350257
0.000406931
0.00318707
-9.14269e-05
-0.0120074
0.0106664
-0.0366758
0.0121613
-0.0459332
0.00568168
-0.00283995
0.0178488
-0.0206905
-0.132299
0.0155242
0.126599
-0.00982369
0.039344
-0.0259649
-0.0189624
0.00558326
0.0348843
-0.0535885
0.00669677
0.00474158
0.00772419
0.0511446
-0.0636103
0.0248795
-0.00728093
-0.0253809
0.00778225
-0.0797019
-0.00771975
0.0146551
0.00120023
-0.000949781
4.33056e-07
-0.000943648
0.00509418
0.00124161
-0.00539215
0.0182072
-0.0323539
0.0390263
0.0169339
-0.142912
-0.0228222
0.1488
-0.111866
-0.0153056
0.0263797
0.100791
0.0578751
-0.0350029
0.0286699
-0.0515421
0.109192
-0.00622959
0.00456757
-0.10753
-0.0176898
-0.0376021
-0.0040322
-0.0155792
0.00755165
0.0120598
-0.00132953
0.000495481
0.000124724
0.000709329
0.0148473
-0.0768245
0.0619772
0.106488
-0.00748571
-0.112201
-0.0269069
0.0560226
-0.0468055
0.0400624
-0.122325
0.0135477
0.0687154
-0.00451205
-0.0120374
-0.0275199
0.0440693
0.00280685
0.0490683
0.0814499
-0.12966
-0.000858487
0.0497139
-0.0833581
0.0895352
-0.055891
-0.0966886
0.0949764
-0.00646709
0.00817933
0.00162123
0.00332268
-0.0943464
0.0894025
-0.00146034
0.0035873
0.00585716
-0.00798412
0.000126845
-0.000851781
-0.000221988
0.000946924
0.087955
0.00153019
-0.0185894
-0.0708958
-0.000605533
0.000713406
-0.000473123
0.00036525