/*--------------------------------*- C++ -*----------------------------------*\
| =========                 |                                                 |
| \\      /  F ield         | OpenFOAM: The Open Source CFD Toolbox           |
|  \\    /   O peration     | Version:  2506                                  |
|   \\  /    A nd           | Website:  www.openfoam.com                      |
|    \\/     M anipulation  |                                                 |
\*---------------------------------------------------------------------------*/
FoamFile
{
    version     2.0;
    format      ascii;
    arch        "LSB;label=32;scalar=64";
    class       volVectorField;
    location    "0.0207921";
    object      U;
}
// * * * * * * * * * * * * * * * * * * * * * * * * * * * * * * * * * * * * * //

dimensions      [0 1 -1 0 0 0 0];

internalField   nonuniform List<vector> 
47425
(
(10.0826 0.0197054 0.0220151)
(10.0677 -0.0157788 -0.258499)
(9.96858 -0.0220229 0.127636)
(11.015 -0.40261 -0.196591)
(11.8267 0.532141 0.685133)
(10.0909 -0.00213094 0.0353246)
(11.7388 0.380412 0.623623)
(10.0971 0.00724019 0.037675)
(10.0722 -0.0143546 -0.0308668)
(5.42067 6.79795 -0.801101)
(10.0468 -0.00693361 0.0153759)
(10.1219 0.198261 0.00740453)
(11.5896 0.403799 0.204843)
(10.0053 0.0277637 0.0606526)
(10.3211 0.400094 -0.104956)
(9.71335 -0.133615 0.0293733)
(10.0047 0.0302195 0.0883252)
(8.6478 -0.506571 -1.21002)
(8.53985 0.942811 -4.52609)
(12.8466 -0.435108 -0.864484)
(10.5653 -0.519987 -0.470866)
(9.71757 0.0144946 -0.0173068)
(10.0671 0.0774554 0.0304473)
(10.081 -0.0596497 0.113967)
(10.0319 -0.159978 0.113599)
(10.0151 -0.0224167 -0.0238089)
(9.95554 -0.00654467 0.0222151)
(11.1843 -0.27591 -7.96092)
(9.97121 -0.00117362 0.034864)
(10.0878 -0.047077 -0.0102779)
(9.7122 0.491546 0.172639)
(9.97785 -0.0525018 0.0987395)
(10.0371 -0.125503 -0.0601993)
(9.90539 -0.00222623 0.0487579)
(10.0254 -0.223295 0.00390941)
(10.3056 0.00411124 -0.0311553)
(9.74832 -0.0521004 -0.0205261)
(9.90988 0.131925 -0.0253355)
(10.4557 0.211962 -0.062875)
(10.0326 0.0791666 0.0153259)
(9.83964 0.0395871 -0.0252215)
(9.46806 0.15131 -0.204213)
(9.09676 -0.407994 0.323855)
(10.0339 0.0700992 0.0407451)
(0.457016 -1.12866 0.382545)
(10.2071 -0.0750986 0.0535)
(9.98228 0.0273568 -0.089034)
(10.0221 0.117103 -0.0474219)
(10.0671 -0.109454 0.0637182)
(9.98368 -0.0886624 -0.073294)
(1.95588 -0.557962 -5.25646)
(9.51824 0.772081 0.901939)
(10.0653 0.0367401 0.0252783)
(7.3587 -6.19648 2.54998)
(9.96974 -0.0176401 0.0916697)
(10.2964 0.124543 -0.178062)
(10.0896 -0.0871232 -0.179887)
(9.97835 0.128283 -0.0365653)
(12.7311 0.548505 0.613365)
(10.0287 0.029657 -0.0755777)
(5.76816 -6.08327 1.92677)
(5.62398 0.544157 2.33624)
(6.703 -7.41127 1.51598)
(9.08067 -1.05185 0.192343)
(9.99603 0.00166682 0.033675)
(10.5026 -0.183572 0.0947719)
(10.0154 0.0156687 0.0047637)
(10.3874 0.238022 0.431962)
(8.6678 -6.72817 3.07873)
(9.13313 0.570935 0.524156)
(10.7512 -0.252287 0.24543)
(9.9893 0.112052 -0.00751221)
(10.581 0.0484653 0.0540024)
(10.5118 0.243124 -0.508607)
(7.41873 5.5225 1.3888)
(9.95654 -0.0608726 0.0989777)
(7.28125 -7.37978 2.32949)
(10.024 0.0209706 -0.0211623)
(8.34356 -5.93199 2.93613)
(11.3405 0.326981 1.70841)
(7.93576 4.9337 1.54588)
(10.1964 0.23964 0.0586473)
(9.35225 0.0945902 -0.0640323)
(9.99565 0.219918 0.127168)
(9.81911 0.0883318 -0.133936)
(9.96406 -0.0526036 0.0806889)
(10.335 -0.0685957 -0.0155163)
(10.146 0.138463 -0.0277781)
(9.94844 0.927142 -1.13774)
(10.6768 -0.0870712 2.5135)
(9.67605 0.409646 0.0850613)
(10.4396 -0.125573 -0.0340044)
(10.0732 0.0185378 0.134634)
(9.99281 -0.126033 -0.026946)
(9.88925 -0.162642 -0.0449343)
(10.1212 -0.029915 -0.0625486)
(10.0476 -0.00086613 -0.0581476)
(10.0935 -0.315551 -0.114936)
(10.0193 -0.100783 0.216799)
(9.81907 0.283811 0.173435)
(10.2114 0.0881244 -0.088587)
(8.66108 0.107431 -3.48092)
(10.2793 0.12893 0.0723498)
(5.46763 1.79631 -0.283024)
(10.3189 0.0647311 0.120618)
(10.1081 -0.427958 0.0993676)
(10.033 0.0442911 -0.0513655)
(9.88735 -0.067867 0.160646)
(9.93812 -0.0159326 -0.0214351)
(9.94517 0.229598 0.0324681)
(-2.39906 -2.15423 -0.313309)
(10.1129 -0.020151 -0.0185175)
(10.049 -0.565744 0.160145)
(10.1364 -0.000985537 0.0404209)
(10.4137 -0.416013 0.111382)
(1.79115 -4.0165 -5.1972)
(10.4126 -0.389971 0.0754262)
(4.1305 0.121259 -3.65667)
(10.2823 0.0622904 0.146986)
(10.5772 0.282496 0.422931)
(10.1616 0.0781481 -0.0703502)
(9.99108 -0.0918605 -0.0170878)
(10.0059 0.0162325 0.0950422)
(11.3837 0.781146 -0.474467)
(10.0826 0.0858101 0.00546375)
(10.2144 -0.674169 0.223223)
(9.98711 -0.0329823 0.126494)
(9.95637 -0.0125804 0.0140117)
(9.89174 -0.127079 -0.209105)
(10.0748 0.000172449 0.0875338)
(9.50035 -0.094244 0.477446)
(9.91053 0.187187 -0.0448382)
(4.50552 0.0576631 1.25677)
(10.4516 -0.218797 0.123529)
(9.69746 -0.193446 -0.0513468)
(11.5476 -0.465687 -0.726988)
(10.8598 0.434332 0.29049)
(10.2497 -0.669364 0.328622)
(10.0976 -0.00928758 0.0553179)
(10.5788 0.243246 -0.0810519)
(10.2441 -0.162231 -0.0775995)
(11.8042 -0.0848559 -0.193994)
(10.3969 0.0165481 -0.115818)
(10.0388 -0.869987 0.310636)
(10.0732 0.198011 -0.0832295)
(10.0321 -0.010678 -0.00833811)
(11.7192 0.062599 0.905621)
(10.1689 0.072068 -0.0859773)
(10.2628 -0.0059404 -0.0359785)
(10.0427 0.0159752 -0.0837316)
(9.97532 -0.847972 0.198606)
(2.97695 -0.319556 -6.12213)
(10.1043 0.0886051 0.114343)
(5.71126 0.137486 -10.681)
(8.91252 -1.00855 -0.397174)
(9.97395 0.0149922 -0.00708779)
(10.6872 0.268554 -1.43191)
(7.36549 -3.54245 -2.26598)
(9.90687 -0.0596341 -0.33612)
(9.92114 -0.085914 0.139255)
(10.6294 -0.420765 0.176518)
(9.99888 0.0953452 -0.120425)
(10.0225 -0.0193498 -0.0379723)
(9.92274 0.270586 -0.0410852)
(11.8474 0.107328 -0.204067)
(1.51348 -1.84737 -1.92197)
(9.91502 -0.0247856 -0.113572)
(7.89748 5.2585 1.39949)
(10.0525 -0.154542 -0.0823734)
(11.8825 0.489427 -3.6718)
(8.9927 4.67902 1.15739)
(10.1615 0.00458829 0.0121206)
(10.1472 0.0900542 0.0308158)
(9.28683 -0.823522 -0.349803)
(10.3167 0.189501 -0.165167)
(9.35332 -2.78652 -0.917935)
(2.80847 0.800312 -6.85615)
(9.99822 -0.0254936 0.00420242)
(10.0842 0.0437757 0.0184055)
(10.0627 -0.0725414 -0.0376306)
(2.58079 0.321499 -10.2254)
(10.0025 -0.0108989 -0.0125132)
(10.0015 -0.00285819 0.0241153)
(9.79888 -0.152923 0.0254289)
(9.99184 -0.0548794 -0.0479852)
(10.067 -0.0842886 -0.161579)
(10.1306 -0.152229 -0.0101726)
(5.6006 -0.319084 -0.0906682)
(9.96261 -0.0316865 -0.00837453)
(10.0679 0.0172826 -0.0600945)
(10.0225 -0.0165565 0.0761979)
(10.0078 -0.142713 0.041197)
(11.3146 0.606013 -1.17274)
(10.0237 0.0533232 0.00328328)
(9.87719 -0.0602794 -0.00523234)
(10.6772 -0.223786 0.0542649)
(10.0648 0.00681279 -0.0512623)
(10.0576 0.0142684 -0.0114553)
(10.7995 -0.223107 0.129437)
(10.116 -0.110699 0.0419386)
(10.0998 0.0579166 -0.0146038)
(10.1233 -0.131869 -0.00409733)
(9.98833 0.0598813 0.0137572)
(10.5892 -0.297672 0.0520112)
(10.1774 -1.24725 -0.71897)
(10.3373 -0.0175537 0.103323)
(9.9617 -0.0072358 0.115359)
(10.6079 -0.221705 0.0493461)
(9.98633 0.244363 -0.112804)
(9.88107 0.147582 -0.0322984)
(10.1227 -0.0612348 -0.167578)
(10.7227 0.0075787 0.0852289)
(10.0298 0.192909 -0.00558976)
(10.0646 -0.109115 0.00656213)
(10.2895 0.0299105 -0.0470495)
(10.7892 -0.330365 -0.150659)
(10.4587 0.0519311 -0.0214577)
(10.574 0.184795 1.02444)
(8.69372 -1.12722 -0.313919)
(10.0777 -0.121713 -0.0279938)
(11.2847 -0.154292 2.13866)
(10.6491 0.127405 0.158413)
(9.61618 -0.682115 -0.167021)
(10.5157 -0.0737466 -0.0325166)
(10.2997 0.000858971 0.156779)
(11.294 -0.407402 2.08534)
(10.0488 -0.0549855 0.061342)
(10.6618 -0.275046 -0.0754494)
(10.8129 0.51582 0.316836)
(11.2235 0.852177 -0.187761)
(10.4906 0.0113144 -0.0456302)
(10.0079 0.0145863 0.145254)
(10.1247 -0.0361417 0.019095)
(10.0075 0.0249195 0.0292241)
(10.1603 0.0874984 0.0158488)
(10.0287 0.153657 -0.00413755)
(11.2185 0.468007 1.80392)
(9.9284 0.0710535 -0.0300106)
(11.4701 0.435522 1.62861)
(10.2263 0.0154261 -0.0628581)
(9.8959 0.024918 0.10816)
(9.87751 -0.0734437 -0.0225927)
(9.95515 0.0397852 0.0215109)
(11.3739 0.00684194 -0.20506)
(10.329 0.256658 -0.0209096)
(9.89061 -0.0438631 0.0894424)
(10.2096 -0.0703667 0.077675)
(9.70482 0.0975276 -0.0100066)
(9.99812 0.0150884 -0.0716654)
(9.91322 0.101023 0.0210993)
(9.90413 -0.144526 0.093656)
(11.2701 -0.00705641 1.77966)
(10.1737 -0.032447 -0.0288583)
(9.99266 -0.0844039 -0.00918255)
(9.91397 -0.0554422 0.0319117)
(9.9865 0.0155176 0.0241194)
(9.87167 -0.0934002 0.0810985)
(10.2755 -0.0957062 -0.15397)
(10.5502 -0.255428 0.138358)
(10.0817 0.0127911 0.0228333)
(10.1574 -0.0928273 -0.263355)
(9.96968 -0.0700952 0.00364427)
(9.94198 0.096952 -0.0633862)
(10.3591 -0.032545 -0.0639401)
(11.197 0.157528 0.600079)
(9.77842 -0.286292 -0.0298049)
(9.91687 -0.0245776 0.0660343)
(11.2627 0.174448 0.481521)
(9.82909 0.0674343 0.147891)
(10.1746 0.166883 -0.0943004)
(9.88077 0.0817556 -0.0493323)
(11.5092 0.541515 1.30067)
(11.0793 0.594487 1.48965)
(10.2112 -0.200123 -0.0454879)
(11.3708 0.281405 1.57347)
(10.3602 0.0166565 0.00611526)
(11.4296 0.410106 1.43301)
(7.16475 3.14788 2.68523)
(11.0489 0.50369 1.54736)
(5.79536 1.07952 -4.60248)
(5.01717 -5.95671 1.58093)
(10.0536 -0.037998 0.0322758)
(4.84732 -6.2243 0.782541)
(9.84223 0.220033 -0.0687443)
(9.92787 -0.00472763 -0.0882497)
(10.7915 -0.126415 0.0776957)
(9.92197 0.206163 0.060755)
(9.9277 -0.0433555 0.0682186)
(9.70643 0.224268 0.112858)
(10.3447 -0.511975 0.050106)
(1.34812 1.60874 -2.95921)
(9.29864 0.626074 0.148403)
(10.0047 -0.00273178 -0.00333698)
(9.85759 0.0341699 0.00732352)
(9.92583 -0.087462 0.145874)
(10.8775 0.103983 0.434366)
(11.5568 0.118832 -0.144998)
(10.2277 -0.411073 0.168759)
(10.0125 -0.0512332 -0.0208073)
(11.3344 0.05216 0.460078)
(9.94449 0.079762 -0.0934271)
(10.1519 -0.0971699 0.0487984)
(10.0059 -0.216159 0.0185787)
(9.9545 -0.110586 0.150963)
(13.2551 3.24673 0.458814)
(8.10589 1.06382 0.821704)
(1.49025 1.00265 -5.6719)
(9.87952 -0.0177582 0.0728703)
(10.0426 0.0373424 -0.0455631)
(9.98819 -0.557029 0.0610785)
(9.97018 -0.392509 -0.0539279)
(1.1297 -0.539432 -5.1656)
(10.0648 -0.0089976 -0.000690956)
(10.081 -0.031022 -0.0106665)
(10.5005 2.55475 1.59786)
(9.98441 0.0402082 -0.170131)
(9.97929 -0.000641685 -0.00669041)
(9.85009 0.127697 -0.0512737)
(9.79809 0.113489 0.0701646)
(13.734 0.778221 0.0614059)
(10.7133 2.2816 1.5262)
(10.139 0.12831 0.129971)
(10.2488 0.196119 -0.0659905)
(10.0134 0.154687 -0.125572)
(9.99389 -0.0503058 -0.217868)
(10.0734 0.0545085 -0.0691256)
(9.99529 0.0426273 0.134828)
(10.0034 0.0795997 -0.164313)
(9.98025 -0.0285347 -0.0823622)
(10.0284 0.0633229 -0.0807144)
(10.9011 0.010247 0.324663)
(12.4413 -2.40791 1.41164)
(10.2854 -0.639516 -1.05102)
(9.99682 0.0718891 0.0610415)
(9.96112 0.0239562 -0.0967511)
(9.85308 0.00845089 -0.0175806)
(12.6474 -1.80775 1.55697)
(9.97292 -0.0618506 -0.227024)
(10.0788 -0.0213992 -0.0492772)
(9.96397 -0.103485 -0.0418881)
(10.0382 0.16171 0.00161299)
(9.99474 0.111802 -0.0610603)
(10.0958 -0.0683196 0.046643)
(9.77579 0.100126 -0.00633762)
(10.1343 -0.0757696 0.152345)
(9.74327 -0.0812069 -0.0641763)
(10.0001 0.109223 0.0398456)
(9.68485 0.313416 -0.0511244)
(10.0036 0.146709 0.0228176)
(9.92714 -0.0122375 0.100098)
(9.97877 0.142747 0.00436326)
(10.3465 -0.478149 0.0361231)
(10.0275 0.178766 0.0167877)
(9.76662 -0.0659965 0.0264028)
(9.97725 0.1563 0.170641)
(11.0921 -0.78258 0.0506302)
(10.1353 -0.0335946 -0.0406801)
(9.43542 0.247389 0.224853)
(9.93546 -0.00376556 0.0433213)
(10.1758 0.138379 0.0288763)
(10.534 0.158562 2.01228)
(10.6415 -0.606975 -0.38187)
(10.0399 -0.0766156 0.0567442)
(9.97662 0.091862 -0.0747985)
(10.2935 -0.155789 0.137871)
(10.1503 0.25428 0.0290692)
(10.0475 -0.00224467 -0.0602001)
(10.0658 0.0540822 0.107633)
(10.0236 -0.0462471 -0.0381414)
(10.1815 0.582982 -0.0733078)
(10.0649 -0.00791585 -0.103325)
(-0.000251309 -2.4539 -0.927027)
(10.3571 -0.0979855 0.0589059)
(10.0883 0.711046 0.0284091)
(9.99767 -0.0464814 0.00596989)
(10.0829 0.625138 0.0191123)
(9.78825 -0.168948 -0.1874)
(10.0091 -0.107263 0.0202538)
(9.97566 0.0145393 -0.0296632)
(9.78337 -0.0556637 -0.0137242)
(10.0026 0.0204694 -0.0393499)
(10.066 0.702366 -0.0258651)
(10.2717 -0.0242646 0.0406046)
(10.1776 0.0721799 -0.0124687)
(9.90944 -0.0409033 0.047061)
(10.0904 0.0654481 0.0128612)
(10.0198 0.0441873 -0.0526722)
(10.129 0.183876 0.041186)
(10.1506 -0.0988907 -0.0904901)
(10.0353 -0.013188 -0.0722567)
(10.3293 0.812755 -0.172449)
(10.2528 0.975349 -0.198446)
(10.1729 -0.0262584 -0.00311632)
(10.4327 -0.144165 0.168926)
(10.0706 -0.0582949 -0.188687)
(10.2808 0.750079 -0.156633)
(10.1001 -0.00990549 0.0148837)
(9.96569 0.00153611 -0.0709396)
(11.5933 -0.625098 -0.678284)
(9.90146 0.0203043 0.0577761)
(10.2925 -0.885116 1.7677)
(10.0262 -0.0983897 0.0357788)
(11.0442 -1.61288 -3.82737)
(9.9255 -0.0514041 -0.00698872)
(10.5409 0.089784 0.0534885)
(9.94746 0.125597 -0.193473)
(9.96381 -0.0448078 -0.072568)
(9.82933 -0.0382608 0.0617995)
(10.0869 -0.00704131 -0.0668745)
(10.1236 0.121736 -0.0773112)
(10.25 0.865517 -0.137141)
(2.62133 -2.02924 1.59219)
(2.3206 -0.429777 -2.08641)
(10.1382 0.106015 0.154884)
(10.1887 1.3932 -0.677984)
(10.5445 0.609607 -0.330783)
(10.6357 0.572071 -0.309887)
(9.99197 -0.0332515 0.0803887)
(9.93787 -0.0140481 0.0699997)
(10.0142 0.00574777 -0.0454163)
(9.94943 0.0762961 -0.0351055)
(9.99693 -0.0576902 -0.0127028)
(10.0899 0.0182677 -0.0563149)
(10.5877 0.560365 -0.19036)
(9.98628 -0.0659904 -0.0233443)
(9.96033 -0.0272797 -0.118118)
(10.5732 -1.28382 0.5608)
(11.1339 0.502826 -0.0836583)
(10.8012 0.413772 0.0811156)
(7.98998 -1.21647 -4.5748)
(0.10795 5.66187 0.0949237)
(10.1633 -0.191566 0.0250389)
(7.34949 -0.84307 -5.04246)
(0.340031 5.139 0.362055)
(9.80833 0.0730441 0.0502184)
(-0.0289034 5.72706 0.28826)
(8.87464 -1.9055 1.63547)
(9.97509 0.00805557 -0.060741)
(10.7766 0.601229 -0.29686)
(10.7432 0.623555 -0.338836)
(10.9712 0.55582 -0.233342)
(-0.848184 5.47936 0.257609)
(10.147 0.0739442 -0.043312)
(10.0412 -0.0482094 -0.0460543)
(10.0232 -0.0402145 0.0729502)
(11.0366 0.595378 -0.313693)
(10.9372 0.607502 -0.404971)
(10.0692 0.0496332 0.00444921)
(10.0238 0.0570822 0.0351108)
(9.88993 3.71384 3.19963)
(-0.957126 4.9156 -0.272859)
(12.474 -0.31073 -2.62363)
(10.0652 0.0399341 -0.0103188)
(8.70583 -0.646004 -2.85007)
(10.3089 0.292644 0.718764)
(10.0834 -0.0959939 0.0515403)
(10.6362 0.280489 0.0565683)
(11.4452 0.346234 0.299441)
(10.6185 0.187071 0.0223768)
(10.1549 0.0447532 -0.00851426)
(10.0174 -0.0055074 0.00211629)
(9.97938 0.033021 -0.0168252)
(10.4095 0.26127 -0.0529333)
(9.98954 -0.00142845 0.00440369)
(9.99083 -0.108647 0.0942011)
(9.9884 0.12081 0.114156)
(9.96601 0.193557 -0.0861476)
(10.7473 0.0678008 0.069506)
(10.0367 -0.0678599 0.0117445)
(10.108 -0.0398513 -0.12447)
(10.1348 0.0495271 -0.0243421)
(10.032 -0.0140196 -0.0351819)
(9.87751 -0.136268 0.0381905)
(10.3303 0.213508 -0.0820258)
(10.2524 -0.0383018 -0.0888698)
(9.87897 0.0335567 -0.0470451)
(10.6998 0.100826 0.0265754)
(9.42619 4.51992 2.6286)
(9.96901 -0.127339 -0.00113098)
(11.6036 1.58214 -1.05561)
(10.0206 -0.00218554 -0.0974289)
(10.4396 -0.211043 0.0374578)
(9.09857 -0.211899 1.23219)
(9.71059 1.29748 -0.405913)
(10.0196 -0.0170454 -0.0418971)
(9.78845 1.36341 -0.458179)
(10.0985 -0.0266051 -0.236197)
(9.8771 -0.0466809 0.0544441)
(9.94478 1.21462 -0.751195)
(10.0117 0.15817 -0.389269)
(10.2531 -0.182148 0.00934915)
(9.84834 1.07856 -0.472976)
(10.1875 -0.0801805 0.0552983)
(10.4165 -0.0329945 -0.23555)
(8.13808 0.225006 -3.63177)
(10.0248 0.0311636 0.00202581)
(9.64848 1.69917 -0.36099)
(9.91044 -0.118291 -0.0372943)
(9.04868 1.90103 -0.75652)
(10.0924 -0.171203 -0.011467)
(9.89405 -0.0761133 0.0152352)
(9.97614 0.111838 -0.0207399)
(10.0683 -0.018778 -0.00454144)
(10.9744 0.438423 0.669479)
(9.98132 0.0474114 -0.00822397)
(10.0257 -0.000718509 -0.0140531)
(10.0113 -0.00902527 0.046411)
(10.0628 0.0397631 0.0298273)
(10.9182 0.222136 0.12821)
(10.0873 -0.02499 0.0522818)
(10.0874 0.0103873 0.0486865)
(8.7769 0.255256 -0.332479)
(10.0639 0.00300041 0.00984068)
(9.90975 0.0280414 0.0426275)
(9.93888 -0.0473935 0.00934218)
(9.90688 0.00178049 -0.0852195)
(10.0445 -0.039849 0.0397209)
(10.0443 0.0172559 0.05712)
(10.0394 0.0411964 -0.0707148)
(10.1666 1.26654 -0.908872)
(10.0974 -0.00933236 -0.0101272)
(9.9361 -0.0133368 -0.0681429)
(2.88768 -0.264243 -5.16573)
(9.98044 0.105483 0.00763963)
(10.0651 -0.0268912 -0.0596895)
(9.99434 0.0394037 0.0227456)
(10.0538 0.013327 -0.00826342)
(12.3394 0.915058 0.165487)
(12.4152 0.532883 0.488966)
(9.97892 -0.0327078 0.134186)
(9.82107 -0.0114365 0.0545627)
(10.0798 -0.0452858 -0.148704)
(10.9078 -0.0626283 0.943773)
(9.82451 0.00236082 0.0804381)
(12.3689 1.29724 0.0928449)
(9.94806 -0.146859 0.0434635)
(-0.491282 -2.1646 3.39632)
(8.08729 -0.398672 -0.442165)
(9.72182 -0.636645 2.05674)
(9.91993 0.0820851 -0.125865)
(12.3054 1.16391 0.173166)
(9.98772 -0.00926779 -0.0461706)
(10.0515 0.0492085 0.0413937)
(10.1085 0.047306 -0.0126826)
(10.0779 -0.010289 0.0937221)
(10.0206 -0.026075 -0.0167649)
(10.0326 -0.0934837 -0.0460151)
(9.31311 -0.0266347 0.923444)
(9.96021 -0.00154831 0.021633)
(10.0131 0.160113 -0.0834531)
(10.0514 0.0300278 -0.0638606)
(12.2976 0.841607 0.16971)
(10.0445 -0.0824574 0.0400024)
(10.0626 0.00894464 -0.0250223)
(12.1188 0.961829 0.0531664)
(11.946 0.244188 0.303745)
(9.98159 0.0919183 -0.0245102)
(10.0089 -0.00194398 -0.0110234)
(-0.390995 1.62795 1.25513)
(9.88996 0.0461482 -0.00927555)
(10.2302 -0.249247 0.0851896)
(10.0013 0.0902548 0.0199191)
(10.0098 0.0771594 0.0963946)
(10.0816 -0.0158462 -0.029393)
(11.6964 0.40026 0.0495327)
(10.7653 -0.00801069 1.09756)
(9.51441 0.521653 1.00508)
(10.1001 0.0121182 -0.0233128)
(10.0815 0.114294 -0.0654007)
(9.93633 -0.0439722 0.0193855)
(12.4509 -0.177016 1.20604)
(9.39688 0.144895 -0.24746)
(9.94928 -0.0833033 0.0712519)
(-0.311067 1.37264 1.06649)
(10.0799 0.0194879 0.114551)
(10.0775 -0.02205 0.0115105)
(-1.27232 1.49872 1.42013)
(11.7661 1.99137 -0.923003)
(9.84779 0.0965077 0.0437575)
(0.106877 1.41006 0.597963)
(-0.0732498 1.74806 1.14841)
(10.0088 0.0487778 0.0225517)
(9.93847 0.068703 0.101571)
(10.0034 -0.0315169 -0.109464)
(9.72477 -0.272855 0.146214)
(10.0756 -0.116637 0.0637079)
(9.83059 -0.0159397 0.0266901)
(12.4831 3.1072 0.907284)
(10.1953 0.219036 0.17563)
(10.1165 0.156678 -0.0362257)
(10.1108 0.0362491 -0.0469797)
(12.2804 -0.0194916 0.309396)
(11.652 0.728389 0.0426648)
(10.1927 -0.222465 -0.169854)
(10.1832 0.21517 -0.123673)
(-3.85812 -2.42628 -0.369268)
(5.4753 -1.38453 -3.24594)
(10.6608 0.252213 -0.108955)
(9.99523 -0.0229145 0.11444)
(10.1131 -0.152354 0.0685152)
(10.7486 -0.140399 -0.55272)
(10.0145 -0.0165544 -0.178053)
(9.95464 0.115834 -0.173466)
(10.0691 -0.149933 -0.122882)
(10.2137 0.0688327 0.0728256)
(10.0266 0.0337932 -0.0468123)
(10.4121 0.230005 0.186825)
(10.1703 -0.0546536 0.171096)
(12.3923 0.85704 -0.422955)
(10.1596 1.45937 -0.944902)
(10.5085 0.207021 -0.161364)
(12.4488 1.04011 -0.701531)
(10.5146 0.0118558 -0.142273)
(9.87856 0.0180099 -0.0141548)
(10.5529 0.660847 0.172336)
(10.2504 0.0353566 -0.00904758)
(10.0277 0.125964 0.123716)
(10.1029 0.0308765 -0.0312267)
(10.2761 0.70883 -0.311541)
(7.98114 -0.622882 -1.01642)
(10.0642 -0.0337467 0.0820804)
(10.4968 0.196839 0.0768914)
(9.99811 -0.0806846 0.0938713)
(13.6339 -5.11365 -1.44818)
(10.7093 -0.43891 0.771957)
(11.1094 -0.0645876 0.674843)
(6.21029 1.49655 0.471728)
(6.05627 1.50549 0.33983)
(10.0438 0.0116529 -0.0236776)
(9.97059 0.209795 0.201035)
(5.17364 1.27633 -0.182279)
(10.0213 -0.0129936 0.0185564)
(9.84339 -1.66754 -3.02033)
(9.31503 0.252446 0.897358)
(9.9352 -0.0190824 -0.125857)
(9.93396 1.60314 1.10475)
(10.0668 -0.0637939 -0.00276126)
(10.0014 0.108586 -0.0184837)
(10.1099 -0.0390362 0.0948861)
(12.6498 0.335522 -0.0423901)
(9.86411 -0.0180696 0.0545698)
(9.96371 -0.118427 -0.0169047)
(10.0355 -0.0275002 -0.0264332)
(10.0366 0.138451 0.0626722)
(10.002 0.0103006 0.0123721)
(9.98594 -0.00848478 0.0848562)
(10.0652 0.0273065 0.0265812)
(9.92084 0.077024 -0.0269102)
(11.214 0.454893 0.451033)
(10.1429 2.12959 -3.48657)
(14.2307 2.0351 0.221093)
(10.5833 0.235242 -0.0302228)
(10.0507 1.04299 1.38594)
(10.2047 0.00603366 -0.0664861)
(9.37993 -0.839641 0.239779)
(10.2975 -0.0398935 -0.0908522)
(10.0164 0.103354 0.0740637)
(10.0997 0.0380309 0.0162173)
(10.0541 -0.00752888 -0.0407691)
(10.0329 0.0167945 0.153862)
(9.17994 0.258849 -0.70345)
(11.4195 0.262156 0.210906)
(10.0783 0.00504678 0.0657407)
(10.1926 -0.3034 0.12202)
(11.9368 0.937819 1.56136)
(10.1123 0.0240277 0.0430672)
(6.53586 -3.2879 3.18355)
(12.6511 -0.927719 -2.46936)
(9.87866 -0.0311198 0.0707247)
(9.56086 -0.356096 0.241556)
(10.4601 -0.171738 0.204001)
(10.0603 0.0617404 -0.0231706)
(7.16713 -0.993211 2.87773)
(9.96388 -0.0471899 0.0128737)
(9.69071 -5.35777 1.20297)
(10.0894 0.205715 0.0192995)
(11.086 -0.162546 0.835469)
(11.5358 0.484004 0.102192)
(10.0544 -0.0106807 -0.0859434)
(9.96543 0.112128 -0.0213103)
(10.3705 0.333842 -0.138514)
(8.58081 -0.578711 -1.89295)
(9.76357 -0.0112314 0.0171083)
(9.99002 0.152074 0.149922)
(10.1768 -0.0146007 0.108588)
(11.5934 -0.0191212 0.635313)
(9.98562 -0.0341631 -0.00889545)
(11.6919 0.453482 0.377586)
(10.1966 -0.0108293 0.065595)
(4.68282 2.94819 1.55061)
(11.4786 0.422475 0.177735)
(10.1988 -0.0178394 0.0850643)
(11.5481 0.428484 0.285429)
(10.068 -0.00862324 -0.0507209)
(10.1402 0.0257596 0.0474881)
(10.3686 0.231454 0.0370734)
(10.1828 0.0578026 0.00172661)
(11.7219 0.51111 0.242307)
(9.96983 -0.0710503 0.0627004)
(10.054 -0.30984 -0.00653693)
(11.6013 0.480016 0.138626)
(10.0226 0.0232653 0.074126)
(10.1889 0.0114765 -0.0155142)
(9.99755 0.0294816 0.0053984)
(10.0274 0.0168105 0.0231464)
(6.8098 0.242761 -4.58024)
(6.62389 -0.237706 -5.11481)
(10.1496 0.0711007 0.391698)
(8.72667 0.298104 -3.70954)
(10.0044 0.0406281 -0.0249322)
(9.92409 -0.0200338 -0.019524)
(10.5863 0.434255 -0.23628)
(10.1312 -0.150092 0.145442)
(9.78209 0.0469816 0.440113)
(10.1611 -0.0184234 0.0343832)
(9.97516 -0.0882913 -0.038569)
(10.0622 0.0284595 -0.0304715)
(9.97026 0.168668 -0.120501)
(5.17477 0.0453141 -5.71527)
(6.17238 -1.26574 -0.140692)
(10.0371 0.068873 -0.0333925)
(9.96798 0.0611033 -0.106711)
(9.8681 -0.106979 -0.00520149)
(10.0584 -0.0709199 0.0419972)
(9.96993 -0.0434304 -0.0324424)
(10.1181 0.103318 -0.00614901)
(10.7653 -0.212735 0.150152)
(11.1613 -1.54068 2.28775)
(10.0254 0.0361403 -0.0251983)
(9.95546 -0.151346 0.105501)
(10.1984 0.0517698 0.0674628)
(10.0142 -0.0245284 0.109788)
(9.90728 0.0994842 -0.0189588)
(10.1358 -0.0160656 0.0775124)
(10.311 -0.0672931 0.00353913)
(10.042 0.0268845 0.0283869)
(10.0045 -0.0745818 -0.121875)
(10.169 -0.13053 0.0771907)
(9.21421 -0.794442 -0.911915)
(5.07871 0.550201 -4.18065)
(9.94111 0.0421088 -0.0677836)
(-0.512269 -1.31049 1.18774)
(9.84489 -2.4897 1.30991)
(12.649 -1.28986 -0.816794)
(-0.241653 -1.44181 0.747557)
(10.0603 0.104839 -0.0305014)
(9.14112 -0.0997733 1.05073)
(10.279 -0.464316 -2.21884)
(10.9647 -0.994918 0.422145)
(5.62422 0.275768 -3.18851)
(-0.116326 1.40276 2.3467)
(1.37419 0.376195 -2.77291)
(11.0427 -0.0036277 0.530058)
(10.4062 0.0100819 -0.00481066)
(11.0487 -0.0345798 1.05331)
(10.1446 -0.0515744 0.0619702)
(3.96229 -0.243582 0.251911)
(10.6089 -0.0365384 -0.307018)
(10.4415 0.0213266 -0.0351)
(9.94106 -0.0438008 0.0107168)
(10.1563 -0.0503243 0.00531537)
(10.9559 -0.0407144 0.831418)
(9.63718 0.0778094 -0.10446)
(10.1592 0.1146 0.0459027)
(10.0039 0.0137756 -0.125296)
(-3.08381 0.567001 0.466631)
(8.11282 0.227684 -2.08286)
(10.2194 0.00386495 -0.107939)
(10.025 -0.0644455 -0.0252575)
(5.1936 0.328975 -1.78806)
(5.9464 0.142793 -2.48579)
(10.1387 0.537738 -1.94794)
(-1.28072 -2.91963 -1.29809)
(6.19358 0.914139 0.506197)
(4.40746 0.196562 -3.2127)
(4.10484 0.134885 -4.09056)
(10.1045 0.0445592 -0.0257478)
(9.94364 0.0487779 -0.0718445)
(9.60652 -0.0642664 0.160428)
(9.89997 -0.040921 -0.00621699)
(10.326 0.0236343 -0.103413)
(-0.464971 1.70863 1.43499)
(10.7364 -0.0822976 -0.231232)
(10.3666 0.0167751 -0.0555017)
(10.3125 -0.0137146 -0.0238651)
(10.0492 -0.0427393 -0.0119389)
(-0.295309 1.59686 1.99495)
(0.0342862 1.62321 2.08094)
(9.85024 -0.0846046 0.100347)
(10.27 -0.0653108 0.0125602)
(9.94035 0.0229503 0.0617336)
(9.9105 -0.010965 0.0433698)
(10.3055 -0.0856192 0.00760661)
(9.99233 0.0193068 0.0427454)
(9.70692 0.0267187 0.0051956)
(10.048 -0.0416721 -0.0445479)
(9.96031 -0.00673279 -0.0355351)
(6.79894 -0.533754 -2.6382)
(9.85697 0.0172315 -0.0925496)
(9.99024 0.0279977 0.0293273)
(9.96818 -0.101143 0.11842)
(10.0859 0.10171 -0.000482734)
(10.0731 0.015042 -0.0320171)
(4.09785 -0.430644 -1.86923)
(12.2913 -1.17187 0.0278589)
(9.96363 -0.0111872 0.000852597)
(10.5088 0.416979 -0.178437)
(10.0449 -0.0627104 -0.0596478)
(9.77012 -0.380911 0.235751)
(9.66599 -0.388143 0.350717)
(11.6084 -0.0111017 -0.0374608)
(10.0108 -0.104443 0.0530595)
(-1.22226 -0.200754 3.51805)
(11.7953 -0.0856006 -0.0338494)
(10.3275 0.141762 -0.0139567)
(10.5169 0.162471 0.00652007)
(8.05104 0.258618 -2.96184)
(14.3455 1.09728 0.0344956)
(10.0155 -0.107015 0.0154365)
(10.0378 -0.132982 0.0507494)
(12.3098 1.15271 1.635)
(9.9534 0.0509293 -0.212265)
(10.0645 8.55445e-05 -0.0371685)
(11.2609 0.25504 0.343818)
(9.98426 -0.122319 0.036667)
(9.93915 0.0625191 -0.00668263)
(1.84471 -1.23199 -0.90451)
(12.0475 -0.466131 0.452958)
(13.3418 2.24606 0.646327)
(10.0366 0.00165332 0.00987184)
(7.68245 0.428984 -2.19266)
(10.0136 -0.194466 -0.0469523)
(11.229 -0.968164 -0.200856)
(9.5854 -0.330591 0.483349)
(11.678 -0.0304004 -0.019397)
(10.2678 0.280514 0.0391575)
(9.43581 -0.318424 0.463235)
(4.4402 1.02147 0.0538241)
(12.44 1.26078 2.07412)
(11.914 -0.309225 -0.719279)
(-1.1016 1.7489 2.78266)
(11.5786 0.234446 0.131322)
(10.2902 0.017667 0.108695)
(10.3334 0.0398083 -0.0534786)
(11.4583 0.895473 -0.122277)
(9.95136 0.0177418 0.13511)
(11.8452 -0.0394424 0.128007)
(0.0675155 -0.894337 2.27744)
(9.94404 0.0666807 0.138306)
(12.203 0.029532 -0.97284)
(9.85492 -0.05485 -0.0731336)
(9.87815 -0.070641 -0.121201)
(11.3786 -1.96121 1.74984)
(10.0736 -0.102013 -0.134086)
(10.0036 -0.0760077 -0.0158628)
(8.62737 -5.63275 0.60495)
(9.58819 0.405343 -0.000496727)
(9.84851 -0.18543 0.157744)
(12.073 -0.786329 0.344936)
(10.1594 1.17119 1.3328)
(10.0701 -0.154228 -0.0511936)
(11.9003 -1.9707 -0.315046)
(5.4812 -0.615843 0.335711)
(10.3358 0.0684687 0.141963)
(9.52192 -0.644469 -0.571937)
(10.0535 -0.0252989 0.0515558)
(10.1274 0.15408 0.0360963)
(10.1676 -0.149664 -0.0522254)
(10.185 -0.0769531 0.0717029)
(5.24805 1.52208 -2.7245)
(0.595439 -0.55557 1.05002)
(11.4235 0.234664 -0.668685)
(9.68505 -0.963776 -0.0728041)
(11.2128 -2.01898 0.0200601)
(4.27264 5.23448 -1.36503)
(1.9307 -0.0347154 -1.6051)
(10.485 -3.25066 4.3354)
(10.1519 -0.030572 -0.0495802)
(10.0372 0.107362 0.0045854)
(9.86719 -0.0422002 0.0577993)
(10.053 -0.0995497 -0.0383667)
(7.36462 0.457023 -1.17795)
(9.64524 -0.485706 0.373854)
(9.39129 -0.432154 1.30597)
(9.87623 0.118341 0.136714)
(-1.55268 -0.843883 0.765581)
(11.7834 -0.0359622 0.00714481)
(9.89231 0.260875 -0.00850288)
(10.1405 -0.0270432 -0.0946386)
(10.043 0.0153275 -0.0144505)
(10.1239 0.0216097 -0.218962)
(6.19343 -1.71614 -2.7486)
(10.023 0.107715 0.0558931)
(7.16936 5.68756 -0.343026)
(10.046 -0.130744 0.0302562)
(10.0242 -0.552335 -2.65759)
(10.0353 0.00506936 0.0189689)
(10.1024 -0.00620026 0.0247589)
(10.148 0.0412068 0.198273)
(10.2555 0.0741864 0.0830914)
(9.90853 0.017393 -0.0647717)
(12.7269 0.0665697 -0.388545)
(12.138 -0.000492931 0.0262803)
(9.34484 1.0838 2.65594)
(7.60289 3.94115 2.78863)
(9.52507 0.874112 0.650824)
(10.2254 0.432503 -0.0245095)
(11.11 0.585681 0.202103)
(6.33196 -0.227786 -2.52456)
(10.2755 -0.106073 0.0431518)
(10.3499 0.0448509 0.00689933)
(10.0803 -0.39956 0.0923372)
(11.5124 0.0541143 -0.0420074)
(9.84454 0.238674 5.05039)
(8.1068 -0.343396 0.948737)
(10.2303 -0.247021 0.151631)
(10.0078 0.108356 0.0239182)
(9.5735 0.837647 -0.171108)
(10.1039 -0.0330365 0.000843282)
(10.0574 0.103931 0.000504359)
(14.6219 -1.73838 1.52689)
(11.808 -0.635091 0.688078)
(0.182024 3.7972 -0.127559)
(10.2001 -0.621099 0.285878)
(11.5536 -0.813749 -0.134399)
(10.303 -0.922315 -0.913567)
(13.2506 0.113412 -2.20016)
(10.035 -0.121189 0.162021)
(-0.426186 -0.836141 -1.89901)
(10.0829 0.00152991 -0.137206)
(10.0051 0.068923 -0.097203)
(10.7793 -0.175157 0.806726)
(11.2712 0.289524 5.25947)
(10.1554 -0.0949516 0.0709536)
(10.0323 0.386964 -0.324394)
(10.1166 -0.0900424 0.0173713)
(10.7195 -0.829367 0.639509)
(10.9173 0.0213832 1.03731)
(10.0629 0.0102303 -0.0518134)
(10.7841 -0.388081 -2.66881)
(10.085 -0.888673 -3.03336)
(12.7459 0.0427189 0.234535)
(10.1835 0.360276 -0.130417)
(9.68055 0.0561968 0.242828)
(3.22362 0.658562 -3.11572)
(1.12962 -0.290487 3.79537)
(5.57327 3.06496 1.0775)
(12.6523 -0.78465 -2.33737)
(6.03852 -0.34583 -0.108836)
(9.96669 -0.0303778 -0.160256)
(9.9608 0.0186944 -0.0435764)
(8.71614 1.41259 3.03986)
(10.0517 -0.165067 0.152128)
(4.66569 -0.552588 0.350993)
(10.0246 -0.11727 -0.218402)
(10.0012 -0.055799 -0.201225)
(-3.14085 2.71899 -0.447381)
(9.73126 -0.988885 0.942555)
(10.776 -0.153671 0.177182)
(10.0928 -0.113481 0.040977)
(9.60496 0.0899976 0.042391)
(8.26325 0.284169 -2.44421)
(10.0077 0.0806874 0.191949)
(10.0236 0.0216991 0.0416214)
(10.2686 0.492713 1.00776)
(11.9523 -0.694024 -2.46819)
(10.2823 0.256317 0.131671)
(9.84831 0.170947 -0.0486217)
(9.83555 -0.168153 0.0303192)
(9.91403 0.0639481 -0.141508)
(9.83127 -0.0714986 -0.0610416)
(11.5624 -0.705753 -1.59198)
(11.3478 -0.0646324 -0.128618)
(8.54017 0.0144433 0.29576)
(9.84191 -0.774417 0.587283)
(9.72804 -0.102283 -0.0493096)
(10.0055 -0.167883 -0.0406386)
(9.81869 -0.0306262 0.0960214)
(9.86786 -0.0706673 0.0425419)
(10.3784 0.758262 0.355937)
(11.6391 -0.992648 -0.263302)
(13.3599 -0.193673 2.67956)
(11.2186 -0.115472 0.386834)
(11.5246 -0.560116 -1.13413)
(10.0981 -0.157561 -0.528047)