/*--------------------------------*- C++ -*----------------------------------*\
| =========                 |                                                 |
| \\      /  F ield         | OpenFOAM: The Open Source CFD Toolbox           |
|  \\    /   O peration     | Version:  2506                                  |
|   \\  /    A nd           | Website:  www.openfoam.com                      |
|    \\/     M anipulation  |                                                 |
\*---------------------------------------------------------------------------*/
FoamFile
{
    version     2.0;
    format      ascii;
    arch        "LSB;label=32;scalar=64";
    class       volScalarField;
    location    "0.0817324";
    object      k;
}
// * * * * * * * * * * * * * * * * * * * * * * * * * * * * * * * * * * * * * //

dimensions      [0 2 -2 0 0 0 0];

internalField   nonuniform List<scalar> 
3991
(
0.29101
0.393599
0.294428
0.54458
0.29976
0.786606
0.315957
0.380476
0.649943
0.345199
0.481444
0.630107
0.304257
0.992025
0.308611
0.891485
0.313581
0.355511
0.539354
0.446314
0.539357
0.317689
0.569765
0.950369
0.480055
0.840793
0.482186
0.765167
0.364136
0.785935
0.551985
1.20714
0.374487
0.399601
0.953276
0.947326
0.570077
0.540321
1.04668
0.526807
0.442519
0.482189
0.396431
0.461743
0.376897
0.811438
0.640392
0.972446
0.908642
0.37571
0.313663
0.508264
0.302489
1.07729
0.304661
0.537733
0.465483
0.415636
0.434353
0.580955
0.317271
0.352707
0.56825
0.373064
0.518161
0.572307
0.443124
0.621326
0.336032
0.309782
0.669872
0.418453
0.313144
0.49096
0.333951
1.17269
0.333967
1.27879
0.31941
0.304294
0.544
0.423287
0.48466
0.559155
0.483912
0.458979
0.594013
0.316934
0.407351
0.377969
0.362712
0.66014
0.616101
0.478739
0.493034
0.314882
0.565699
0.560255
0.3068
0.541286
0.682508
0.546637
0.526088
0.441833
0.332096
0.318068
0.60535
0.307413
0.321031
0.30645
0.31293
0.303916
0.302465
0.329006
0.325814
0.324812
0.28753
0.283162
0.285131
0.29603
0.320078
0.553326
0.306114
0.463839
0.73148
0.460654
0.320121
0.293948
0.305796
0.32099
0.294293
0.304398
0.329256
0.693011
0.919037
0.617446
0.294898
0.312265
0.323805
0.329937
0.392951
0.958733
0.425816
0.824609
0.717858
0.340528
0.309285
0.337691
0.642847
0.29249
0.294176
0.290532
0.294409
0.520148
0.679535
0.56454
0.46004
0.849638
1.44885
1.30815
0.294955
0.356526
0.303335
0.925316
1.40242
0.809904
0.808003
1.17179
1.3629
0.334
0.329828
0.819094
0.680967
0.352515
0.306425
0.376761
0.462753
0.545941
0.313545
0.287693
0.361646
0.568271
0.518626
0.295392
0.388482
0.293675
0.37222
0.490939
0.405848
0.308423
0.383186
0.428832
0.549674
0.389812
0.408562
0.783239
0.381483
1.13683
0.296481
0.380334
0.89121
0.434771
1.1664
0.615922
0.790777
0.877093
0.716119
0.46315
0.727692
0.315518
1.04675
0.463475
1.13954
0.395738
0.957178
0.361621
0.688227
0.587748
0.515164
1.64929
0.446328
0.863739
2.918
0.563712
1.00886
0.818332
0.439402
1.21002
0.623212
0.287822
0.716716
0.328134
0.425056
0.318646
0.540999
0.70331
0.349699
0.950616
0.572086
0.37308
0.493402
0.449945
0.572401
0.401294
0.658528
0.854537
0.300161
0.561021
0.311535
1.18772
0.748943
0.528714
0.360825
0.400067
1.3002
0.675456
0.293306
0.474124
0.376823
0.338833
0.442262
0.371361
0.56936
0.471242
1.07973
0.467966
0.484717
0.816696
0.829894
0.944898
0.955673
0.926928
0.617003
0.836918
0.631173
0.547002
1.14482
1.0468
0.395144
0.465694
0.444591
0.818688
0.487408
0.492567
0.587044
0.541811
0.531471
0.409983
0.388402
0.382205
0.37431
0.309234
1.42252
0.398838
0.789886
0.818269
0.562962
0.304442
1.07562
0.306956
1.03429
1.09016
0.319801
0.73482
0.570233
0.530738
0.718251
0.289178
0.32052
1.34188
0.325042
0.320046
0.712504
0.33873
0.319381
0.296759
0.498761
0.384748
0.304035
0.367366
0.446997
0.306914
0.401049
1.01983
0.40245
0.430727
0.35059
0.315646
0.336208
0.311836
0.462917
0.433828
0.299059
0.294625
1.18417
0.552938
0.487337
0.369089
0.34787
0.616649
0.333987
0.307037
0.291099
0.331303
0.35233
0.338255
0.29707
0.435686
0.383852
0.615119
1.0166
0.327471
0.712814
0.422066
0.293478
0.850519
2.12568
0.872758
1.46852
0.28899
0.298191
0.409637
1.00315
0.333635
0.347331
0.328384
0.966305
0.559636
1.16344
0.3984
0.362453
0.390601
0.483531
0.609907
0.440162
0.325527
0.355346
0.704192
0.385124
0.332238
0.313588
0.303139
1.02032
0.332251
0.317408
0.3234
0.687549
0.301849
0.297806
0.397897
0.340956
0.877398
0.297106
0.395127
1.02928
0.292879
0.576628
0.81905
0.95532
0.663319
0.326756
0.491487
0.797735
0.697194
0.367647
0.545261
0.301946
0.820591
0.592113
1.01124
0.344723
0.402057
0.317011
0.364291
0.314162
0.344853
0.473431
0.311255
0.435056
0.324271
0.298264
0.403824
0.345307
1.14275
0.357192
0.460391
0.33381
0.36314
0.395538
0.28918
0.505301
1.08479
0.509517
0.323297
0.384764
0.337285
0.510866
0.584362
0.370153
0.318121
0.390158
0.290051
0.293172
0.539315
0.441366
0.576609
0.411998
0.692177
0.418995
0.588041
0.810815
0.489837
0.309328
0.359403
0.531701
0.409848
0.334202
0.730393
0.659621
0.345264
1.04959
0.307688
0.306877
0.810782
0.368584
0.745646
0.391063
0.306033
0.319721
0.30721
0.512405
0.320535
0.370175
0.925596
0.29472
0.486577
0.409785
0.350282
0.316594
0.303733
0.337925
0.443102
0.307794
0.710105
0.613038
0.327742
0.357427
0.308988
0.297546
0.311968
0.41244
0.314618
0.327914
0.318226
0.339993
0.329365
0.550493
0.343078
1.34502
0.333791
0.302066
0.64236
0.368014
0.569513
0.327058
0.34721
0.334327
2.52197
0.358633
0.324754
0.365487
0.428506
0.545333
0.882018
0.607324
0.624138
0.399507
0.326304
0.759157
0.505944
0.451837
0.918623
0.940025
0.615051
0.580762
0.506161
0.869463
0.29515
0.289674
0.320129
0.288628
0.475262
0.412852
0.698979
0.4483
0.369643
0.47372
0.28708
0.323068
0.552249
0.311737
0.826191
0.451028
0.356026
0.30416
0.300376
0.49674
1.03701
1.58888
0.593437
0.602061
0.486502
0.674826
0.586458
0.472754
0.509211
0.293308
0.483674
0.571292
0.422911
0.52296
1.62179
1.00433
0.410732
0.861963
0.46069
0.548923
0.54991
0.496899
0.396474
0.392596
0.316484
0.312979
0.316888
0.319498
0.324907
0.759491
0.427975
0.399009
0.389902
0.450744
0.398287
0.806162
1.336
0.922395
1.15911
1.69803
0.306072
0.334812
0.291789
0.336449
0.331211
0.288064
0.339112
0.355639
0.295626
0.282845
0.288501
0.299151
0.32217
0.303045
0.295894
1.03053
0.492906
1.40045
0.337277
0.940961
2.29091
0.486391
0.491589
0.336408
0.350368
0.338505
0.452219
0.475584
0.477738
0.336769
0.315412
0.326626
0.31257
0.327859
0.338478
0.334827
0.317362
0.331262
0.408845
0.370428
0.341154
0.623481
0.450857
1.34594
0.33661
0.420389
0.605691
0.418339
0.318927
0.329345
0.331507
0.311258
0.33443
0.33933
0.367557
0.383372
0.299843
0.398102
0.370207
0.488349
0.302578
0.728666
0.526123
0.344507
0.455424
0.619373
0.309291
0.308228
0.301016
0.331542
0.652014
0.791226
0.79546
0.593795
0.799299
0.831472
0.582952
0.41961
0.328541
0.325288
0.644759
1.08273
1.71485
0.321716
0.314043
0.322642
0.441598
0.322774
0.36792
0.571141
0.514226
0.40849
0.401789
0.378417
0.30811
0.324101
0.622768
0.837925
0.301198
0.327822
0.326248
0.314238
0.367195
0.293808
0.290412
0.326239
0.297506
0.315747
0.303121
0.396301
0.31595
0.691949
0.816249
1.4931
0.289803
0.360228
0.296593
0.302332
0.367172
0.603296
0.646852
0.547849
0.794379
0.309143
0.410276
0.398994
0.400521
0.306689
0.784233
0.345937
0.431018
0.375578
0.823483
1.24357
1.11033
0.326605
1.57973
0.333461
0.701143
0.32539
0.458803
0.667242
0.73105
0.454636
0.812041
0.289332
0.559127
0.848761
0.41912
0.319449
0.318876
0.332652
0.481757
0.305027
0.356393
0.303006
0.323779
0.580369
0.458991
0.704836
0.649231
0.586755
0.596294
0.376642
0.439042
0.601331
0.362264
0.599041
0.964101
0.873409
0.977651
0.859666
0.601023
0.436547
0.401673
0.539171
0.346695
0.883747
0.71004
0.970926
0.804735
1.11455
0.641852
0.818648
0.670562
1.05276
0.41964
0.427235
0.300192
0.681263
0.348873
0.347185
0.348824
0.31651
0.339773
0.47157
0.51443
0.43677
0.357498
0.391666
0.431327
0.404562
0.449584
0.34807
0.359445
0.349393
0.326988
0.297748
0.304986
0.36581
0.401773
0.320273
0.977949
0.284972
0.630577
0.344885
0.304514
2.08243
0.82806
0.713772
0.78574
0.386749
0.417943
0.328313
0.768927
0.307745
0.590107
0.555749
0.377357
0.302113
0.630066
0.302531
0.591369
0.492805
0.91587
0.742119
1.00102
0.322991
0.333135
0.80145
0.86693
0.460911
1.2249
0.380818
1.13435
1.18283
0.564957
0.310015
0.291296
0.414703
0.554216
0.808564
0.373985
0.355532
0.352624
1.14864
0.725589
0.295484
0.304958
0.385023
0.290818
0.284682
0.287015
0.308961
0.287799
0.28556
0.291482
0.841469
0.854464
0.916646
0.919923
0.711155
0.578639
0.949539
0.599253
0.562342
0.496517
0.829621
0.368151
0.343838
0.420087
0.38143
3.85331
0.291286
0.491659
0.53936
0.720694
0.828613
0.842275
0.498016
0.653163
0.897462
0.540047
0.850697
0.84356
1.88846
0.722003
1.04765
0.837682
0.289259
0.287043
1.03774
0.608949
0.290508
0.289684
0.349926
0.343469
1.7027
0.344215
0.375209
0.326551
0.314083
1.21237
0.307598
0.306687
0.318421
0.333328
0.364128
0.36946
0.318531
0.935876
1.01316
0.530271
0.565436
0.419724
0.530239
0.366194
0.442133
0.356381
0.424432
0.282933
0.34344
0.289764
0.312235
0.305092
0.387479
0.30603
0.316087
0.658609
0.309019
0.351109
0.723027
0.368916
0.37536
0.955065
0.511797
0.354514
0.400107
0.432577
0.628949
0.36241
0.445124
0.300826
0.765825
0.503018
0.366201
0.316882
0.43378
0.403688
0.445453
0.795392
1.53301
0.535006
0.495666
0.390082
0.440447
0.305081
0.303934
0.340016
0.294055
0.374759
0.346206
1.34307
0.48092
1.29447
1.3654
1.03154
0.749137
0.855938
0.52664
0.477632
0.705746
1.80831
0.500325
0.408847
0.330247
1.33227
0.374525
0.286494
0.298953
0.335137
0.314091
0.438033
0.348714
0.397412
0.322395
0.302035
0.974508
0.523434
0.297193
0.686715
0.314091
0.652299
0.308305
0.318065
0.288259
0.441689
0.288052
0.344674
0.328794
0.976988
0.386419
0.739422
1.12741
0.566382
1.16493
0.360808
0.43296
0.996283
1.17244
0.357967
0.337629
0.403308
1.03048
0.361688
0.563365
0.403024
0.397527
0.381588
0.474843
0.377568
0.331988
0.39449
0.377645
0.411896
0.30062
0.37645
0.55199
0.374217
0.790534
0.329688
0.298257
1.09054
0.346199
2.88426
0.810036
0.591035
0.753456
0.334182
0.749661
0.559318
0.349769
0.432472
1.41052
0.536826
0.649268
1.04148
0.860531
0.383719
0.539918
1.41378
0.680701
0.339419
0.721528
0.736235
1.07775
0.431514
0.74059
0.443366
0.590918
0.333972
0.33382
1.06455
1.45779
0.784127
0.881234
0.855309
1.20705
0.527883
0.669506
0.349068
0.661734
0.723828
0.418289
0.672565
2.50022
2.3438
1.20927
0.302358
0.402333
0.608329
0.328048
0.288006
0.373132
1.00898
0.358201
0.335577
0.454548
0.367591
0.329297
0.537012
0.856041
0.36702
0.806317
0.291735
0.317694
0.427587
0.313807
0.318941
0.458726
0.927452
0.319651
0.371239
0.321809
0.339547
0.300234
0.391974
0.388552
0.430255
0.996112
0.544169
1.17546
0.547478
1.37787
1.86472
1.32667
0.539707
0.473558
1.21982
0.593372
0.621223
0.935143
0.766157
0.914765
0.970051
0.478787
0.565374
0.688496
0.526879
0.765972
0.930992
0.39034
0.50826
0.426017
0.286177
0.440141
0.409411
0.37509
0.322097
0.346449
0.999454
0.334406
0.690038
0.618367
0.291393
0.300199
0.719023
0.633103
0.320089
0.453768
0.51042
0.755854
0.545729
1.03515
0.430289
0.604811
0.491877
0.683744
1.58653
0.61043
0.314519
0.32409
0.370405
0.319983
0.370957
0.964098
0.561705
1.57585
0.832465
0.587985
0.914138
0.573238
0.313333
0.322399
0.364329
0.571785
0.371059
0.310429
0.315746
0.490047
0.532677
0.461029
0.318668
0.409257
0.381067
0.289933
0.292153
0.296993
0.306653
0.297871
0.84216
0.33355
0.402322
0.444914
0.666463
0.873938
0.459454
0.420155
0.384697
0.492485
0.528821
0.344925
0.365076
0.371553
0.543082
0.552786
0.410193
0.461765
0.415172
0.310083
0.320226
0.308639
0.309981
0.316152
0.318286
0.314007
0.323327
0.325
0.320672
0.334641
0.310344
0.305647
0.493242
0.437801
0.402918
0.488235
0.525504
0.497997
0.518972
0.313964
0.324947
0.330931
0.349127
0.402344
0.454656
0.685843
1.0183
0.539811
0.517757
0.912083
0.408025
0.55518
0.802319
0.644039
0.81275
0.471582
0.831888
0.559618
0.5401
0.816148
0.385086
0.817104
0.42368
0.957219
0.618092
0.499663
0.395879
0.371806
0.590283
1.03665
0.417389
0.635259
1.08074
0.487226
0.329636
0.551883
0.417873
0.655072
0.824944
1.32954
0.389993
0.543166
0.39102
0.560687
0.403152
1.68465
0.45515
0.398795
0.362994
0.360203
0.535497
1.10174
1.08537
0.777884
0.517883
0.877976
0.689753
0.44364
0.668422
0.555374
0.442504
0.524962
0.511042
0.284438
0.286458
0.286396
0.49854
0.286449
1.40244
0.731283
0.874965
0.619777
0.288334
0.286773
0.401284
0.510682
0.779303
1.11408
0.301941
0.584395
0.290075
0.460277
0.562397
0.880351
0.565868
0.473727
0.347634
0.347434
0.287888
0.494196
0.805986
0.843212
1.14895
0.598783
0.774232
0.288445
0.309014
0.286696
0.291878
0.293826
0.306049
0.303153
0.377178
0.318016
0.384884
0.872577
0.840701
0.492561
0.32412
0.29914
0.346489
0.474968
0.305233
0.297012
0.329899
0.300127
0.370223
0.367349
0.39129
0.745292
0.343742
0.690407
0.519576
0.413285
0.329338
0.352161
0.455133
0.327606
0.33778
0.368366
0.332233
0.385646
0.720168
0.66081
0.305237
0.281267
0.901221
1.34018
1.23246
0.314383
0.312838
1.01033
0.523498
0.450719
0.983948
0.537109
0.978236
0.436688
0.356638
1.12872
0.783486
0.471114
0.447562
0.412489
0.719602
0.43846
0.50313
0.409491
1.04377
0.836228
0.351676
0.296905
0.437622
0.616722
0.390904
0.794022
0.646245
1.0079
0.785541
0.308986
0.370103
0.286919
0.292092
0.398604
0.346996
0.372223
0.30981
0.891035
0.762769
0.774075
0.807757
1.01494
0.613184
0.774712
0.581608
0.580446
0.913424
1.23237
0.337002
1.15619
0.364425
0.35162
0.511318
0.870624
0.365917
0.405883
0.312691
0.417477
0.357797
0.595853
0.691218
0.357016
0.383647
0.45547
0.480144
0.452824
0.973894
0.60384
0.571374
0.501323
0.389716
0.321318
0.435133
0.770475
0.807262
0.507291
0.566716
0.699063
0.485966
0.459576
0.836359
0.486595
0.61528
0.830877
0.491723
0.570471
0.906813
0.689404
0.704403
0.81872
0.360365
0.322227
0.310104
0.357316
0.323506
0.318964
0.338291
0.470214
0.39366
0.288281
0.285425
0.285822
0.293377
0.629484
0.587342
0.583596
2.13028
0.291395
0.294573
0.317733
0.298993
0.30757
0.286481
0.28814
0.288888
0.330939
0.323385
0.563164
0.422407
0.679735
0.302692
0.408405
0.345762
0.546273
0.306504
0.592788
0.461143
0.827908
0.473238
0.285999
0.329435
0.807348
0.807209
0.511002
0.297162
0.60474
0.297583
0.328685
0.811395
1.02139
0.722415
0.961006
0.995723
0.489438
0.901454
0.794608
0.581295
0.301656
0.513457
0.287642
0.368633
1.01175
0.455866
0.340192
0.967142
0.496077
0.320088
0.557858
1.74354
0.315549
0.343392
0.32624
0.386893
1.35653
0.435114
1.44405
0.320335
0.638712
0.34733
0.517344
0.638892
0.899338
1.09746
0.416161
0.60983
0.585977
1.98092
0.554997
0.839196
1.12652
0.585163
0.767872
0.413561
0.402578
0.359853
0.320537
0.354813
0.326592
0.631088
0.338002
0.313858
0.310201
0.316976
0.454798
0.378696
0.429186
0.412995
0.367353
0.351241
0.313001
0.340634
0.286069
0.300638
0.314161
0.295538
0.346061
0.286782
0.351409
0.380395
0.419151
0.378094
0.464209
0.30383
0.29361
0.302364
0.307036
0.832627
0.297533
0.327919
0.48551
0.386115
0.300845
0.831853
0.529213
0.383226
0.311092
0.352116
0.336037
0.31927
0.31016
0.836708
0.286832
1.09126
0.301909
0.313045
0.292545
1.02023
0.989229
0.376483
0.986846
0.286936
0.843723
0.794061
0.360251
0.615523
0.441607
0.842901
0.377526
0.380473
0.378976
0.344233
0.320012
1.36379
0.577898
0.354631
0.588132
0.306375
0.355839
0.301696
0.327542
0.741125
0.561002
0.373741
0.310547
0.436991
0.335295
0.373625
0.609509
0.516683
0.973722
0.292565
0.373744
1.20015
0.391742
0.316056
0.343957
0.304393
0.305228
0.366419
0.287731
0.29966
0.341511
0.372474
0.286836
0.33967
0.341382
0.325678
0.322599
0.294808
0.296805
0.304118
0.456096
0.312825
0.286163
0.931134
0.788501
0.483028
0.413256
0.31188
0.390953
0.306451
0.363161
0.328717
0.289417
0.916605
0.317418
0.853941
0.288145
0.387317
1.13299
0.466318
0.445849
0.923578
0.95404
0.646717
0.891717
1.11684
0.553788
0.454311
0.395547
0.30646
0.284501
0.804828
0.413768
0.432782
0.440379
0.325717
0.577834
0.38191
1.13488
0.401639
0.386436
0.379757
0.965879
1.17943
0.642689
1.25069
0.996882
0.645352
0.702041
0.291776
0.830312
0.322839
0.300652
0.317412
0.308661
0.33191
0.294908
0.299014
0.331622
0.348493
0.85351
0.603889
0.783046
0.35896
0.709688
0.4009
0.372102
0.3387
0.34629
0.525936
0.384992
0.337717
0.435426
0.545992
0.803271
0.392849
0.540239
0.846681
0.869264
1.35906
0.675767
0.813331
0.781906
0.336471
1.08767
0.933882
0.380034
1.77529
1.62481
0.659118
0.52455
0.504492
0.960008
1.01409
1.12056
1.1101
1.33777
1.10656
0.296907
0.451636
0.708203
0.896137
1.02762
0.618081
0.336561
0.415394
0.314146
0.294549
0.868361
0.512522
0.484334
0.821066
0.354824
0.304585
0.31474
0.342688
0.349166
0.459269
0.301978
0.491552
0.428464
0.377798
0.764068
0.297565
0.301702
0.336761
0.361659
0.344124
0.378981
0.322215
0.347045
0.340201
0.343234
0.326468
1.17318
0.403704
0.396436
0.739832
0.392927
0.59119
0.414024
0.529722
0.678992
0.554293
0.597765
0.477947
0.377803
0.410742
0.339013
0.464403
0.462742
0.333467
0.298981
0.373513
0.40085
0.341631
0.391379
0.34779
0.35678
0.362353
0.959332
1.2614
0.969781
1.27854
0.433927
0.298431
0.295045
0.312523
0.314357
0.314554
0.761861
0.286375
0.299761
0.321777
0.586889
0.330457
0.34065
0.346931
0.371926
0.500114
0.449017
0.28606
0.671678
0.426211
0.443707
0.392634
0.457734
0.375556
0.35369
0.377196
0.673369
0.511804
1.3361
0.627582
0.587965
1.20074
0.535694
1.1235
0.502215
0.494795
0.469789
1.02516
0.535666
0.466314
0.719847
0.998652
0.456568
0.414524
0.479298
0.321954
0.953556
0.574582
0.884551
0.560911
0.338554
0.327383
0.915902
0.286277
0.354833
1.51427
0.455195
0.901754
0.393211
0.880156
0.612455
1.18673
1.36105
0.295822
0.390921
0.303419
0.337438
0.301236
0.324215
0.435715
1.00651
0.381501
0.491972
0.998092
0.374965
0.450328
0.475867
0.322247
0.430018
0.59795
1.02459
0.446257
0.52559
0.532157
0.325182
0.315166
0.969599
0.818656
0.551679
0.408549
0.992666
0.457856
0.425987
0.406972
0.308837
0.313747
0.295474
0.314545
0.306387
0.306679
0.603396
0.610282
0.481678
0.437895
0.312185
0.285098
0.488741
0.794116
0.898049
0.470715
0.444707
0.763857
0.463298
0.390764
0.432475
0.46716
0.515039
0.54444
0.569852
0.429752
0.434551
0.794646
0.481318
0.447465
0.521754
1.54459
0.477137
0.340557
0.328346
0.290133
0.298974
0.603595
0.515307
0.32748
0.37313
0.484038
0.33025
0.337727
0.327537
0.344136
0.334845
0.351099
0.356782
0.370456
0.567106
0.65159
0.299596
0.327118
0.288437
0.704778
0.4024
1.08654
0.346361
0.993644
1.02134
0.64918
0.516869
0.480771
0.408333
0.810765
0.42702
0.39128
0.557938
0.349917
0.383131
0.823259
0.496974
0.979978
0.395473
0.50967
0.382656
0.635504
0.439843
0.483767
0.416268
0.396183
0.488519
0.433661
0.295013
0.769784
0.754029
0.31753
0.313564
0.315959
0.337397
0.820313
0.849064
0.532796
0.911469
0.343091
0.341284
0.348003
0.756944
0.711729
0.631171
0.598023
0.345448
0.585995
0.568838
0.607384
0.56064
0.311152
0.853696
0.442556
0.506951
0.479872
0.754905
0.75116
0.679855
0.488181
0.313203
0.312279
0.641672
0.343767
0.317403
0.541381
0.509961
0.498668
0.487541
0.702241
0.373772
0.38823
0.343651
0.779189
0.341438
0.287425
0.292513
0.296813
0.300681
0.301437
0.351861
0.328214
0.298631
0.362301
0.371714
0.381676
0.370647
0.326661
0.33772
0.33552
1.08501
0.287477
0.698637
0.289412
0.505389
0.460344
0.286024
0.326179
0.435527
1.02524
0.52042
0.359004
0.32986
0.364292
0.364742
0.384009
0.833368
0.370386
0.374024
0.530998
0.393596
0.319045
0.360832
0.472464
0.475779
0.831261
0.591961
0.766577
0.668925
0.701162
0.386523
0.379297
0.432874
0.362536
0.393854
0.35953
0.693218
0.319407
0.416043
0.418241
0.504662
0.43242
0.330644
1.00069
0.807033
0.86995
1.10453
0.905724
1.11372
1.37577
0.331457
1.06748
0.43695
0.380307
0.365029
0.356161
0.316991
0.29627
0.293528
0.284533
0.319908
0.295034
0.741614
0.795902
0.87768
1.27367
0.432324
0.375187
0.370071
0.393118
0.316191
0.314588
0.647446
0.46277
0.623514
0.313451
0.824829
0.300173
0.795754
0.49377
0.327471
0.328664
0.850826
0.471387
0.704866
0.350999
0.283834
1.62153
0.335582
0.353357
0.30975
0.315381
0.320503
0.291026
0.301502
0.902558
0.296169
1.82276
3.77213
0.293456
0.291593
0.858562
0.367054
0.332972
0.799393
0.445022
0.34239
0.325117
0.401017
0.343355
0.520056
0.726399
0.54234
0.581047
0.740546
0.525645
0.757759
0.554767
1.45742
1.40488
0.695479
0.821699
0.328263
0.331148
0.333696
0.52487
0.561936
0.310442
0.807579
0.621023
0.290837
0.394651
0.375178
0.321127
0.525368
0.903757
0.433603
0.426721
0.828617
0.514964
0.629922
0.903484
0.316712
0.407318
0.359367
0.393753
0.403679
0.71217
0.577749
0.611025
0.837634
0.581809
0.298377
0.295398
0.373737
0.345081
0.333006
0.670023
0.565384
0.575918
0.999103
1.67222
0.311501
0.323062
0.342395
0.334317
0.340649
0.3211
0.338415
0.629092
0.962266
1.21363
0.703478
0.704824
0.762263
0.496213
2.35996
1.1536
0.959352
0.636181
0.540012
0.948475
0.580724
0.310669
0.680341
0.414867
0.731941
0.557848
0.584284
0.424714
0.508057
0.846936
0.450338
0.372076
0.408454
0.496948
1.14068
0.302181
0.572474
0.376654
0.342156
0.412763
1.19132
0.808653
0.332429
0.516211
0.332656
0.30636
0.322709
0.335461
0.297682
0.513289
0.474325
0.666376
0.43395
0.501044
1.2218
0.584965
0.776362
0.367846
1.11474
1.16937
1.18197
0.625653
0.670182
0.66834
0.764976
0.788765
1.20834
1.19367
1.08827
1.03208
0.775146
0.362357
0.333581
0.307536
0.301005
0.367458
0.413105
0.329039
0.301093
0.306803
0.616969
0.318107
0.300339
1.05765
0.455463
0.575082
1.0468
0.41224
0.486274
0.48871
0.78405
0.369461
0.366749
0.584755
0.3702
0.358164
0.397519
0.329
0.486054
0.337363
0.34227
0.308264
0.304063
0.386679
0.568269
0.414545
0.533258
0.35599
1.13503
0.538233
1.3519
0.363792
0.462365
1.00969
0.356937
0.373391
0.419987
0.429666
0.574911
0.480687
0.530214
0.358535
0.354311
0.376728
0.363159
0.440849
1.11392
0.819389
0.405064
0.32285
0.460854
0.591533
0.763608
0.781501
0.664817
0.884149
0.453192
0.402572
1.31821
0.639172
0.705527
0.298468
0.389943
0.997844
1.20011
1.00675
0.401572
1.00502
0.391376
0.662062
0.46987
0.305682
0.316048
0.298568
0.314329
0.322752
0.310522
0.288938
0.289523
0.287249
0.438554
0.294595
0.338094
0.313461
0.317763
0.32775
0.342347
0.426669
0.551401
0.423769
0.523814
1.44035
0.856327
0.511839
1.16112
0.369571
0.384481
0.48577
0.476324
0.978528
0.321397
0.320194
0.340103
0.673013
0.500701
0.522928
0.369542
0.563567
0.542889
0.511123
0.353525
0.317475
0.72161
0.58118
0.405282
0.802348
0.305268
0.423908
0.34659
0.633126
0.324948
0.340785
0.323759
0.361928
0.853462
0.616352
0.441023
0.410833
1.3612
0.397826
0.485263
0.695398
0.841471
3.92662
0.537361
0.314036
0.383122
0.784259
0.317217
0.557675
0.488412
0.457763
0.736939
0.688076
0.538641
0.35907
0.311217
0.452429
0.316756
0.338144
0.460802
0.388301
0.408259
0.325715
0.330883
0.658326
0.688359
0.437384
0.326165
1.0141
0.350692
0.55815
0.53217
0.729024
0.696562
0.826549
0.710027
0.34163
0.366934
0.518032
1.16672
0.746076
0.403391
0.902388
0.395628
0.307536
0.386507
0.367779
0.729687
0.697485
0.614283
0.777833
0.904525
0.318413
0.847492
0.567518
2.09762
1.22823
0.511421
0.687685
0.323953
0.307932
0.531952
2.32233
0.871761
0.936889
1.0221
0.523637
0.799854
0.927555
0.801957
1.00029
0.866587
0.921227
0.46195
0.565697
0.731106
0.331885
0.545536
0.302206
0.379938
0.356732
0.866445
1.04299
0.748292
0.340896
0.379251
0.357083
0.866482
0.709304
0.576329
1.71208
1.81107
1.27488
0.951841
0.605666
0.306406
0.421123
0.791294
0.40064
1.0421
0.398726
0.602415
0.316828
0.49193
0.285239
0.798363
0.849986
0.878902
0.728331
0.889477
0.290458
0.417481
0.388466
0.413726
0.434641
0.291784
0.351767
0.35195
1.13693
0.668314
0.403965
0.819663
0.628435
0.414719
0.482728
0.326974
0.330266
0.38835
0.322394
0.328561
0.322203
0.328784
0.362546
0.313147
0.314173
0.315481
0.350698
0.323603
0.293007
0.820923
0.851075
0.695994
0.294077
0.653052
0.394346
0.322773
0.314733
0.318284
0.30139
0.883826
0.285301
0.311861
0.325046
0.34661
0.284887
0.285687
0.286357
0.299868
0.308243
0.305943
0.299732
0.305345
0.427029
0.293702
0.305552
0.946785
0.444731
1.01909
0.53969
0.685296
0.664706
0.508864
0.641738
0.464662
0.534708
0.847256
0.492188
0.451796
0.749793
1.02986
0.836845
0.825103
0.837379
0.670124
0.654751
0.361303
0.498877
1.19957
0.87467
0.316969
0.784853
0.711012
0.310006
0.45185
0.993222
1.01378
0.544909
0.433867
0.870095
0.510329
0.639679
0.429283
0.297151
0.856724
1.04294
1.01978
0.442095
1.03866
0.90717
0.650586
0.863644
0.759438
0.674601
0.364235
0.923018
0.965936
1.16754
1.04581
0.690886
0.830703
0.311601
0.553566
0.309962
0.35544
0.379643
0.308409
0.421272
0.317883
0.320459
0.35512
0.322832
0.402888
0.322078
0.31791
0.304988
0.310175
0.338335
0.401231
0.310349
0.359669
0.331981
1.12479
2.74007
0.508087
1.27898
0.301526
0.313501
0.307425
0.804678
0.59431
0.693041
0.572289
0.288587
1.38425
0.285233
0.310161
0.480228
1.3785
0.488565
0.402776
0.577146
0.311511
0.308569
0.378172
0.350139
0.371741
1.14373
3.10901
0.670365
0.472857
0.756075
1.12319
0.625669
0.523682
0.489139
0.854103
0.720622
0.335974
0.30012
0.319241
0.429774
0.35428
0.333788
0.329029
0.809687
0.361228
0.341774
0.308866
0.308506
0.304295
0.654909
0.976802
0.647773
0.962632
0.359134
0.284838
0.364598
0.500362
0.349245
0.636249
0.404535
0.873597
0.366158
0.768346
0.928386
0.628799
0.616828
0.599105
0.644221
0.875419
0.735879
0.674607
0.904565
0.567497
0.370762
0.884708
0.870299
0.78083
0.422536
0.818392
0.555944
0.634061
0.427493
0.55657
1.13024
0.325989
0.306532
0.314408
0.328873
0.500051
0.323517
0.293898
0.758414
0.580638
0.28589
0.730527
0.288062
0.360119
0.279702
0.535378
0.386391
0.319468
0.311526
0.421035
0.453974
0.328916
0.59158
0.406135
0.746817
1.07319
0.304542
0.823335
1.0919
0.920123
0.953698
1.08747
0.746267
0.952964
0.929699
0.450428
0.959783
0.38093
0.511695
0.536474
0.548068
0.442224
0.649612
0.475904
0.485521
0.829259
0.31097
0.428193
0.401779
1.54214
0.412517
0.847126
1.04078
0.360881
0.450371
0.36526
1.17898
1.19786
0.446209
0.587429
0.455581
0.384997
0.42798
0.404938
0.315694
0.751336
0.423777
0.376705
0.56744
0.424726
0.427721
0.423115
0.475204
0.3252
0.434659
0.35264
0.309205
0.32077
0.440888
0.660154
0.294994
0.920968
0.597321
0.366479
0.4255
0.738815
0.701919
1.00474
0.782622
0.771391
0.788752
0.752314
0.475098
0.398704
0.402192
0.95067
0.796598
0.849601
0.654228
1.56912
1.18913
1.3585
0.48575
0.449493
0.582027
1.3049
0.90925
0.355555
0.317731
0.522209
0.361278
0.379131
0.317402
0.319508
0.338691
0.366453
0.487591
0.338081
1.10756
0.7817
0.378546
0.980326
0.602013
0.557285
0.305998
0.996352
1.06804
0.298391
0.302815
0.40107
0.332643
0.55517
0.436493
0.600339
1.44581
1.02911
0.684587
0.825818
1.05625
1.05511
1.08398
0.832053
0.678918
0.9356
1.15806
0.6363
0.81235
0.981469
1.61879
0.508436
0.579912
0.927357
0.33808
0.350506
0.401226
0.343674
0.329712
0.369709
0.337201
0.318839
0.319636
0.376657
0.428532
0.33017
0.288216
0.327182
0.404781
0.331376
0.39325
1.0309
0.738297
0.508872
0.366683
1.04481
0.880602
0.789818
0.890464
0.712664
0.785709
1.01472
1.43524
1.4665
0.81804
0.878761
0.473689
0.339352
0.336888
0.322828
0.352741
0.365148
0.336999
0.367968
0.357729
0.335381
0.314448
0.286323
0.373704
0.364877
0.989933
0.408235
0.831661
0.570686
0.810553
0.30521
0.304171
0.366122
0.470303
0.364977
0.304384
0.359317
0.377592
0.356555
0.370924
0.377526
0.653536
0.603379
0.842569
0.394346
0.508045
0.912173
0.833427
0.313588
0.351743
0.416224
1.33276
0.871115
0.326331
0.299313
0.311949
0.33045
0.389312
0.455794
0.373208
0.3726
0.569817
0.484134
0.40416
0.405935
0.381514
0.31411
0.352785
0.312755
0.329099
0.37633
0.320181
1.00629
0.529964
0.760114
0.68094
0.583519
0.514029
0.45157
0.428997
0.698054
0.343914
0.723785
0.860305
0.634954
0.924284
1.02442
0.63336
0.304725
0.612646
0.394054
0.376316
0.345411
0.3186
0.49371
0.376629
0.285352
1.00924
0.298667
0.295305
0.320913
0.329172
0.308703
0.336656
0.303919
0.289062
0.32849
1.95335
0.434408
0.429235
0.342044
0.318404
0.409158
0.305871
0.36481
1.82987
0.523782
0.784284
0.479707
0.362398
0.720565
0.360103
0.670351
0.403445
0.347964
0.461557
0.363147
0.367966
0.454054
0.449622
0.349576
0.35099
0.337542
0.368129
0.363421
0.360267
0.416016
0.702585
0.547655
0.487544
0.482861
0.610819
0.514364
0.589365
0.728978
0.61285
0.301025
0.538679
0.512717
0.64239
1.39785
0.837073
1.0437
0.724103
1.38935
1.23352
1.69713
0.733606
0.796336
0.386216
0.299607
0.309123
0.318756
0.805693
0.331956
0.743015
0.287635
0.286751
0.331762
0.296755
0.306183
0.299517
0.336805
0.971758
0.60954
0.7159
0.457304
0.322821
0.566225
0.305243
0.337433
0.340001
1.01614
0.383191
0.984589
0.464845
1.12824
1.79797
0.572109
1.19755
0.295429
0.371837
1.15086
0.584788
1.58073
0.825802
0.584203
0.405135
0.754735
0.796785
0.434378
0.470726
0.308443
0.347867
0.316706
0.409315
0.462856
1.31512
0.483351
0.444297
1.14908
0.941809
0.674833
0.72047
0.464645
0.572418
0.685643
0.746232
0.955011
0.893603
0.845029
0.852728
1.01734
1.24347
0.600738
0.903241
0.898064
0.916963
0.693922
1.07491
0.673768
0.296044
0.289091
0.356529
0.348524
0.33246
0.330119
0.334209
0.327448
0.393501
0.425757
0.39875
0.338345
0.332682
0.319184
0.291829
0.336736
0.302396
0.295986
0.422843
0.288132
0.330426
0.380161
0.296471
0.291351
0.285168
0.338448
0.290784
0.291356
0.292735
0.324762
0.318779
0.357394
0.287452
0.297562
0.803932
0.771819
0.448196
0.514471
0.871483
0.845652
0.89212
0.680284
0.3873
0.378739
0.774867
0.457169
0.649169
0.648243
0.955989
0.698509
0.836513
0.56685
0.562093
0.526789
0.660629
0.790365
0.574134
1.0587
0.787653
0.66789
0.631398
0.850674
0.563876
0.803644
0.445626
0.783479
0.418977
0.705625
0.914564
0.994367
0.616016
0.44418
0.68612
0.729186
0.379211
0.349533
0.366969
0.544717
0.285412
0.299258
0.298713
0.547743
2.44132
0.453863
0.522875
0.482853
0.314922
0.303154
0.299551
0.28874
0.310942
0.304342
0.327778
0.316813
0.3152
0.292073
0.287277
0.483839
0.441987
0.401959
1.02815
0.462945
0.299748
0.306645
0.322294
0.330797
0.351655
0.418367
0.319954
0.316041
0.746177
0.828431
0.799803
0.84438
0.583829
0.478925
0.402343
0.294094
0.315157
1.31707
0.328939
0.339055
0.630549
1.20858
0.344063
0.341528
0.326774
0.399955
0.732091
0.355582
0.325217
1.10401
0.330335
0.847049
0.563924
0.502981
0.354017
0.376088
0.589817
0.384174
0.331514
0.789566
0.333757