/*--------------------------------*- C++ -*----------------------------------*\
| =========                 |                                                 |
| \\      /  F ield         | OpenFOAM: The Open Source CFD Toolbox           |
|  \\    /   O peration     | Version:  2506                                  |
|   \\  /    A nd           | Website:  www.openfoam.com                      |
|    \\/     M anipulation  |                                                 |
\*---------------------------------------------------------------------------*/
FoamFile
{
    version     2.0;
    format      ascii;
    arch        "LSB;label=32;scalar=64";
    class       volScalarField;
    location    "0.0817324";
    object      nut;
}
// * * * * * * * * * * * * * * * * * * * * * * * * * * * * * * * * * * * * * //

dimensions      [0 2 -1 0 0 0 0];

internalField   nonuniform List<scalar> 
3991
(
0.00375327
0.00480226
0.00316361
0.00114562
0.00382525
0.00169667
0.0031832
0.00358632
0.00140973
0.00382343
0.000533056
0.00125341
0.00462873
0.00180211
0.002802
0.000210502
0.00314629
0.000977364
0.000827235
0.00290388
0.000486381
0.00430718
0.00136916
0.00145505
0.000986717
0.00112816
0.00139855
0.000379662
0.00492926
0.00145312
0.000600376
0.00270319
0.00113796
0.000864572
0.00138825
0.00143298
0.00114244
0.000841331
0.00230528
0.000891085
0.000413064
0.000388256
0.000758134
0.000523931
0.0015987
0.00219801
0.000981234
0.00258032
0.00154338
0.00309489
0.00162082
0.0028633
0.00408512
0.00306213
0.00395915
0.000939298
0.00149729
0.000599886
0.000583982
0.00113922
0.00534179
0.000842769
0.00028104
0.000687491
0.000427423
0.0011179
0.000432875
0.000433023
0.00124671
0.00267331
0.00122575
0.00112553
0.00244676
0.00138182
0.0060972
0.00145753
0.00201906
0.00186532
0.00370338
0.00321659
0.000930673
0.00177813
0.00103477
0.000352748
0.000759346
0.000487734
0.00102567
0.00349867
0.0026221
0.00510382
0.000818704
0.000826107
0.000643106
0.000320822
0.000580523
0.00269107
0.000413238
0.000521347
0.00386359
0.00263936
0.000308373
0.000906769
0.000785964
0.000665135
0.00305931
0.00288097
0.00204346
0.00318616
0.0019456
0.00364374
0.00311426
0.00401232
0.0052349
0.00197225
0.0019224
0.00235236
0.00290031
0.00290572
0.00291105
0.00231484
0.0040141
0.000378982
0.00342511
0.000429582
0.000395769
0.000410464
0.00199645
0.00377476
0.00516989
0.00262751
0.00377031
0.00319778
0.00237819
0.000507305
0.000898796
0.00130699
0.00558511
0.00524429
0.00445433
0.00467856
0.00390901
0.000579729
0.000610125
0.000772799
0.00130524
0.00123965
0.00261098
0.00225634
0.000982638
0.00509629
0.00492642
0.00491399
0.00549238
0.00195423
0.00123277
0.00161616
0.00278623
0.00144696
0.0012928
0.00122115
0.00403396
0.00501534
0.00489912
0.000591385
0.00333295
0.000129574
0.000849537
0.00099755
0.00117527
0.00129307
0.00357199
0.00112729
0.00119196
0.0013757
0.00404291
0.00223432
0.000470846
0.00261571
0.00290142
0.004023
0.00117978
0.00111286
0.000505528
0.00496765
0.00198377
0.00374046
0.00258679
0.000501252
0.000949359
0.00367655
0.001662
0.0011763
0.000477345
0.000856831
0.00169415
0.00183263
0.00182024
0.000370062
0.00566348
0.00165632
0.00157917
0.000796275
0.000562327
0.000976129
0.000906813
0.00132514
0.0015107
0.00102606
0.00034507
0.00324038
0.000374182
0.000462107
0.000798062
0.00072284
0.00085896
0.000950538
0.00143475
0.00107214
0.000718791
0.00535464
0.000367117
0.000641707
0.00538644
0.00082693
0.00133372
0.000398727
0.000871224
0.00345465
0.000732983
0.00331785
0.000656407
0.00332271
0.00110797
0.00280443
0.00116472
0.000822697
0.00149249
0.00113697
0.00074881
0.00358626
0.00287931
0.00355087
0.00111899
0.00466475
0.00149308
0.00195275
0.00607171
0.000773681
0.0034645
0.00243415
0.000503366
0.000589241
0.00120683
0.00158336
0.00196796
0.000447458
0.00217978
0.000625765
0.000616215
0.00143946
0.000487634
0.00116022
0.00160962
0.00259002
0.00199916
0.000653421
0.00252214
0.00112077
0.000205414
0.00103171
0.00179705
0.00144788
0.00135202
0.00205091
0.00111809
0.00114848
0.0033498
0.00314933
0.00256271
0.00222203
0.00276994
0.00145478
0.00193734
0.00229568
0.00147555
0.00174314
0.001796
0.00313172
0.00257994
0.00231802
0.00258169
0.00340131
0.00207504
0.00119932
0.00249172
0.00131245
0.0011259
0.00341091
0.000965894
0.00603585
0.00259973
0.0020106
0.00307159
0.000178032
0.000336651
0.000660225
0.000165474
0.00362572
0.00527267
0.00142347
0.00454506
0.00493187
0.000568718
0.00339031
0.00206226
0.00484366
0.00230748
0.00146577
0.00435955
0.00128828
0.00133451
0.00381499
0.000795953
0.000336225
0.00311354
0.0017835
0.00102231
0.00255527
0.00158272
0.00266757
0.00228665
0.00173527
0.00190453
0.00291561
0.00319628
0.00095017
0.00228239
0.00207976
0.00340547
0.00134137
0.00275737
0.00287414
0.00531781
0.00327741
0.00203212
0.0021748
0.00482575
0.00202579
0.00226623
0.00118208
0.00110295
0.00228683
0.00039429
0.000944617
0.00498627
0.00125503
0.00117404
0.00154555
0.00427986
0.00345502
0.00466892
0.000810667
0.00148449
0.00197066
0.00109065
0.0017571
0.000537931
0.00157702
0.00133764
0.00192685
0.00106792
0.000917374
0.000927422
0.000345237
0.00053483
0.00400114
0.00140448
0.000675598
0.00187308
0.0015065
0.00432646
0.00336866
0.00170255
0.00316542
0.00212567
0.00319407
0.000911271
0.00489802
0.00390062
0.000829491
0.00171564
0.00025733
0.00339622
0.00197818
0.00229811
0.00222887
0.000253069
0.000253081
0.00131776
0.00122367
0.0017407
0.00228188
0.000462993
0.00185151
0.000906393
0.00181105
0.00455657
0.000314446
0.00137916
0.00149655
0.00356822
0.000953741
0.00242059
0.00218627
0.00212845
0.00107109
0.00143986
0.00273052
0.000528231
0.00233349
0.00477722
0.00267722
0.00169281
0.0020601
0.00152569
0.000442686
0.002819
0.00126882
0.000951975
0.00527212
0.00205507
0.00114258
0.00147913
0.00206451
0.000737832
0.00125008
0.00122373
0.000470757
0.00088802
0.00354223
0.00116902
0.0055163
0.00414091
0.000965786
0.000487985
0.000519726
0.000890236
0.00108151
0.000408777
0.000426724
0.000669303
0.000432265
0.00381174
0.00109264
0.000568602
0.00167613
0.0013026
0.000637702
0.000640501
0.00241612
0.0014122
0.00209334
0.0045941
0.000936557
0.000859307
0.000600635
0.000603624
0.00382655
0.0031073
0.00318874
0.00081612
0.00305834
0.00184017
0.00305751
0.00438913
0.00163748
0.00156323
0.001159
0.00378761
0.00320882
0.0046431
0.0019223
0.00298061
0.000256966
0.00115983
0.00282423
0.00243381
0.00564707
0.00397608
0.00318621
0.00339709
0.00344163
0.00200597
0.00238941
0.00134407
0.0020986
0.00110452
0.00291659
0.00419955
0.00173051
0.00319875
0.000658661
0.00200779
0.000318573
0.00409712
0.00144071
0.00450352
0.00409337
0.00446481
0.00456875
0.00481981
0.000471021
0.000762475
0.00239963
0.000582019
0.0013156
0.00115209
0.00345013
0.00144384
0.000556086
0.0023538
0.000150443
0.000789463
0.000430871
0.0018046
0.000599502
0.00143802
0.00488181
0.00359855
0.00313008
0.00299037
0.00253461
0.000561158
6.31902e-05
0.000408708
0.00174432
0.00052939
0.00507055
0.00285341
0.00136179
0.00396058
0.000664468
0.00119485
0.001403
0.00359522
0.00378753
0.000770714
0.000975685
0.00194477
0.000737545
0.00120839
0.000690571
0.000692745
0.000487268
0.000413947
0.00209815
0.00217293
0.000596231
0.000477239
0.000687143
0.000582828
0.00302785
0.00265245
0.000939006
0.000376738
0.000944664
0.000495556
0.000932769
0.0021874
0.000602488
0.000744984
0.00268822
0.00343002
0.0026524
0.00286233
0.0016148
0.000215507
0.000511415
0.000717241
0.0007447
0.000476109
0.00083034
0.000478162
0.00378318
0.00121993
0.00366029
0.0051228
0.00203518
0.00264901
0.00427088
0.00338401
0.00153897
0.00404388
0.00405022
0.00287843
0.00629224
0.00295185
0.00472068
0.00385684
0.00406653
0.00358575
0.0044928
0.000713568
0.000532076
0.00168218
0.00227584
0.0029663
0.0062557
0.000584903
0.00228859
0.0031944
0.00109567
0.00153092
0.00076253
0.000733231
0.000874021
0.00239104
0.0034263
0.00371441
0.00364595
0.00330052
0.00178471
0.0027433
0.00175978
0.00171502
0.000849239
0.000813158
0.00148182
0.000376118
0.000633041
0.00201779
0.00208313
0.000753244
0.00075773
0.00102302
0.00316364
0.00219396
0.0024081
0.00293082
0.00246702
0.00186459
0.00395016
0.00422637
0.00380782
0.00470965
0.00303272
0.00101538
0.00370932
0.00176219
0.00108037
0.00295757
0.0035795
0.00135302
0.00428705
0.00420633
0.00381313
0.00214155
0.00156078
0.00030775
0.000180689
0.000263384
0.000181799
0.000306007
0.000360417
0.000599926
0.00128446
0.00174272
0.00221474
0.00350485
0.00512341
0.00163493
0.00316333
0.00244178
0.000556073
0.00189057
0.00118596
0.00108646
0.000606551
0.000793459
0.000676118
0.0012145
0.003126
0.00248362
0.00200011
0.00113491
0.00338805
0.00315526
0.001831
0.00233819
0.000816944
0.00304631
0.0050801
0.00173837
0.00458689
0.0029154
0.00407569
0.000622102
0.00333717
0.00193182
0.00108937
0.00433071
0.00502008
0.00112873
0.00435561
0.00338965
0.00105913
0.00106551
0.000528688
0.000488895
0.00134579
0.00372054
0.00203898
0.000722716
0.00342926
0.00478718
0.00271154
0.00261245
0.00313583
0.000733466
0.000383287
0.00169423
0.000800694
0.0023659
0.00371651
0.00222754
0.000308646
0.00240233
0.00160056
0.00101616
0.00092411
0.00255575
0.00196078
0.0037646
0.00157345
0.000980504
0.000453911
0.00247612
0.00245011
0.00220836
0.000488878
0.00362066
0.00172416
0.00221144
0.00197906
0.00100917
0.000441169
0.00168311
0.00148682
0.000951104
0.00117149
0.0037929
0.00288475
0.00207706
0.00395641
0.0019375
0.00267442
0.00212182
0.000641834
0.00140895
0.00135393
0.000593028
0.00464922
0.00126002
0.00374959
0.00077112
0.000461046
0.000388303
0.000247591
0.000793209
0.000862876
0.000559219
0.000447746
0.00043223
0.000798135
0.00414834
0.00202014
0.00090747
0.00241044
0.00196948
0.00211316
0.00335388
0.00343909
0.000973486
0.00133894
0.00166243
0.00365648
0.00255778
0.00352131
0.0016938
0.00157221
0.00166346
0.00200614
0.00156024
0.00383023
0.00450087
0.00306534
0.000737303
0.00273865
0.00275822
0.00282454
0.00344675
0.00149265
0.00242057
0.00184184
0.00512511
0.00232327
0.00171928
0.00162429
0.000933779
0.00108195
0.00256069
0.000548159
0.00351785
0.000720635
0.000532212
0.00199359
0.00506371
0.00137414
0.00492882
0.00105488
0.00205355
0.00112494
0.000998894
0.00127698
0.00293652
0.00588274
0.000609201
0.00186901
0.00355708
0.00392262
0.00279325
0.00181327
0.00259308
0.000596807
0.00654621
0.00377869
0.00117112
0.0018833
0.00145132
0.00184118
0.00558932
0.00482278
0.00185123
0.00276011
0.0056106
0.00511408
0.00127293
0.00538478
0.00395916
0.00366907
0.00255859
0.00449408
0.00435789
0.00511185
0.0022921
0.00217091
0.00119443
0.00162737
0.00164629
0.00131255
0.00297125
0.00132271
0.00110739
0.000855947
0.00190064
0.00224375
0.00327004
0.00198321
0.00205259
0.00990585
0.00500609
0.00270721
0.00280152
0.00120113
0.00193045
0.00203392
0.00287455
0.00242627
0.00159131
0.000518704
0.000896595
0.000186843
0.00147414
0.00077019
0.000283931
0.00129209
0.00389181
0.00498848
0.000480768
0.0013478
0.00546643
0.00415893
0.00131703
0.00119044
0.00463932
0.00224776
0.000983964
0.00188557
0.00235022
0.000414838
0.00254704
0.00472861
0.00296219
0.00142139
0.000790793
0.00197197
0.00306478
0.000522886
0.000527488
0.00162487
0.00221072
0.000436814
0.00196278
0.00182733
0.000798866
0.00144257
0.00113532
0.00394945
0.00236938
0.00413714
0.00250001
0.00519888
0.00465437
0.00601977
0.00234911
0.00126575
0.00295022
0.000970543
0.00248685
0.00179252
0.00154653
0.00148909
0.00125755
0.00189212
0.000729334
0.00068322
0.00129402
0.00098698
0.00124333
0.00557427
0.0013826
0.00104637
0.000870312
0.00179128
0.000657151
0.00090414
0.000735624
0.000239044
0.00317993
0.001554
0.0010734
0.00122576
0.0010128
0.00412845
0.00497286
0.00104391
0.00318445
0.00178574
0.00229866
0.00189129
0.00256099
0.00205055
0.000697308
0.00128602
0.000220854
0.00100982
0.000870266
0.000491211
0.000984538
0.00171845
0.000762645
0.00051007
0.00202376
0.00503256
0.00126466
0.00353039
0.00282223
0.00242984
0.00324622
0.00305872
0.00262478
0.000566457
0.00170518
0.00509271
0.00336231
0.000473222
0.00352196
0.00124426
0.00244786
0.000494645
0.00267825
0.00183503
0.00415169
0.00126581
0.00394375
0.0017182
0.00209114
0.00131376
0.00225664
0.000537425
0.00176657
0.00123912
0.00106241
0.00133271
0.00105204
0.000461873
0.00125433
0.00194544
0.00182204
0.000557402
0.00225357
0.000996092
0.00071599
0.00207487
0.0021017
0.00184391
0.00291149
0.00202533
0.00183033
0.00198081
0.00182101
0.000590174
0.00357575
0.000572124
0.000427156
0.00101284
0.000353043
0.00286788
0.00381899
0.00110727
0.00137819
0.00703484
0.000228137
0.000397648
0.00043312
0.00238882
0.000496171
0.000732807
0.00122254
0.000466903
0.00153078
0.000629535
0.000983975
0.00105899
0.000837612
0.000508851
0.00104707
0.000665199
0.00150235
0.00138218
0.0011163
0.000851691
0.00103687
0.00105917
0.000641658
0.00058605
0.000892951
0.00112896
0.000997519
0.00129903
0.00159491
0.00205787
0.00197764
0.00211316
0.00143722
0.00121876
0.00256186
0.00143729
0.00145508
0.00270593
0.000668786
0.00298934
0.00653782
0.00651292
0.00271958
0.00464986
0.000591254
0.00119466
0.00590806
0.0050776
0.000880116
0.00258301
0.00120836
0.00264324
0.00124685
0.00505921
0.00164575
0.00117464
0.00155422
0.00147244
0.000421952
0.00399549
0.00405909
0.000669366
0.0031848
0.00267415
0.00305466
0.00235403
0.00214345
0.00103327
0.00176414
0.00309947
0.00429231
0.000804669
0.00195593
0.000687454
0.00155324
0.00263015
0.00264556
0.00284235
0.00195105
0.00595728
0.00288051
0.000857764
0.000693597
0.00266855
0.00306636
0.00172262
0.00247882
0.00240038
0.00114283
0.00137099
0.000402401
0.000634834
0.000370045
0.00113225
0.000407315
0.00080393
0.0033038
0.00341559
0.00140371
0.00265511
0.00369675
0.00276489
0.00473067
0.00172336
0.00270755
0.00322006
0.00321406
0.00264292
0.00179523
0.00546002
0.00517275
0.00123502
0.00269825
0.00270449
0.00274429
0.00108187
0.00191788
0.00172488
0.00276745
0.000611665
0.001356
0.00184176
0.00121606
0.00236355
0.00164632
0.00245358
0.00184668
0.00171871
0.00163511
0.00236159
0.0027149
0.000309202
0.00115319
0.0012431
0.000805361
0.00260591
0.000742771
0.00403975
0.00367889
0.00383518
0.000730124
0.0041717
0.004151
0.00235289
0.000955166
0.000759566
0.000798266
0.00667996
0.000666726
0.00100801
0.00386744
0.00430378
0.00358021
0.00201752
0.0048925
0.00154074
0.00237296
0.00444925
0.000659848
0.000985148
0.00103937
0.000624919
0.000721046
0.000915378
0.00069151
0.000417621
0.00162339
0.000745539
0.0010553
0.000893464
0.000821927
0.00147347
0.000491579
0.000705164
0.00363664
0.00167819
0.00296251
0.00338094
0.00314315
0.00241252
0.00361621
0.0026995
0.0023656
0.00306434
0.00124845
0.00349158
0.00183013
0.000526239
0.00062857
0.000850725
0.000628665
0.000656293
0.000374724
0.000385276
0.00388311
0.00170674
0.00164731
0.00175542
0.00322105
0.0034664
0.00149866
0.00273332
0.00073576
0.00199051
7.92265e-05
0.000655983
0.00050219
0.000284389
0.00193755
0.00053686
0.000477635
0.000447107
0.00101643
0.000852848
0.000296257
0.00137449
0.000305312
0.000850627
0.000121853
0.000504852
0.00128445
0.000653533
0.00131112
0.000302856
0.000521618
0.000666951
0.000634296
0.00322894
0.000848851
0.00102701
0.00107364
0.000735807
0.00045024
0.000379619
0.0017347
0.000760189
0.000767566
0.00107107
0.000437949
0.000801589
0.00512771
0.00077191
0.000478324
0.00138614
0.00106905
0.000619935
0.00266765
0.000276613
0.000260549
0.000625335
0.000919623
0.00142439
0.00102922
0.00106646
0.00120884
0.000800812
0.001109
0.00105996
0.00423285
0.00458147
0.00370696
0.000751837
0.00433621
0.00436415
0.00135198
0.00206876
0.000658521
0.00475331
0.0050035
0.00320694
0.00118939
0.00122836
0.00269106
0.00506517
0.000641344
0.00311846
0.000441332
0.000455273
0.00238613
0.00028459
0.000447847
0.00182336
0.00168513
0.00528053
0.000700672
0.000203103
0.000674378
0.0001731
0.000495129
0.000716839
0.00542585
0.00269281
0.00514892
0.00338741
0.00558696
0.00307514
0.00351755
0.00197424
0.00283479
0.00169503
0.000332012
0.000769841
0.00110172
0.00223522
0.0055453
0.00147126
0.0023107
0.00356202
0.00447425
0.00167533
0.00383864
0.00113905
0.00120758
0.0012175
0.000588091
0.00157766
0.00126371
0.000724208
0.000921736
0.00302712
0.00151228
0.000795332
0.00229888
0.00175454
0.00165221
0.0017614
0.00192578
0.000416293
0.0011092
0.00167744
0.003292
0.0016227
0.00463039
0.00178889
0.00573737
0.00344571
0.00150615
0.00198175
0.000639739
0.000684363
0.00173119
0.00165563
0.00357923
0.00315885
0.00187979
0.00236997
0.00176334
0.000719731
0.00063391
0.000697362
0.000746922
0.00123337
0.000907242
0.00109069
0.000384502
0.00171122
0.00458258
0.000710693
0.00133777
0.00175229
0.000937805
0.000283868
0.00147283
0.00222949
0.00215358
0.000866863
0.00412797
0.00474757
0.00438201
0.00590915
0.00425127
0.00307106
0.00241802
0.000486158
0.00143537
0.00198297
0.00153273
0.00145701
0.00191702
0.0012025
0.00127807
0.00247809
0.00115736
0.0027759
0.00265959
0.00182136
0.00310576
0.000646234
0.000824681
0.00217942
0.00228135
0.00411059
0.000677029
0.00159193
0.000572627
0.000730019
0.00122709
0.000571895
0.000598771
0.000495621
0.000395577
0.00109233
0.00135358
0.00149074
0.00168092
0.00126048
0.00191666
0.00236192
0.00197734
0.00180129
0.00219162
0.00138901
0.00118351
0.000728941
0.000642035
0.00206874
0.00232882
0.000609116
0.00109308
0.00186055
0.00166134
0.000934767
0.00131005
0.00130771
0.00136538
0.00378701
0.00255021
0.00343637
0.00160826
0.00316467
0.00335708
0.00291705
0.000424515
0.000811507
0.00497836
0.00433304
0.00432662
0.00470963
0.00135342
0.00126062
0.00134345
0.00496254
0.00304685
0.0027759
0.00241012
0.00267282
0.00213924
0.00297736
0.00383423
0.00298134
0.00258498
0.00320259
0.000812776
0.00398977
0.00122856
0.00344663
0.00164123
0.00530255
0.00237555
0.00212912
0.000880586
0.00265206
0.00232687
0.00147234
0.00392842
0.00186027
0.000271661
0.0013655
0.00092233
0.00357141
0.00144103
0.00349857
0.00179012
0.000856661
0.000711181
0.00163305
0.000972022
0.000964608
0.00225181
0.00113037
0.00121763
0.00172428
0.00411901
0.00247887
0.00242135
0.00342822
0.00166609
0.00101179
0.00532713
0.000895232
0.000334363
0.0019032
0.00239766
0.00439542
0.00321223
0.00323429
0.00482045
0.00313548
0.00219492
0.0033226
0.00416897
0.00542554
0.00134017
0.00202236
0.00170508
0.0016372
0.00314836
0.00156835
0.00100532
0.00065382
0.000630669
0.00450016
0.000512748
0.00214968
0.00322326
0.00144629
0.00143503
0.000834388
0.00102163
0.00203437
0.00269166
0.00138819
0.00165917
0.00134834
0.00114664
0.00322556
0.00274884
0.00253651
0.002839
0.00102436
0.000789942
0.00411824
0.00308389
0.00113904
0.005397
0.00197635
0.00420246
0.00346307
0.00285283
0.00555045
0.00226865
0.00398767
0.00106692
0.000750746
0.000872259
0.000974814
0.00309588
0.00199904
0.00467688
0.0030328
0.00409586
0.00143738
0.00574147
0.00262899
0.00202377
0.00287257
0.00403306
0.000908128
0.00151567
0.000908027
0.00260003
0.00339854
0.00342177
0.0034535
0.00218636
0.000753638
0.00372509
0.00281837
0.00342623
0.00279083
0.00432659
0.00132372
0.000657566
0.00228547
0.00135853
0.00413908
0.000147826
0.000854805
0.000755447
0.00122323
0.000888745
0.00026514
0.00240984
0.00153295
0.000772364
0.000877741
0.0044293
0.000763781
0.000214984
0.00103966
0.000430235
0.00283015
0.00172672
0.00410102
0.00166648
0.000826132
0.00132487
0.00107406
0.0046413
0.00285743
0.00262257
0.00343236
0.00135145
0.000674149
0.000906824
0.00575077
0.00119889
0.00220725
0.00253791
0.0045567
0.00200987
0.0033766
0.00458489
0.000891565
0.00402951
0.00393843
0.00124257
0.00194644
0.0047196
0.00304289
0.00551293
0.00211954
0.00175792
0.00560889
0.0037337
0.00238658
0.00139135
0.00197511
0.00432947
0.00178263
0.000801523
0.0011214
0.000488809
0.00238066
0.000434315
0.00607912
0.00107401
0.0021967
0.0042384
0.00150953
0.00336326
0.00122481
0.00410973
0.00137832
0.00173853
0.000839861
0.000389839
0.000101571
0.000207814
0.00108802
0.000507137
0.000167768
0.00121949
0.00279596
0.000423868
0.00305881
0.00412555
0.00037431
0.000429221
0.000329796
0.000941219
0.00324416
0.00144582
0.00201305
0.00158294
0.000793789
0.000697945
0.000835129
0.000468089
0.000978508
0.000801326
0.000691218
0.000158454
0.00127987
0.00101568
0.00502604
0.00024114
0.00185597
0.00574345
0.00389843
0.00331048
0.00257323
0.00551599
0.00575457
0.0016354
0.0010114
0.000306644
0.00126429
0.000758584
0.00155024
0.000957332
0.00131478
0.00130032
0.00109466
0.00146442
0.000400321
0.000751504
0.00255862
0.00168629
0.000536788
0.000250224
0.000764246
0.000443328
0.000403724
0.000695188
0.00110332
0.00158757
0.000755972
0.00110267
0.00125792
0.00110147
0.000575114
0.000815237
0.000913542
0.00263587
0.00111659
0.0024911
0.00266738
0.00164023
0.00156659
0.00183154
0.00189837
0.00188311
0.00159178
0.00289816
0.00287911
0.000443841
0.000109914
0.000193819
0.00154214
0.00148597
0.000584185
0.00218179
0.00440813
0.000334832
0.000621606
0.000822296
0.000375792
0.000903983
0.00261622
0.00204421
0.00133601
0.00122016
0.000811504
0.00580615
0.00225802
0.00121111
0.00242168
0.00186272
0.00412299
0.00462763
0.00250453
0.00111359
0.00237261
0.0016767
0.00234202
0.00116531
0.00153751
0.00128086
0.00343108
0.000310457
0.000826173
0.000567998
0.000695202
0.00109726
0.00101461
0.000658391
0.000630982
0.000884471
0.00070089
0.00062264
0.000479138
0.000583018
0.000760134
0.00531129
0.00255162
0.00276828
0.003642
0.00477013
0.00231728
0.0024691
0.00533219
0.00422484
0.00404265
0.0019478
0.00453828
0.000699744
0.000728101
0.000795655
0.000978535
0.00289844
0.00259367
0.00259385
0.0019257
0.00368624
0.00352198
0.00189765
0.00332664
0.00295355
0.00539138
0.000602986
0.00524365
0.00446559
0.00570448
0.00537052
0.00227837
0.00289657
0.00405029
0.00112936
0.00151955
0.000908017
0.00118999
0.00124518
0.00122762
0.00188358
0.000991202
0.00107269
0.00088988
0.00259402
0.000869303
0.000617045
0.00258654
0.000835404
0.00258503
0.000859414
0.000381522
0.000771411
0.000240238
0.00197663
0.000444245
0.000790064
0.00180998
0.000789041
0.00101209
0.000406067
0.00234693
0.000170079
0.00164601
0.00244242
0.0011485
0.00410408
0.00565731
0.00159527
0.00368554
0.0014739
0.00190943
0.00114822
0.00158084
0.00243202
0.00236919
0.00162715
0.00139753
0.00131675
0.00485802
0.00133011
0.00464688
0.00355329
0.00311396
0.00250523
0.00089146
0.00017217
0.00218041
0.000539201
0.00221743
0.00132991
0.00185842
0.00253897
0.00627202
0.000938995
0.00142337
0.00225188
0.000646752
0.00120107
0.000876478
0.00611136
0.00678704
0.00172286
0.00143659
0.000329783
0.000863506
0.00190293
0.000575862
0.00141465
0.000921631
0.00290039
0.00420407
0.00221615
0.00460411
0.00235562
0.00240907
0.000370316
0.000264538
0.000746848
0.000968046
0.0050391
0.00387693
0.00059627
0.000405737
0.000296198
0.000536431
0.000813699
0.000311789
0.000506148
0.000674343
0.000540567
0.000515242
0.000467443
0.000551323
0.000395447
0.000778661
0.0006594
0.000402205
0.000537827
0.00194767
0.000364437
0.00145026
0.00089311
0.00203513
0.00241856
0.00424122
0.00357288
0.000507595
0.000828329
0.00406649
0.00113445
0.00108658
0.00232338
0.00151301
0.00211485
0.00104386
0.00157409
0.00114893
0.00145769
0.00109684
0.000668088
0.000621365
0.00499865
0.0017702
0.00295646
0.000645251
0.0046283
0.000874727
0.00162775
0.00300163
0.00289115
0.000223244
0.0008935
0.000499349
0.000461419
0.0011613
0.000590488
0.000876938
0.000503234
0.00124121
0.000859562
0.00249497
0.000465279
0.00285971
0.000701197
0.000736428
0.000867182
0.000333679
0.000726521
0.000608804
0.000675368
0.000741488
0.00101214
0.000748898
0.0050817
0.000343821
0.000442684
0.00163175
0.00219977
0.00251239
0.00139975
0.000438953
0.000321491
0.000528698
0.00121326
0.00155047
0.00155309
0.00151453
0.00163129
0.00148103
0.000925428
0.00131578
0.0012532
0.00126357
0.000876026
0.0011834
0.000820442
0.00310074
0.000227339
0.000388323
0.000409555
0.000496693
0.000399737
0.000271735
0.000407629
0.000398186
0.00416538
0.00399405
0.000462536
0.0014034
0.00240384
0.00143084
0.00180869
0.000968609
0.00106264
0.000480031
0.000676276
0.00104835
0.00152733
0.000359845
0.0015489
0.00518605
0.00575817
0.00593125
0.00274606
0.00298576
0.00186023
0.00228964
0.00462737
0.00170535
0.00166939
0.00157148
0.00103569
0.00264563
0.00308825
0.00184202
0.00144588
0.00385891
0.00120522
0.00435033
0.00124729
0.0019423
0.00435142
0.00286865
0.00178493
0.000764707
0.00203916
0.00151214
0.00309889
0.000979143
0.00138532
0.00119808
0.00185105
0.0014746
0.0012619
0.000675688
0.000998247
0.00234658
0.00149473
0.000537521
0.000429064
0.00100361
0.000849631
0.000338825
0.00044898
0.000872812
0.00167636
0.0019076
0.00141606
0.00209363
0.00176249
0.00146827
0.000640194
0.00227996
0.000886889
0.00142117
0.00172835
0.00108633
0.00224778
0.00149833
0.000930455
0.00104781
0.000626365
0.00190263
0.00144966
0.00183412
0.00434366
0.00128767
0.00104665
0.000651922
0.00127977
0.00142215
0.00574911
0.00526838
0.00394802
0.00389273
0.00324179
0.00400996
0.00137136
0.00142794
0.00108708
0.00159832
0.00257989
0.00328655
0.00300212
0.00470561
0.00372622
0.005045
0.00126813
0.00149464
0.000391353
0.00418748
0.0016361
0.00471561
0.000356633
0.00207868
0.00574485
0.00468747
0.000494581
0.000606461
0.00114326
0.00164441
0.00366081
0.00171081
0.00259199
0.00229768
0.00345967
0.00195329
0.00255805
0.00365153
0.00305711
0.00270129
0.00623271
0.00547452
0.0100105
0.00370117
0.00521299
0.000241071
0.00112868
0.00160035
0.00018736
0.00177934
0.00188123
0.00151317
0.0021643
0.00168937
0.000976133
0.000520761
0.000522692
0.000489629
0.000116386
0.00103726
0.000486797
0.000786884
0.00280059
0.00331937
0.000925451
0.000878874
0.00261503
0.00471617
0.00270964
0.000628577
0.000569901
0.00187743
0.000914893
0.00228691
0.00226156
0.00417613
0.00279744
0.00256301
0.000749747
0.000411494
0.00100279
0.000683221
0.000107528
0.000417724
0.000639933
0.000663092
0.00263594
0.000695898
0.0019738
0.001944
0.0020082
0.00198567
0.00215566
0.00226752
0.00106635
0.00218279
0.00314734
0.00432525
0.000953294
0.00113711
0.00125034
0.000769405
0.00062875
0.000900813
0.00286272
0.00386914
0.00201235
0.00188778
0.00159091
0.00183449
0.00214381
0.0040429
0.00308848
0.00243144
0.00317599
0.00213121
0.000511562
0.000256504
0.00119896
0.00137889
0.00666862
0.00339626
0.00096968
0.00282285
0.000782063
0.00281573
0.000711132
0.00371983
0.00151292
0.000739181
0.000319234
0.00118179
0.000949082
0.00275419
0.000883246
0.002294
0.00286219
0.00132155
0.00438654
0.00168028
0.00150558
0.00415197
0.00176685
0.00509457
0.00595577
0.00131899
0.00309309
0.00254565
0.00654562
0.00207296
0.0054289
0.0048995
0.00460511
0.00300159
0.00514921
0.00253226
0.00290597
0.000298661
0.00174289
0.00278267
0.00232161
0.00210958
0.00175799
0.00446516
0.00273449
0.00257351
0.00225776
0.00155767
0.00120079
0.00118199
0.00182193
0.00234298
0.000235152
0.0017373
0.00169427
0.00095454
0.0011797
0.00133986
0.00191467
0.00377061
0.00333774
0.000958558
0.000174205
0.002162
0.00616988
0.00432107
0.001273
0.00213509
0.00202307
0.000391378
0.000585536
0.000941559
0.000784938
0.000616766
0.00226331
0.00159217
0.000687804
0.00217685
0.00160256
0.000346721
0.00202435
0.00210541
0.00204172
0.00303795
0.0014745
0.00212203
0.00246036
0.00241476
0.00374045
0.00156925
0.00136621
0.00120986
0.00162553
0.00199427
0.00171623
0.000460749
0.00232009
0.00289716
0.000459829
0.000282121
0.00437656
0.00174019
0.000463209
0.000677114
0.000377811
0.000416947
0.000326767
0.00106046
0.00131969
0.0025735
0.00156997
0.00116425
0.000254819
0.000813051
0.000686821
0.00230629
0.000627864
0.000614972
0.000324713
0.000356085
0.00110248
0.000239093
0.000494928
0.00344602
0.00485217
0.000194323
0.00139907
0.0051572
0.00245915
0.00158599
0.00139656
0.00110674
0.00220218
0.00124517
0.0012084
0.00109936
0.000948624
0.00327254
0.00313512
0.00405533
0.00330509
0.00274822
0.00491008
0.00217563
0.00514165
0.00348826
0.00143148
0.00485394
0.00270766
0.00221008
0.00195761
0.00229654
0.00136408
0.000713667
0.00132665
0.000710425
0.00087479
0.00393514
0.000198139
0.00137356
0.000959517
0.00142964
0.00123277
0.00077937
0.000511307
0.000437057
0.00473235
0.00332733
0.00173948
0.000804155
0.000737768
0.000824053
0.000928452
0.000742042
0.000321225
0.000496282
0.00114122
0.00311118
0.000830212
0.00116979
0.000921819
0.000156851
0.00391316
0.000826931
0.00123854
0.000466401
0.00202156
0.00125179
0.00223018
0.00102624
0.000178632
0.000614788
0.00176653
0.00090931
0.000404593
0.000610999
0.000453341
0.00113456
0.00120758
0.000875486
0.00059042
0.00325332
0.000732535
0.000289037
0.00242529
0.000378121
0.000341055
0.00106826
0.000326021
0.000669752
0.000452428
0.000876958
0.00295073
0.001491
0.00276502
0.00153458
0.0015747
0.00107535
0.00189725
0.00302595
0.00214894
0.000449194
0.000783613
0.00073371
0.00180951
0.00339749
0.0014271
0.000474333
0.000878566
0.000798663
0.000811807
0.000395781
0.000435489
0.00177947
0.00080569
0.000554013
0.000310881
0.000637208
0.00383325
0.00262253
0.00350053
0.00372992
0.00356609
0.00110739
0.000829962
0.00189572
0.00257327
0.000755459
0.00112509
0.00541733
0.000196695
0.000390544
0.00496177
0.00253506
0.000546763
0.000817529
0.00457499
0.00414398
0.00196001
0.00589692
0.00114237
0.00209541
0.000133633
0.000776795
0.000367043
0.000895916
0.00107375
0.000950195
0.00163238
0.00145197
0.00129388
0.000625903
0.000889214
0.0033275
0.00134454
0.00437018
0.00255582
0.00140457
0.00124611
0.000993556
0.00115202
0.00182433
0.00117068
0.00172833
0.00154394
0.000374708
0.000256509
0.000995972
0.000282776
0.000988978
0.000740919
0.000608076
0.00370396
0.00101577
0.000179378
0.0026932
0.00100072
0.00145096
0.0013708
0.00318669
0.00152958
0.00388155
0.00159028
0.00025431
0.000468598
0.000435025
0.000476021
0.00367305
0.00214424
0.00244867
0.00182751
0.00194607
0.00546673
0.00102813
0.0016031
0.000644008
0.000576194
0.000428423
0.000662213
0.00281017
0.000604279
0.000964198
0.00257296
0.00468744
0.000421272
0.00171007
0.00214969
0.00231914
0.00171528
0.00483006
0.00452092
0.00328012
0.00437851
0.00454776
0.00228126
0.00523354
0.00291276
0.000371317
0.000874541
0.00295735
0.000976644
0.000740704
0.00394561
0.00380066
0.00275533
0.00429518
0.00129722
0.00423304
0.00389944
0.00181592
0.00172088
0.00393524
0.0039907
0.00365993
0.00438994
0.0027662
0.00294276
0.00576849
0.003226