/*--------------------------------*- C++ -*----------------------------------*\
| =========                 |                                                 |
| \\      /  F ield         | OpenFOAM: The Open Source CFD Toolbox           |
|  \\    /   O peration     | Version:  2506                                  |
|   \\  /    A nd           | Website:  www.openfoam.com                      |
|    \\/     M anipulation  |                                                 |
\*---------------------------------------------------------------------------*/
FoamFile
{
    version     2.0;
    format      ascii;
    arch        "LSB;label=32;scalar=64";
    class       volScalarField;
    location    "0.0817324";
    object      omega;
}
// * * * * * * * * * * * * * * * * * * * * * * * * * * * * * * * * * * * * * //

dimensions      [0 0 -1 0 0 0 0];

internalField   nonuniform List<scalar> 
3991
(
77.535
81.961
93.0673
475.359
61.8376
463.617
45.5797
69.2627
461.041
90.2852
198.46
486.296
45.8222
365.223
45.5278
1846.78
49.166
62.6076
651.996
121.338
225.278
45.4754
416.142
653.151
174.661
745.281
206.245
577.262
73.8722
453.894
290.727
446.563
69.0293
98.8346
686.673
661.086
499.001
607.511
454.036
591.198
146.939
900.347
90.0007
881.306
70.7981
369.169
603.971
376.87
588.736
71.863
193.521
177.51
58.9327
351.812
76.9512
268.346
143.663
691.517
743.778
509.957
53.6522
62.0949
341.314
542.645
260.34
511.949
1023.68
335.566
53.0833
51.7204
546.499
103.389
127.983
195.336
54.7711
804.574
53.9434
685.562
53.1066
94.6014
286.811
100.18
136.389
311.013
209.548
941.044
550.192
56.2846
93.1135
70.2737
66.6394
342.83
958.009
1097.05
849.293
53.3002
943.141
1074.63
79.4079
205.082
1132.8
602.841
624.607
664.275
108.553
50.8247
296.238
46.2724
48.118
46.1128
47.687
45.5076
45.9046
50.5192
49.6022
49.7429
99.1376
97.4498
97.9477
127.883
79.7384
304.085
50.4683
175.116
607.811
172.182
160.345
77.8719
59.1494
51.5781
57.1797
52.8118
53.415
1055.01
798.044
472.418
52.8008
47.6542
49.4861
53.5507
79.5971
1189.42
123.564
1067.04
549.983
54.3543
118.456
53.8887
654.205
52.671
52.4522
59.1233
53.6033
266.165
551.228
349.31
165.112
587.186
1120.71
1071.25
73.118
71.0871
55.872
1310.16
420.774
1674.79
951.109
1174.67
1159.65
52.8804
57.5776
726.606
571.299
58.2795
75.7932
72.5965
173.441
208.716
45.9987
71.5121
65.1667
324.141
715.447
59.463
78.5884
78.5131
69.251
178.647
98.7987
57.8196
77.8049
118.335
310.855
86.1591
99.9016
427.384
73.9964
1977.09
52.3496
72.4335
564.354
115.814
1892.54
630.984
872.041
661.889
474.031
451.387
968.661
52.0393
2054.59
165.559
1427.88
93.7068
1114.35
67.7504
479.685
548.201
716.709
308.012
641.043
1346
393.024
220.37
756.426
658.118
137.563
340.28
253.052
86.7496
701.217
50.3081
112.601
49.7406
174.459
355.158
58.6274
665.909
232.364
69.6825
171.361
126.714
419.422
86.0268
441.053
391.651
49.436
213.292
44.7537
487.94
629.258
201.271
66.3999
92.0963
660.685
1422.55
134.558
167.168
81.3388
53.2962
141.658
74.0225
353.723
181.945
540.091
169.551
192.185
728.689
753.145
646.211
377.496
640.196
305.63
377.315
476.707
476.285
341.756
332.389
94.4121
209.58
160.505
562.758
251.587
211.064
397.847
310.825
295.919
101.221
80.1284
74.0084
69.3472
48.051
685.538
88.2881
317.005
623.469
500.009
45.2999
1113.6
50.8556
397.845
542.208
47.8877
960.623
347.604
281.02
966.857
79.7573
60.7889
471.504
58.8499
62.4137
513.349
59.7538
47.4917
47.2685
199.454
79.4938
58.3922
68.7281
129.931
80.4494
98.5196
2041.32
85.9933
122.499
61.2154
50.6477
212.425
46.5412
167.316
130.079
157.025
101.051
369.9
581.936
213.521
67.5086
54.9129
459.716
53.8197
49.2115
54.7405
56.0177
61.1096
55.8796
52.2673
137.717
75.1498
520.371
921.709
49.6852
1019.24
114.37
58.8573
677.689
1810.57
564.691
323.959
83.6436
45.2854
95.6689
675.753
53.2707
59.4053
51.9338
1796.34
354.297
869.767
89.7501
65.3306
90.6364
521.371
907.072
822.994
48.1836
63.1514
732.501
83.5909
52.8093
72.4814
89.9881
599.293
49.1008
47.1077
50.4892
754.494
61.6267
48.1095
97.4208
57.7126
936.345
52.1386
84.3546
447.879
131.402
374.6
859.918
724.958
542.074
50.7605
215.387
595.339
376.555
72.1143
301.075
48.4798
772.851
429.33
675.715
66.3682
99.8018
48.6211
64.523
49.0054
58.1492
186.806
113.991
143.728
48.9979
62.4347
92.4856
58.949
554.705
64.4203
156.078
54.9376
67.1728
95.7694
54.8508
245.88
949.428
243.561
48.8956
80.685
54.3207
263.916
363.648
72.7566
49.036
89.313
52.5808
70.3543
218.573
132.1
345.387
101.404
640.01
120.664
310.459
814.569
217.091
50.5512
63.2646
219.846
95.4927
52.4717
784.34
841.735
57.9818
743.233
46.6408
51.8981
865.705
71.7572
844.922
647.859
60.2302
53.9538
45.5999
167.171
57.5239
67.4264
302.729
67.1476
175.854
98.5759
59.4086
51.8926
92.2828
52.8024
133.995
103.265
575.259
453.477
55.0179
64.9672
54.7165
52.7961
97.9121
121.41
48.7807
163.469
49.7734
55.9907
48.8959
498.4
62.7779
320.276
53.6068
55.271
606.494
66.7492
301.967
79.8264
56.5721
67.3544
396.709
80.3242
71.0816
67.4635
909.738
715.214
367.564
469.51
474.413
91.1791
49.1168
525.791
236.613
154.688
2439.95
1190.71
499.416
321.824
234.55
604.624
54.179
80.4976
51.4202
96.5193
187.509
113.217
1464.5
1062.27
71.0713
193.013
56.6172
51.946
405.531
52.6592
1243.39
134.421
63.7998
54.6846
50.7674
224.537
1062.86
817.001
729.49
498.236
205.106
663.531
413.645
192.784
242.696
134.982
203.803
292.753
110.635
207.728
474.852
378.642
107.007
1009.6
176.828
249.266
571
227.164
98.3725
93.5849
49.8847
47.2848
48.2627
49.3872
51.1973
1330.71
127.088
97.3129
88.6579
152.549
90.0884
932.578
353.143
756.104
316.672
331.466
150.39
54.6756
68.3208
55.2501
50.6003
71.2345
83.7267
61.9142
46.9826
95.8193
61.1142
77.5637
49.3501
84.5136
65.8596
1095.35
179.883
832.524
53.4745
317.217
366.212
157.207
214.8
50.6771
59.7394
53.1115
127.003
139.204
143.316
55.3382
58.0085
64.0742
67.7814
53.2986
55.9543
53.8155
48.761
52.7868
102.312
69.3683
54.3406
349.559
160.067
667.037
55.3023
110.826
241.78
93.975
50.4523
53.6877
54.3383
52.6251
54.8034
56.3665
68.6989
74.2923
62.2745
80.835
68.3036
153.775
50.6972
413.501
486.982
63.1539
127.231
457.77
72.1454
73.2773
78.9419
154.814
417.749
912.976
1185.06
377.092
961.499
1034.3
1119.63
699.437
50.4308
50.3101
291.121
308.923
334.709
52.2609
49.9804
51.8347
794.137
51.7916
68.2904
525.69
197.556
101.348
94.9948
76.229
98.5638
48.5218
311.367
738.321
88.9002
56.7887
48.2112
47.733
72.8007
96.4471
57.1667
187.67
48.5797
52.5009
46.4209
93.3904
53.4095
358.184
749.286
344.769
57.7288
66.1666
48.1341
89.1927
70.779
566.204
341.301
234.725
590.27
46.0079
102.768
98.3672
93.1813
46.1321
289.221
132.419
113.535
75.2953
1032
734.005
1386.71
50.8945
425.058
130.01
1480.17
54.6411
154.617
656.631
791.085
177.887
414.141
76.8558
355.35
733.752
899.89
47.1414
130.147
54.4073
205.419
48.319
62.6109
137.018
52.3428
575.097
924.752
418.769
436.657
616.919
509.004
73.537
152.194
289.511
64.6164
309.182
349.714
411.632
1108.09
610.148
443.91
736.132
86.3957
427.908
80.7639
1146.06
1170.7
1265.64
978.462
1327.7
530.112
985.354
595.771
1319.4
107.263
102.99
148.6
547.582
58.8533
58.806
58.4296
94.3714
55.8363
176.375
286.247
128.043
62.344
83.7416
122.49
95.356
157.834
60.0466
64.2564
60.3086
52.2458
66.1533
99.4951
70.1061
91.397
116.116
346.233
82.6786
422.454
59.7919
165.332
406.319
356.421
415.158
483.743
81.0269
104.38
55.0791
591.052
46.5292
258.169
248.358
72.9601
59.6624
458.518
61.38
560.601
239.978
472.503
409.389
414.102
60.2818
56.6292
503.314
463.845
129.576
312.266
74.4467
625.581
456.149
249.45
47.358
77.089
106.287
234.145
557.122
69.028
63.6092
62.5834
620.476
262.884
52.6654
51.8756
79.85
54.0073
71.9047
78.2254
47.9921
64.0396
65.5272
57.0209
367.117
393.597
767.431
473.45
431.974
440.851
319.576
453.051
507.808
580.079
399.248
66.9711
58.9393
101.804
74.8421
388.993
58.1862
181.611
192.524
484.016
429.233
414.115
173.25
269.205
563.977
211.666
948.809
1412.08
1281.06
908.056
1589.75
408.894
74.325
57.5411
1457.49
451.809
53.1439
69.6535
58.1522
57.2094
330.889
56.3247
73.777
50.9782
48.9822
1825.33
120.767
51.8594
53.8166
234.508
70.4446
65.9873
53.0654
913.033
1509.73
315.426
255.77
960.875
270.147
68.1159
553.451
64.9831
122.363
71.6386
58.365
70.0398
49.7162
48.6355
83.2506
48.7693
50.1623
520.329
47.3338
60.8335
290.741
69.7089
72.2506
641.375
234.974
61.4709
92.4412
633.145
486.041
67.1977
141.853
52.9437
553.902
210.864
71.7651
48.6312
136.105
94.5703
134.492
1106.72
482.088
269.526
215.947
88.1659
138.475
51.8076
61.1185
56.2796
59.0066
70.5431
54.4225
710.134
187.787
631.28
1958.1
802.122
1340.61
847.616
605.148
972.355
675.315
1052.29
223.139
109.879
52.4714
264.73
73.4922
81.1508
105.928
51.5143
45.2473
143.208
56.6995
96.8807
50.817
59.3073
289.833
259.569
46.9076
551.904
47.7088
417.846
46.4729
47.9396
69.4318
111.132
73.0403
58.4801
53.3274
743.66
76.8888
844.111
638.193
457.085
1096.5
62.8209
128.702
1283.55
934.716
63.4503
54.3427
104.746
457.268
66.1571
359.433
89.4036
83.6197
74.8926
163.093
71.8098
50.2811
87.0976
73.2997
109.662
47.2735
657.987
312.312
72.5016
1020.82
52.4796
47.0249
984.897
57.5471
409.997
1343.45
340.413
574.767
55.3181
502.759
355.09
61.3722
129.563
921.44
275.404
659.843
983.469
1027.36
754.089
515.645
1478.89
444.375
54.9046
646.359
498.57
1039.43
126.521
978.264
144.232
661.759
52.4536
53.4805
819.494
914.028
381.039
445.599
404.753
839.854
433.132
261.336
58.5485
454.774
267.497
625.445
224.988
382.424
359.869
444.655
47.9707
680.475
509.206
51.0707
56.7208
71.5174
390.62
64.8006
56.2792
133.677
72.6577
53.334
457.17
481.302
69.4981
850.845
73.0162
78.2672
120.744
98.5325
58.5244
136.862
393.985
51.2472
76.9875
47.8565
56.4167
48.3159
88.2264
84.6091
122.265
641.314
206.896
444.313
192.615
706.22
313.016
460.567
190.451
144.712
457.109
193.51
360.627
377.253
319.182
800.438
707.554
206.869
222.222
767.28
465.337
836.39
1158.05
78.3473
148.806
122.943
107.783
119.062
89.5922
79.289
186.9
58.7992
310.383
63.3576
261.09
344.45
53.3684
45.5171
582.193
234.635
49.0972
138.373
471.792
394.11
316.386
327.305
703.47
446.027
267.068
562.262
532.617
370.784
45.9417
48.6829
72.2448
47.4815
68.0175
324.415
1315.37
1366.52
669.669
370.445
350.794
219.169
77.5625
61.6413
73.721
225.951
88.9468
66.597
53.1059
147.974
183.007
131.898
47.7051
101.029
77.2557
74.9678
67.8827
82.954
151.995
48.6738
546.593
56.4367
90.4247
130.795
349.141
670.492
143.952
108.78
80.769
712.188
918.974
57.5665
69.8038
70.7087
607.839
672.549
105.468
179.825
113.177
49.3696
51.6284
49.7652
49.5444
50.6078
47.1273
46.2691
48.4451
49.5511
47.6217
53.1025
46.1556
46.308
224.907
145.121
102.109
670.241
695.129
235.825
268.197
45.2748
48.8757
50.1211
58.6279
87.4059
131.161
457.637
361.904
733.678
246.777
1559.05
105.274
743.977
1037.46
332.399
1387.69
937.197
1307.46
550.57
227.836
1290.66
80.0232
747.336
122.04
1824.87
296.544
205.199
605.753
71.6384
331.157
1939.5
111.271
291.731
312.403
155.304
50.7635
514.03
113.67
673.382
768.964
766.438
87.567
199.01
84.166
302.997
89.2019
328.539
589.641
833.734
64.1701
68.0411
308.54
412.999
2236.48
833.568
265.336
954.713
484.246
132.222
626.766
459.428
552.57
473.367
482.133
67.1979
62.5254
77.2589
663.096
66.0596
321.356
540.899
304.946
745.411
60.6597
57.3144
85.742
254.206
634.426
413.992
59.6112
763.679
93.0187
1042.93
1235.29
368.945
1239.04
1057.79
59.4398
59.6026
54.5188
224.452
1232.93
1181.22
2499.2
383.151
1036.46
53.1612
50.888
55.6808
55.4402
52.5914
48.1963
47.7838
73.5094
50.6237
79.1585
1060.37
733.401
183.865
54.7062
47.4645
58.5407
149.061
47.4028
66.3826
196.916
78.1857
71.95
69.2157
86.6932
691.953
57.6007
546.335
717.44
106.46
49.9819
58.0765
164.229
49.4897
52.9282
65.9345
51.118
76.557
754.296
595.752
181.965
85.4395
555.383
289.432
688.952
46.7495
53.9781
670.803
264.159
612.869
1192.19
310.254
590.854
122.006
62.7151
600.451
330.589
185.746
127.333
106.541
563.958
118.764
149.415
103.751
956.983
835.988
61.0364
45.2195
123.762
461.007
80.0765
607.304
377.328
684.33
352.341
143.475
70.7513
69.506
61.5246
90.9637
53.5376
78.5472
100.88
368.499
844.55
472.154
407.347
662.18
420.852
404.122
483.665
454.157
352.005
1064.82
57.0489
434.726
65.3965
60.9468
284.279
804.452
67.2906
92.2732
51.0016
117.362
64.2282
257.372
424.691
62.173
87.3466
160.27
195.504
164.872
891.575
446.107
383.281
237.164
85.9128
47.4827
127.659
389.653
417.72
231.468
338.562
590.671
666.673
715.812
404.284
208.945
1010.12
760.122
264.289
343.38
970.095
526.242
538.655
599.626
67.1662
56.7303
57.5012
65.7862
57.5209
60.3483
62.5338
168.136
82.2014
57.9069
65.8718
66.0613
48.7052
465.107
465.915
434.399
429.271
95.6381
106.118
131.833
111.864
143.776
96.2197
75.1494
96.8988
57.3409
57.0899
493.667
98.4894
553.278
87.8225
93.684
65.2068
229.956
46.2197
673.174
132.98
355.803
151.328
72.8026
49.524
1067.86
591.144
169.239
83.2058
419.658
85.0585
183.611
947.16
1436.2
442.373
988.667
1032.26
217.353
797.484
652.586
337.123
73.2352
207.133
118.794
65.6435
607.262
162.378
52.9741
1080.33
229.707
48.2031
232.668
396.671
46.7559
60.5787
51.0056
75.2248
618.029
130.956
346.381
55.0901
476.59
56.2893
303.414
390.235
285.653
699.755
102.318
258.67
275.816
440.188
714.3
390.382
349.499
404.597
535.093
111.357
99.6392
63.1948
50.3041
62.6196
51.4466
322.058
56.9787
48.2868
47.9032
48.2858
160.197
77.3403
119.176
100.284
67.6555
61.3485
57.9953
53.4533
68.0719
48.8067
52.1575
48.0176
57.7045
71.9172
61.9852
79.6572
110.49
79.1881
149.944
151.988
62.779
58.8049
66.3058
579.269
51.8218
55.327
239.904
74.7537
47.8862
916.008
349.16
81.2225
47.056
56.9706
54.3328
46.6433
141.861
760.918
77
387.197
54.9959
50.1279
67.6155
770.73
1504.38
72.0482
726.405
69.3237
1809.42
928.937
67.3565
503.193
141.701
1566.53
74.0024
79.1103
78.6666
60.3261
51.5872
1785.57
1555.78
62.0093
334.843
46.9155
59.9376
45.3111
50.1642
789.989
423.441
77.8074
66.9096
152.932
54.9287
72.435
451.004
253.481
1068.88
50.8741
73.7621
543.732
82.9486
48.3173
56.5004
45.6863
49.0116
70.3372
71.4058
50.2232
55.7292
71.5526
60.7755
111.627
61.9238
153.655
183.512
52.5609
53.6601
52.0268
154.304
158.383
66.0965
522.337
983.754
202.8
690.912
47.0485
900.162
50.4104
66.172
149.641
68.2845
427.927
52.2972
697.203
70.1129
82.5004
651.695
140.464
989.603
1789.03
2246.09
594.397
1758.34
2253.86
419.224
162.488
933.184
45.9819
68.9608
1220.04
954.172
142.462
142.816
49.2316
399.659
72.8976
716.946
97.8128
88.2616
79.8982
1027.46
1119.98
550.689
1809.4
1927.83
504.233
691.203
58.0528
801.834
52.2274
52.347
48.8785
51.7754
53.266
47.0263
51.9611
52.4933
60.7769
1179.83
477.649
1032.25
62.1487
741.319
99.76
72.4589
56.8899
57.6002
271.551
80.5616
55.4482
133.988
317.16
1419.09
92.3672
239.885
1211.94
1250.4
1165.08
425.66
1075.88
709.103
53.7764
987.467
1481
81.0774
1943.3
585.826
590.296
210.57
189.134
585.29
647.319
611.815
584.764
710.404
695.171
102.447
156.867
399.66
1762.57
2266.89
400.796
53.9349
104.444
49.2499
66.8196
951.036
250.905
183.032
762.424
63.4895
48.7773
49.4436
58.9498
60.0835
137.799
48.0789
217.692
112.882
70.2614
410.189
72.1722
59.5064
55.3691
62.6978
57.7232
76.0679
48.0644
58.5395
56.7082
55.7852
48.5855
2330.32
102.101
94.8981
698.846
83.2021
383.508
111.191
276.807
767.681
280.149
345.729
172.931
83.7929
104.239
63.8288
182.003
167.158
49.3353
54.6352
68.7417
91.0424
61.9755
81.6106
59.6132
63.4834
65.7314
1370.98
1356.25
1218.85
1306.59
149.71
115.061
113.748
162.291
49.006
55.0493
401.476
86.0852
101.492
57.2247
365.79
61.2016
59.7704
60.7568
69.2534
219.505
131.604
70.6271
594.745
119.903
149.587
86.1236
160.481
72.5332
59.2485
78.3134
487.498
575.139
497.571
533.683
952.873
464.225
641.24
434.618
584.369
889.716
609
1859.81
271
1049.68
911.125
408.902
142.526
109.886
193.976
49.0118
2042.39
349.076
362.162
488.386
55.2475
50.4791
574.135
77.6756
60.1364
793.047
153.727
570.428
80.686
350.757
376.396
849.161
1033.65
50.1269
84.346
50.0809
55.7504
50.4554
51.1627
135.49
1893.13
73.5663
179.959
337.843
70.6307
148.265
187.425
51.3784
131.058
420.094
454.994
689.998
249.209
607.154
48.1919
46.4364
562.785
569.861
280.394
97.0408
521.65
148.29
110.301
95.9077
106.481
74.6293
133.328
67.6797
130.067
127.302
358.982
385.665
184.55
133.704
57.898
73.5371
169.922
609.906
843.416
156.781
140.707
630.561
161.495
85.3727
131.433
168.637
246.42
277.324
321.357
120.358
124.817
734.44
183.067
135.878
248.162
581.814
170.515
57.3715
53.4612
68.4078
56.1258
258.153
158.991
80.5312
69.144
159.125
52.1611
55.3452
51.4561
56.393
50.8656
58.9988
61.3393
71.099
222.299
425.497
59.9355
184.792
97.5616
393.916
86.9434
1242.15
57.7284
331.035
330.714
1327.75
578.477
962.796
104.749
698.15
118.441
85.0058
271.988
57.8445
82.1271
329.967
197.933
342.684
93.8104
188.182
79.7269
601.569
141.935
209.85
116.866
96.2859
209.583
136.949
58.054
1029.36
778.855
49.1725
47.7012
48.1839
54.2628
1251
1156.09
270.989
751.257
56.0716
55.6068
58.3872
464.016
480.564
682.031
454.501
58.2339
463.759
649.34
513.254
518.082
45.2004
1264.44
153.233
224.641
189.989
712.554
765.793
395.267
202.247
57.7771
61.0335
391.919
57.5307
46.9451
378.365
264.094
236.909
219.262
450.412
78.9462
90.6728
58.0486
717.552
57.7167
55.4227
50.7996
50.0422
48.0946
45.2844
59.0167
51.3359
47.5426
64.0226
69.7101
77.3521
72.3119
48.0249
51.1835
50.913
750.416
74.4969
579.678
66.5264
228.106
167.572
65.7313
57.8636
135.812
1340.7
255.214
63.9038
53.9896
68.8463
67.734
81.0275
399.672
71.55
74.8898
298.686
94.0028
56.5946
63.502
195.319
192.031
466.183
240.15
1138.74
424.622
634.384
81.4647
75.4017
125.918
64.9635
85.9513
64.1437
390.23
46.3736
103.819
110.245
291.991
125.211
55.0907
667.873
867.353
830.259
1000.25
414.529
768.259
750.099
54.0243
828.997
122.766
80.1527
68.5673
64.3087
55.1373
56.2355
74.3482
73.0934
50.2173
73.5754
540.789
557.377
807.375
796.879
151.193
69.1175
68.3976
83.5424
46.7016
46.5341
510.55
178.524
504.929
46.5696
504.142
45.0914
750.619
216.382
57.0025
70.1154
988.133
190.405
616.542
59.1992
77.5331
947.81
59.1037
62.1677
45.9249
47.423
51.6687
79.6996
47.9984
334.121
47.5185
332.954
376.818
79.2873
55.9358
837.773
67.8771
50.5306
1339.25
135.377
53.9846
50.1781
88.2149
54.7535
267.026
458.272
253.686
280.041
1822.16
506.763
864.523
197.46
376.489
423.237
666.679
934.946
55.3211
57.8438
57.6992
244.651
302.358
165.354
882.704
271.555
128.6
94.5016
72.7259
52.1101
239.684
1290.62
124.808
120.289
1793.41
248.742
309.961
775.858
56.007
104.062
60.8519
82.4644
85.2327
358.655
268.015
269.468
456.247
266.544
94.8028
48.536
74.9855
57.1376
51.1179
758.527
212.102
254.364
349.005
354.69
46.0171
48.2301
55.3734
53.2576
56.1992
79.4233
58.5311
258.732
302.982
418.12
474.781
475.234
328.8
209.532
353.891
339.667
815.482
225.369
613.239
336.849
527.247
83.517
449.688
100.765
566.714
472.037
615.631
121.36
169.891
369.196
157.341
71.8299
93.1153
172.511
757.639
72.7802
324.007
73.9325
52.4527
105.691
385.154
317.661
50.7865
249.021
61.275
62.5288
60.814
49.5863
57.8111
202.7
163.224
884.548
115.742
180.059
526.272
277.29
441.619
70.8374
407.66
454.386
523.515
401.658
558.117
515.401
381.589
336.65
2615.06
687.085
642.32
1081.23
657.072
67.4931
53.9604
55.4125
51.636
69.3268
1148.2
53.805
48.8005
60.8667
295.07
148.99
148.457
1402.41
155.142
610.776
1333.61
668.391
162.681
207.778
899.692
70.6579
69.1367
347.305
70.4169
63.7947
91.484
58.034
178.056
54.2074
56.54
48.3538
49.0943
77.8987
415.944
107.672
328.051
62.9904
661.351
845.074
582.691
62.7669
176.125
2053.1
81.5564
74.4163
115.529
123.011
360.547
192.383
275.057
64.9486
62.4668
71.3812
67.2048
134.947
2066.95
1007.79
103.122
48.8304
151.023
249.41
1069.35
642.393
564.791
1392
150.312
90.9353
271.675
1401.42
486.122
49.5164
79.4244
629.161
859.335
909.659
92.432
807.136
82.0804
602.224
186.041
46.2156
53.8675
53.7124
55.1064
51.1853
48.6879
132.807
56.3094
82.3475
132.759
60.6919
53.3025
46.6726
46.7707
53.075
58.2219
114.74
415.636
126.407
261.328
366.022
1547.61
260.66
1210.11
69.6715
82.19
230.117
181.718
1944.47
46.0487
45.847
55.0358
707.867
180.391
247.014
74.0909
335.895
301.876
232.025
61.7516
46.4192
869.187
496.822
102.276
1859.14
46.9091
124.669
56.7971
320.334
48.3811
55.9498
50.6272
63.5999
790.457
372.21
134.557
106.959
1904.78
651.108
1070.41
612.921
696.825
2829.3
200.105
48.5138
83.9224
1087.45
48.9876
297.944
203.024
118.252
584.179
404.799
261.551
65.8636
49.5787
130.253
49.2732
54.3085
153.09
86.5142
97.1658
52.1217
54.0665
535.427
368.976
123.021
49.7327
298.486
61.594
262.901
267.953
912.805
366.76
941.862
638.134
57.3287
72.3795
220.119
2154.88
494.39
105.235
344.09
94.9329
74.1437
83.3217
73.9896
409.964
367.926
238.716
527.987
547.463
55.081
1248.53
304.431
407.948
484.496
199.649
292.686
54.191
53.0827
271.403
393.821
763.118
447.114
1649.56
174.122
615.193
1035.32
647.166
989.416
530.875
634.468
160.75
335.199
822.193
55.8551
405.743
50.5368
76.5007
64.3424
695.319
1049.76
649.546
56.6397
77.268
63.274
561.215
1428.35
1051.72
1524.17
3354.54
1289.08
1244.7
268.522
56.6035
111.286
1457.97
98.7436
1041.35
92.2223
439.462
99.4222
208.076
73.4859
424.515
788.851
1256
1153.22
1120.29
79.078
108.599
80.3281
100.085
129.206
53.3745
62.8786
62.311
1451.67
643.241
942.911
1237.76
223.629
115.306
206.011
52.2493
50.4004
545.287
51.4048
89.3053
138.932
51.0243
75.0604
47.8524
48.1863
72.0522
77.1145
49.8127
52.5329
281.837
1187.45
795.839
99.4391
668.67
94.4789
81.8057
82.8102
55.4433
60.1236
681.324
67.3985
46.3689
48.8519
56.8544
72.3938
71.5882
78.2409
52.3482
53.2697
57.4845
51.9603
52.4743
892.491
73.392
59.1798
316.675
1034.26
325.478
554.669
548.253
699.764
712.483
546.946
164.935
285.34
985.694
172.325
933.722
512.724
1536.02
692.377
578.505
765.13
704.31
850.461
66.5989
159.935
432.429
607.795
45.549
449.551
545.364
57.1255
156.638
2013.14
581.582
1108.91
118.843
772.626
169.11
319.571
114.861
47.9726
321.958
356.364
346.552
764.03
351.019
338.521
356.26
694.757
352.693
546.078
69.917
695.099
761.576
417.224
957.86
803.971
1273.05
77.7232
374.741
48.5111
64.7621
70.5239
54.6218
120.493
50.0107
49.8038
64.148
49.2202
101.092
48.5598
49.9719
97.4099
101.534
55.5459
91.5408
51.1471
65.1034
53.4739
638.41
392.787
233.569
654.25
96.5185
136.051
60.2776
395.029
539.191
349.534
416.709
80.6089
787.298
72.3856
45.3337
163.147
941.148
263.996
101.416
357.882
47.4734
45.2238
81.468
58.8784
77.4183
628.789
400.778
454.674
156.587
696.98
350.769
359.687
269.218
175.071
1917.05
815.637
56.1775
50.2814
47.5721
852.439
59.5514
53.7454
51.6549
1009.2
59.947
56.744
47.0577
49.7218
165.669
344.613
565.19
340.397
801.71
74.4881
79.8644
70.541
258.833
59.7637
427.117
102.575
1203.68
62.2086
691.539
1316.39
446.472
572.5
527.249
461.144
664.967
599.588
451.738
690.132
295.088
67.6335
1327.96
1745.03
943.607
839.533
594.809
576.4
798.509
1138.09
321.115
1343.92
54.9257
54.5663
51.6336
55.4141
219.239
52.4001
61.4586
1329.78
275.717
83.6862
696.372
127.309
65.8573
90.2262
254.744
83.7764
49.281
45.3649
123.913
152.259
48.7823
439.838
104.837
811.387
1242.95
46.0198
890.972
1236.49
780.825
850.887
648.135
545.969
575.13
1018.92
154.849
856.745
74.0541
265.227
359.09
299.854
130.103
195.72
124.804
128.331
1708.62
86.9378
1588.02
1540.55
1472.96
94.683
386.631
592.04
73.796
127.399
74.3081
624.866
560.167
123.45
413.906
133.502
73.7196
103.71
91.5575
177.18
811.632
116.16
74.09
300.744
116.353
119.727
113.215
169.02
49.9504
109.622
59.6352
45.745
49.3056
155.914
613.188
69.9467
356.896
297.893
67.6051
107.238
608.926
630.332
464.852
503.146
769.923
567.903
338.488
179.301
89.1257
1541.31
1137.72
311.197
504.523
370.604
351.958
500.847
387.723
761.214
165.815
333.892
908.906
1173.55
63.5605
50.0746
238.591
65.0772
73.0573
48.97
49.6818
55.9271
67.6408
191.547
57.1598
609.69
693.555
733.694
734.998
1346.21
414.581
47.3264
592.276
710.914
136.98
68.2799
81.3615
54.896
295.119
118.986
360.101
491.652
828.499
565.96
734.404
302.791
610.391
721.417
832.644
663.434
1905.59
1151.91
1160.72
1008.55
682.721
1420.69
273.397
402.026
1933.63
55.6655
60.3086
94.8968
58.1239
53.7381
70.0188
55.455
197.567
49.8754
74.5928
124.549
52.9646
56.4634
50.9776
102.328
53.3587
90.9521
1362.84
931.064
223.914
70.0078
2211.97
1305.32
1180.88
1785.21
727.28
663.894
624.224
1001.86
969.413
346.217
410.234
203.778
55.0298
55.2065
49.0644
62.3178
68.4546
54.8045
71.8362
65.1128
53.9988
49.941
66.8069
71.3496
71.1286
1887.44
107.137
1892.16
384.468
488.643
79.8159
47.1198
66.8249
134.812
73.3875
48.4265
66.7212
73.7746
65.3364
70.3804
75.7931
556.373
448.656
825.645
93.7038
198.251
1437.71
1361.98
45.874
60.0671
113.135
314.983
1307.84
47.984
56.3283
46.303
52.0002
90.2611
168.939
1194.43
74.6986
381.944
205.003
99.6295
98.0033
81.977
46.7763
61.8479
47.503
52.1086
73.2693
47.2553
1241.33
244.987
776.326
436.556
247.576
225.697
142.683
910.259
495.039
57.204
480.707
343.363
580.838
338.547
325.663
515.482
48.4707
519.823
82.6216
69.979
53.5905
46.0164
274.362
72.9805
75.0466
612.461
46.9344
52.1401
46.3744
51.2993
47.8269
52.867
91.985
63.796
49.5807
403.103
121.259
119.078
58.4626
53.9169
91.8584
90.1683
66.6325
448.882
194.475
627.937
167.778
64.781
578.62
64.0532
374.01
100.008
58.1015
148.301
68.4582
70.5748
154.838
127.257
59.8444
57.0116
52.5534
68.2576
67.9102
63.1936
108.742
620.176
400.101
540.499
207.168
458.124
156.229
891.79
515.903
423.591
49.1907
472.963
604.377
487.182
1418.75
565.762
1262.46
851.261
1217.34
1144.05
1311.33
659.943
560.178
74.4501
56.5468
58.2673
50.5766
710.48
49.283
811.124
74.3327
77.3231
188.222
51.7353
53.0403
55.0114
57.866
2020.79
544.144
946.744
159.062
57.4264
341.942
47.7442
54.9188
53.4995
626.325
76.0217
2046.67
184.052
365.704
456.581
185.268
623.609
57.4505
68.8253
597.641
342.408
360.073
918.184
1258.61
672.191
772.701
457.53
124.994
889.709
44.3922
57.6018
45.7031
99.0237
169.621
682.422
209.152
137.798
882.205
626.18
553.277
368.132
197.961
551.165
466.555
391.415
316.37
301.22
305.394
378.852
309.549
450.998
572.23
301.866
331.876
342.865
436.681
468.35
466.064
46.7929
71.6824
70.6249
62.1099
69.1964
69.1761
65.5335
68.8277
78.8572
101.504
94.9068
63.6058
61.2583
56.9832
68.1614
60.4567
113.803
93.1396
136.73
53.7596
88.2481
76.2767
146.394
67.7963
79.1268
151.838
105.596
60.6112
67.6869
148.262
134.397
63.0944
70.2885
101.917
345.356
1090.09
136.666
248.515
1455.77
1907.72
1258.89
328.255
83.732
77.0647
652.412
144.268
400.754
1411.15
1595.86
1477.43
781.349
378.133
630.367
593.348
557.654
314.756
588.671
322.649
414.672
616.647
682.127
1167.17
295.655
935.28
144.858
496.849
574.794
307.487
1784.29
300.916
561.181
140.68
456.992
587.847
72.8158
59.8819
67.3864
505.015
60.2135
56.607
94.818
177.112
389.531
147.571
248.805
217.203
57.6538
93.9978
50.3902
126.687
49.5734
51.5572
52.2397
50.139
50.3231
55.7522
88.7443
199.363
124.581
86.746
536.539
153.407
87.9805
117.477
82.2489
67.3522
61.9085
99.0714
152.086
65.0649
627.741
719.64
682.587
703.698
295.187
488.534
98.2927
50.1373
177.902
408.549
52.6691
56.1069
454.143
886.904
55.8531
55.5565
49.6716
85.5603
542.854
62.1776
52.5084
409.059
53.8181
329.396
347.324
190.363
61.1933
78.3801
380.211
84.7397
51.452
596.667
50.8189
59.5944
55.9238
244.875
403.75
362.665
103.256
162.508
61.7534
169.269
564.004
60.865
138.107
62.251
56.724
60.8127
106.135
61.366
1818.9
1839.48
83.8515
118.071
778.075
1055.66
1039.7
824.914
130.539
225.047
742.125
750.308
978.626
619.532
444.734
48.2636
84.0415
55.3397
48.4914
577.664
651.496
83.1244
1194.13
660.452
878.686
1033.62
779.533
1267.24
436.121
1984.37
200.277
434.368
349.339
52.2844
140.252
122.492
109.73
404.306
184.333
384.279
707.228
304.44
181.241
830.95
407.313
129.484
71.408
82.9413
51.667
48.7247
67.0456
409.319
481.668
804.242
191.949
597.872
85.3288
879.276
264.473
161.115
69.0675
350.552
57.4379
263.599
666.537
224.018
71.744
88.0509
656.699
165.758
154.394
53.7286
82.92
76.1886
156.117
81.4377
68.9713
78.5776
80.1979
114.92
77.8905
98.6062
97.7979
108.01
60.2576
111.228
130.456
524.109
347.64
197.858
1487.29
2481.51
707.322
553.547
322.284
54.4662
49.1734
50.7181
46.7385
47.7073
1335.06
337.407
116.924
545.966
680.292
269.615
962.244
224.816
510.719
339.082
253.849
293.105
148.363
69.1015
56.8218
55.5466
56.7509
56.0285
978.822
660.16
2349.16
51.2512
69.9697
49.7459
72.6388
49.9681
172.777
97.7682
65.3474
107.971
63.7505
65.9529
51.8837
669.454
581.189
776.449
92.9761
190.702
79.705
100.705
47.1902
45.7654
67.318
52.4106
49.8319
115.022
53.0968
50.6225
68.5899
74.4062
127.486
356.216
223.565
171.639
117.473
304.482
114.292
594.265
75.7814
48.1757
49.6391
600.595
166.472
588.716
678.039
1027.71
499.138
746.994
578.066
668.366
62.576
54.988
184.633
130.302
63.5433
55.1449
118.558
344.287
77.9951
71.4249
46.6569
54.9928
50.9016
45.961
62.2008
63.835
50.0456
68.6731
69.2992
66.7024
52.7798
77.5075
84.4067
72.4226
54.3602
59.4756
55.4487
49.1878
347.131
203.331
1581.65
853.425
166.473
59.4518
64.854
49.8014
494.962
56.1463
49.6166
101.263
197.736
102.287
149.952
2361.36
99.8722
794.169
187.194
48.6863
57.3995
48.9827
735.623
815.985
418.469
854.42
94.9486
109.031
98.7283
73.8315
185.192
197.983
1466.09
50.357
68.0515
93.1382
847.258
103.757
82.1723
207.316
1171.82
463.927
767.112
216.274
163.383
698.769
538.736
104.067
94.9955
74.0108
72.7563
1182.46
422.809
47.444
51.3196
122.017
46.1069
45.3399
55.6501
143.411
52.0309
47.8676
48.2323
55.947
54.8738
73.8879
48.6581
522.557
893.922
715.839
567.942
896.896
63.9354
55.4684
89.4814
68.1101
105.711
1394.93
231.953
301.407
212.54
1344.62
65.8546
48.4627
58.3708
92.0059
49.9403
55.2579
66.9322
208.804
913.767
258.059
306.18
998.964
81.57
311.881
422.528
616.795
357.385
392.332
719.458
856.995
790.653
891.581
1386.24
756.688
248.093
708.222
218.308
53.9809
986.309
52.8773
51.1994
250.671
187.413
88.1454
238.358
48.0882
134.289
205.881
477.002
336.842
258.46
115.452
632.228
423.966
366.222
65.3037
76.9506
67.6556
532.768
90.9359
87.2811
599.754
954.101
860.21
324.877
891.174
750.597
365.982
455.422
1058.42
1954.91
1774.41
2117.66
68.713
66.5289
74.9701
973.437
63.0734
133.199
331.566
145.635
61.5146
534.37
358.306
459.227
691.881
1536.21
54.66
98.3388
85.3032
296.48
60.4623
54.0199
1253.33
1312.05
568.844
1765.8