/*--------------------------------*- C++ -*----------------------------------*\
| =========                 |                                                 |
| \\      /  F ield         | OpenFOAM: The Open Source CFD Toolbox           |
|  \\    /   O peration     | Version:  2506                                  |
|   \\  /    A nd           | Website:  www.openfoam.com                      |
|    \\/     M anipulation  |                                                 |
\*---------------------------------------------------------------------------*/
FoamFile
{
    version     2.0;
    format      ascii;
    arch        "LSB;label=32;scalar=64";
    class       surfaceScalarField;
    location    "0.0817324";
    object      phi;
}
// * * * * * * * * * * * * * * * * * * * * * * * * * * * * * * * * * * * * * //

dimensions      [0 3 -1 0 0 0 0];

oriented        oriented;

internalField   nonuniform List<scalar> 
7651
(
0.0188559
-0.0096403
-0.00278799
0.00119295
-0.0119782
0.00924797
0.00153726
0.0150884
-0.00332318
0.00868337
-0.0204486
7.25311e-05
-0.000371009
1.96506e-05
0.000278827
-0.000520588
0.021381
-0.00486066
-0.0159997
0.000439095
-0.00438257
0.00677302
-0.00282954
-0.00492484
0.000672926
0.000166896
0.00408502
-0.00787453
-0.00746613
0.00539869
0.000273207
-0.000459529
0.000501882
-0.00031556
-0.0279896
-0.00981744
-0.028826
-0.000410318
-6.44847e-05
0.000404099
7.07044e-05
0.00186973
-0.00057429
2.84721e-05
-0.00132391
0.0063985
-0.00432452
-0.00677693
0.00470295
-0.000828098
0.00100501
0.00011313
-0.000290038
0.000776088
-0.000891988
0.00544552
-6.72718e-05
-0.000285995
2.48665e-06
0.00035078
-0.00395534
0.00307922
-0.00185876
0.00273488
0.000722417
0.00240571
-0.00241947
-0.000501824
-0.00015028
5.86359e-05
0.000593468
0.0043655
0.0129048
-0.016826
0.00046744
-0.000673741
0.000158944
4.73567e-05
0.00296561
0.00326817
-0.00360527
3.96478e-05
0.000142169
0.000155609
-0.000337425
0.00269652
-0.000617096
-0.0018839
-0.000195518
-0.00325597
0.00147768
0.00420788
-0.00242958
5.91453e-05
0.00146903
-0.00496511
0.00343694
-0.000583797
0.00249488
-0.00206351
0.000152425
0.000494977
-0.00036699
-0.00024849
0.000120503
0.0118181
-0.0122032
-0.00429823
0.00468332
-0.000477729
-0.000412216
-0.000113579
0.00100352
0.000130357
-0.000534397
-0.000621158
0.0010252
0.000285447
-0.000202082
-0.000415443
0.000332078
0.00786688
0.00411368
-0.00950543
-0.00247514
0.00086825
-0.00151155
-0.000163194
0.000806493
0.00193618
-0.00209839
-0.000194985
0.000357188
0.000555831
0.000468012
-0.00096997
-5.38725e-05
-0.000330985
0.000123414
0.000484778
-0.000277206
0.00036167
0.000318271
-0.000355721
-0.000324221
-0.000574547
0.000395984
0.000147084
3.14791e-05
-0.000150848
0.000181533
-0.000447237
0.000553678
0.000266241
-0.000372683
0.000443785
-0.000125514
-0.00288807
-0.000342269
0.00262595
0.000604388
0.00024033
0.000203455
0.00193945
-0.0030958
-0.000860036
0.00201638
-0.000812641
-0.000347186
0.00092067
0.000668981
-0.00101622
0.000347241
-0.00100968
8.05653e-05
-5.90207e-06
0.000935021
0.00376906
0.00258094
-0.00270527
-0.00364472
-0.00144986
-0.00146927
0.00113925
0.00177989
-0.0150429
0.0281679
-0.013125
-0.0180946
-0.00759388
0.0068053
0.0188831
-0.00244285
-0.0107127
0.0065199
0.00663569
0.000175178
-0.00346089
-0.00564687
0.00893258
0.0591792
-0.024193
-0.0271547
0.000672417
0.000874314
-0.000648493
-0.000898238
-0.00255877
-0.00361236
-0.00282668
0.00899782
-0.000316395
0.000432045
-0.00011565
0.000137082
-0.000362476
-0.000181744
0.000407138
-0.000319604
0.000172594
0.000186657
0.00384839
-0.000614088
-0.00444091
0.00120661
0.00222678
-0.00305434
0.000914984
-8.74229e-05
0.000367365
0.000218978
-0.000303726
-0.000282617
-0.000224525
-0.000346174
0.000570699
-5.66901e-05
0.00027202
-0.000554597
0.000339268
0.000719201
-0.000550817
0.000588852
-0.000757237
-0.000194568
0.00025771
-6.3142e-05
4.34084e-07
0.00016781
-0.000448546
0.000280303
-0.00368126
0.000772756
-0.000761311
0.00366981
-0.00303986
-0.00760978
0.010129
-0.000216877
-0.000782181
0.000521475
0.0056431
0.00224584
-0.0073167
-0.000572234
-0.040662
-0.00567124
0.0338668
0.0124665
0.00230062
-0.00277173
-0.00278486
0.00954266
-0.000147096
-0.0115021
0.00210657
-0.00136935
0.000442696
0.00089187
3.47798e-05
-0.00412806
-0.00517623
-0.00258201
0.0118863
-0.000405282
-0.000360668
0.00139792
-0.000631974
-0.0027747
0.00367211
0.00214341
-0.00304083
-0.0238518
-0.0041253
-0.0068018
0.0347789
-0.000564561
6.64136e-05
-0.000568061
0.00106621
-0.00250029
0.0156499
-0.00387695
-0.00927264
0.00143444
-0.00109175
0.000102277
-0.000444968
0.000447914
-0.00132761
0.000192711
0.000686988
-0.000501481
-0.00194832
0.00112394
0.00132586
-0.000247264
0.000210137
3.71266e-05
-0.000177719
6.29251e-05
0.000332716
-0.000217923
0.007254
0.00621563
-0.010091
-0.00337861
-0.0070248
0.00139393
0.000772975
0.00485789
-0.0143534
0.0129753
0.00556344
-0.00418538
0.000239837
0.00245619
-0.00232773
-0.000368291
0.0121265
-0.000974767
-0.0104552
-0.000696566
-0.000220592
0.000164059
-0.000106485
0.000163018
-0.000253318
0.000158835
9.44826e-05
0.000178275
-5.52461e-05
-0.000376347
0.00755488
0.0167588
-0.0196853
-0.00462835
8.3805e-05
-0.000126122
0.000100388
-0.000189948
7.96269e-05
9.93366e-06
0.00661657
0.0232551
-0.0410276
0.0111559
-0.0215054
0.0017922
0.00161863
0.00023184
3.26068e-05
0.000795319
-0.000490365
0.000275033
-0.000579987
0.000439599
-0.000255477
-0.000234888
-0.0436705
-0.0351896
-0.00563426
0.0134125
-0.00469741
-0.00308081
-0.0070011
0.0142824
0.000178329
-0.00745967
-0.00159079
0.00237221
-0.00463818
0.00385677
0.00410675
0.000364622
-0.00442142
-4.99525e-05
0.000118569
0.000793099
0.00548683
0.00501876
-0.00235184
0.00211589
-0.00478281
-0.00765998
0.00218893
0.00114653
-0.00186546
-0.00454378
-0.000367699
-0.00293536
0.00274188
-1.07977e-05
0.000204274
0.00216224
-0.000990854
-0.00141055
-0.000419976
-0.0031706
0.00500112
0.0215577
0.00375848
-0.00607518
-0.019241
-0.0203351
0.00634373
0.00930066
0.00469073
0.0015153
-0.000292723
-0.014998
0.0156321
0.00570966
0.0453814
-0.0415397
0.0714808
-0.0753225
0.000877698
-0.000433111
0.000597247
-0.00104183
0.0014473
-0.00183676
0.00393853
-0.00354908
8.14613e-05
0.00107888
-0.000280062
-0.000880281
-0.00312255
-0.00147994
-0.000175441
0.00477793
-0.000196841
-0.000517877
0.000420341
0.000294376
0.0287173
-0.00334224
-0.0216166
0.0163155
-0.00784392
-0.00754705
-0.000924565
0.00073543
-0.005739
-0.00153493
0.00653851
0.000262897
0.00312084
-0.00248383
-0.00089991
-0.00400732
0.00212518
-0.00464413
0.00652627
0.00281671
-0.0033016
0.00211835
-0.00163346
0.00288606
-0.000559615
-0.00206355
0.0002088
-0.000339746
2.44602e-05
0.000211481
-0.000498318
-0.000551109
0.000837946
0.00245684
0.000391243
-0.00265741
-0.000190671
0.0146955
0.0403695
0.000500762
-0.00252129
0.007867
-0.00584647
-0.00841044
0.00785838
-1.46746e-05
0.000566732
0.0105259
-0.00740499
-0.00876556
0.00564466
-0.0010921
0.0256301
-0.00129274
-0.0232452
0.000282982
0.000704651
-0.000825626
-0.000162007
0.000117083
0.000784566
-0.000466944
-0.000434705
4.30196e-05
-0.000746133
0.000986096
-0.00189589
-0.000754938
0.000514768
0.00213606
0.00229667
0.00254369
0.0634823
-0.0180936
-0.00262823
-0.0427605
0.00559378
0.00909351
-0.0128113
-0.00187596
-0.000714612
0.000172129
0.000400903
0.000141581
0.00575698
0.00265986
-0.00341968
-0.00499715
0.000760327
0.00542467
-0.000428016
2.19472e-05
-0.00550133
-0.00194536
0.00742475
-0.00460887
-0.00159926
0.00623008
-0.00125011
0.00306652
0.00114397
-0.00296039
-6.55708e-05
0.0011402
-0.00297052
-0.00378899
0.00247332
-0.00184997
0.00739201
-0.00260241
-0.00293963
0.00211911
-0.000253336
-0.00262071
0.000551496
-0.000706355
-0.000345659
0.000500519
-0.00107853
0.000340684
0.00128934
0.00397718
0.0070383
0.00133886
-0.0123543
0.0138942
-0.00912478
0.0261293
-0.0308987
-0.00118543
-0.00710786
-0.000223268
0.00851656
0.000299326
-7.17441e-05
4.2584e-06
-0.00101119
-0.000298204
0.000655648
0.000653752
0.000246301
0.000256067
-0.000502368
0.00204875
-0.000484803
-0.0010209
-0.000543049
0.00101491
-0.000490461
-0.00123081
0.000240397
-0.000304012
-0.00139201
-0.000361604
0.00127055
0.000483067
0.00853216
-0.00365595
0.00237779
-0.000505037
-0.00132913
0.00207456
-0.000845395
0.00202043
-0.00168007
-0.00168997
0.00149892
0.00235325
-0.0021622
-0.00205001
0.0448616
0.00616716
-0.00381373
0.00144643
-0.00379986
-7.61889e-05
5.45064e-06
-0.00033958
-0.0068177
-0.00897371
-0.00307171
0.0188631
0.000103299
0.00346324
-0.00320191
0.00756827
0.0155773
-0.00738868
0.00209194
-0.00119294
-0.000534129
-0.000364865
-0.00126549
-0.000753626
0.000606286
0.00141283
2.88042e-05
0.000249649
2.68365e-05
-0.000305289
0.00251841
0.00298425
-0.0079455
0.0145881
0.00620026
-0.0164228
0.0113838
0.00513647
-0.000204765
-0.00919599
0.0107388
0.00572106
-0.00726386
0.0018451
-0.00099795
-0.000450145
-0.000397
-0.000794356
0.00194807
5.56091e-05
-0.00120932
-0.01079
-0.00136143
0.0132549
-0.00110348
-0.00211565
-0.0014861
0.000955346
0.0026464
-0.000432702
0.000109605
-0.000776807
0.0010999
0.000795962
-0.000214875
-0.000450967
-0.00013012
-4.90469e-05
-0.00207096
0.00132565
0.000771521
4.18586e-05
0.00113469
-0.00062645
-0.000341295
0.00151296
-0.000545213
0.00237241
-0.00178215
0.00230895
-0.00289921
-0.000106032
0.000451749
-0.000302698
0.00729257
-0.0124402
0.0120589
0.00158975
-0.0011547
-0.000315725
-0.00283785
0.00203324
0.00112033
0.000338649
0.00271182
-0.00217326
-0.000877212
-0.00010525
0.000142324
-0.000143107
-0.00033004
-0.00015949
0.000489531
-0.0010794
0.000928967
0.000417031
-0.000266597
0.00247522
-0.00237702
-0.00127303
0.00117483
-0.000759764
0.000487363
-0.000354049
-0.000136286
0.000112751
-4.02912e-05
0.000372316
-0.000699001
0.000326685
-0.000766169
-0.00181033
-0.000944518
0.00352102
5.15907e-05
6.83818e-06
-0.000163678
-0.00182468
-1.23811e-05
0.00054539
0.000275394
-0.000290791
0.000181855
-0.000166458
0.00101561
-0.000376417
0.00214069
-0.00277988
-0.000210604
0.000245285
0.000240713
-0.00157352
0.000165131
0.000246241
0.00116215
0.000765332
-0.00027637
-0.000365548
0.000695008
-0.00162306
0.000928048
-0.000194082
-0.000202695
0.000186172
0.00014225
-0.000336728
0.00179726
-0.00160278
-0.000453407
0.00019793
-0.000161461
1.29947e-05
-0.00153494
-0.000338761
0.00368159
-0.000120889
-0.000802226
0.00140765
-0.000484532
-0.00010519
-0.00162824
0.000545971
0.00118746
-0.000808501
0.000638154
-0.000102698
0.000273046
-6.57117e-05
-0.00258262
0.000192855
0.00245547
0.00047281
-0.000213053
1.34716e-05
-0.000273228
-0.000479918
-0.000345656
0.000704685
-0.00803673
0.0180865
-0.0138458
0.00379606
0.000927314
0.00024134
-0.000335472
-0.000833181
-0.006076
-0.00378842
0.0121216
-0.00225723
-0.000134729
-0.00126044
0.00266652
-0.00127135
0.0017996
-0.00144528
0.0014451
-0.00179941
-2.05119e-05
0.000406445
-0.000865851
0.000617645
-0.000303848
-0.000711616
0.00039782
-0.00178067
0.000189903
0.00215288
-0.000562109
-0.00176874
0.00326118
-0.00169861
0.000206167
-0.000471888
0.00079671
-0.000163495
-0.000161326
0.00191378
-0.00343253
-0.00788881
0.00940756
0.00173428
0.0107058
-0.000684706
-0.0117554
0.0135264
-0.0057944
-0.00931863
0.00158661
0.000248349
0.000914694
-0.00116304
-0.0081921
0.0137987
0.00496973
-0.0105764
0.00368463
-0.00510114
6.74015e-05
0.00134911
-0.000847421
-0.00038628
0.000473937
0.0159519
-0.00692417
-0.00214873
-0.000498065
-0.000384452
0.000410629
0.00687355
-0.00392007
0.00261857
0.00443965
-0.00335093
-0.00111292
2.41952e-05
-0.000408194
-0.000203494
0.000316689
0.000294999
0.0007468
-0.00156954
-0.000211584
0.00272682
-0.000645392
-0.00186984
0.000130908
-0.0034113
-0.000158331
0.00343872
-0.000629888
-0.000535804
0.000319636
2.95923e-05
0.000109752
-8.77538e-05
0.016295
-0.00174004
-0.0220905
0.00753553
-0.000526124
-0.00141549
0.00151959
0.00042203
0.000568601
0.000451215
-0.00221444
0.00119462
0.000240385
0.00307385
0.000671429
0.00139494
-0.00135246
4.17016e-05
-0.00062801
-0.0012288
0.00181511
0.000785661
-0.00168539
-0.00288927
0.00128091
-0.00344021
-0.000671451
0.00283076
0.000919504
-0.000743419
-0.000912754
0.000736669
0.000434726
0.00113681
-0.00209848
-0.00462794
-8.26559e-06
0.00673469
-0.00187518
0.00214979
0.00160674
-0.00188136
-0.000862544
-0.00101264
-0.000507113
-0.000294422
-0.000967201
-0.000190885
0.00176507
-0.000314849
-0.00125934
-0.000636326
0.0019119
-0.00394088
0.00266531
0.00263791
0.00571232
-0.00898656
-0.000268601
0.000457369
-0.000654687
0.000465919
-0.000324817
4.04059e-05
0.000557618
-6.99476e-05
0.000532389
-0.00092197
0.00056829
-0.000156969
6.1489e-05
1.6631e-05
0.000191711
0.000359948
0.00678485
-0.00124156
-0.00514039
-0.000402896
-0.00567801
0.00530732
-0.003797
0.00416769
-0.00317073
0.00999034
-0.00597434
-0.000845264
-0.0025438
-0.00235684
0.00219372
0.00270691
-0.000676685
-0.00313435
-0.00186698
0.00100234
0.00114615
-0.000155341
-0.00199315
-0.000466188
0.00202009
0.000645261
-0.00219916
-0.00326326
0.00301959
0.00220145
-0.00195778
0.000712768
-0.00297369
0.00288317
0.000228752
-0.00127647
-0.00183545
0.000304348
-0.00201376
0.00658714
-0.00487773
0.0101953
-0.0044547
-0.00588262
0.00014204
-0.00650748
-0.0094419
0.001596
0.0033741
-0.00378122
0.00645402
-0.0060469
-0.000940264
0.000210786
-0.00580963
0.00362214
-0.000544489
0.00273198
-0.00892118
-0.00317184
0.00785345
0.00423958
0.000845399
-0.000917063
0.00254688
0.000324437
0.00474732
0.00138008
0.000866117
-0.00100398
0.00053333
-0.000395469
-0.00196889
0.0193211
0.0032936
-0.0206458
-0.00245489
0.00367468
-0.0105681
0.00934833
0.00202003
0.00101128
-0.00213054
-0.000900762
0.00593364
-0.00380479
-0.00162808
-0.000377834
5.25412e-05
-0.000314786
0.000640079
0.000142465
0.000275663
0.000406928
-0.000732762
0.000468299
-0.000287367
0.000746836
-0.0233802
-0.00259195
0.0207457
0.00522644
-0.0110647
-0.000807005
-0.00776042
0.0196321
0.00668138
-0.00208973
0.00175728
-0.00634894
0.0118319
-0.00496853
-0.0101113
0.00324791
0.00474442
7.84059e-05
-0.000722144
0.00120566
-0.000561925
-0.00170312
0.0121491
-0.000709492
0.00243978
-0.00012889
0.000399646
0.00480789
0.0074921
-0.00211261
-0.00138899
0.00165626
0.00184534
-0.000583898
-0.00347291
0.00194116
-0.00143996
-0.0105355
-0.00974871
0.0153769
-3.44499e-05
0.00576368
-0.00221906
-0.0123369
0.000714316
0.0205931
-0.00897052
7.46702e-05
-0.00100927
0.000888296
4.62996e-05
-2.65195e-05
-1.49488e-05
-0.000356781
0.00039825
-0.00706749
-0.0118455
0.017284
0.00162895
0.00345733
0.000501012
-0.00358468
-0.000373663
-0.00110436
0.00187072
-0.00105578
0.000289407
0.000247544
-0.00280194
0.00232134
0.000233049
0.0278046
-0.0264296
-0.00137502
0.000762573
-0.0031972
0.00352953
-0.0010949
-0.000980827
0.000768085
-0.00213002
0.00234276
0.00433366
0.0181731
-0.0371316
0.0436746
-0.0247161
0.00250599
-0.0463118
0.0406145
0.00319128
0.000570102
-0.000553664
0.000438122
-0.000407557
-0.00172295
0.0029395
0.00257693
0.000288031
-0.000654451
-0.00221051
-0.0018308
0.00280913
-0.0131976
0.00119944
0.0011402
-0.00102686
-0.00131277
0.00155266
0.000755704
-0.000306331
-0.00200204
0.000483438
0.00200219
0.00157455
-0.00406018
0.00676515
-0.0133347
-0.000917536
0.00748708
0.00683589
-0.00880058
-0.0017997
0.00376438
0.001485
-0.00322676
0.00103611
0.000705648
0.00128249
-0.00217609
0.00332079
-0.00242718
-0.0100743
-0.00643495
0.0110415
0.00546776
0.00162358
-0.00250119
-0.0025264
0.00340401
0.00255869
0.00144102
-0.00088962
-0.0031101
-0.00116573
0.00125984
-0.000429112
0.000334997
0.00108538
-0.00207662
0.001118
-0.000126767
-0.00373528
0.00408137
0.000259767
-0.000605863
0.000732048
0.000195266
-0.000787284
0.000993184
-0.000670589
0.00046469
-0.00262444
-0.0101598
0.0200769
0.00134739
0.00218803
-0.00364061
0.000238278
0.000209221
-0.000207243
-0.000240257
0.000119827
0.00226015
0.00138908
0.000376816
0.000448949
-0.000314443
-0.000511321
-0.0107451
-0.00899068
0.00335293
0.0163828
-0.0116421
0.00542715
0.000907964
0.00530702
-4.5168e-05
-0.0024531
0.00273811
-0.000340202
0.000741263
-0.000627126
0.000226066
0.00327263
-0.000296402
-0.00135153
-0.0016247
0.000965506
-0.000164798
-0.00190507
-0.00151122
-0.00209629
0.00204761
0.0015599
1.16609e-05
0.000142044
-0.00012736
-2.63447e-05
-0.000537331
0.00145463
-0.0015011
-0.00179986
0.00246492
-0.000633559
-3.15015e-05
-4.20195e-05
-2.34508e-05
-0.00182713
0.0018926
0.00140831
0.00133564
-0.00198388
-0.000760062
-0.000415053
-0.000313157
-0.000422573
0.00115078
0.000102187
0.000164483
6.15963e-05
-0.000328265
-0.000167973
0.000625371
-0.000457398
-0.000123999
-0.000187873
0.000274067
3.78048e-05
-0.000894942
-0.00319453
-0.0031287
0.00721817
-0.000864009
0.00176656
0.000593491
-0.00149604
0.000172485
-0.000377333
0.000870874
-0.000666026
-0.00331021
0.00432992
-0.00123129
0.00238026
-0.000538942
-0.00154427
-0.000297053
0.0167074
-0.00520911
-0.0191424
0.00764409
0.0198493
0.00876326
-0.021996
0.000989289
-0.00076578
0.00303767
-0.00336305
0.00472352
-0.00225542
-0.00394456
-0.00188741
0.00120449
0.000570152
0.00191319
-0.00368784
-0.000385502
-7.20116e-05
-0.000277121
0.000734635
0.0175117
0.00265687
0.00121245
0.00686644
-0.00755832
0.000810451
0.000438121
-0.00138326
0.00126354
-0.000318399
-0.0137139
-0.00189153
0.00328712
0.0123183
0.000790084
-0.000883592
-9.89507e-05
0.000192459
-0.0013655
0.00645201
0.00282499
-0.0079115
0.00433393
-0.00251543
0.000597945
-0.000638339
-0.000364888
-0.0104336
-0.0171807
0.0372121
-0.00959776
-0.000218893
-0.000253758
0.00030751
0.00016514
0.00172469
-0.000831941
-0.000102669
-0.00117456
0.00134767
-0.000335001
0.000161893
0.000747171
-0.000703903
-0.00116403
0.00112076
-0.00113365
-0.000191227
-0.0012224
0.00254728
-0.0024178
0.00204826
-0.00139604
0.00176557
-3.086e-05
0.00068155
-0.000104946
-0.000545744
-1.79254e-05
0.00187137
-0.000374472
-0.00147897
-0.0019182
0.00100318
0.000435418
0.000479599
0.000744997
0.00175687
5.45603e-05
-0.00255643
-0.00536329
0.00389041
0.000107382
-0.000488871
-0.000210666
-0.000184055
0.00121367
-0.00335724
0.0015982
0.000545375
6.59076e-05
0.000617108
-0.000756353
7.33377e-05
-0.02314
-0.00981994
0.0108048
0.0221551
0.000871647
0.00071422
-0.00103652
-0.00054935
0.0018722
-0.00362073
-0.000659942
0.00240847
0.00147209
0.00271743
-0.00460048
0.000410966
-0.00095385
-0.001757
-0.000923944
0.0036348
0.00194617
-0.000195321
-0.000458213
-0.00129264
-0.000636865
0.00165128
0.00148047
-0.0115799
0.013118
-0.0150344
0.0134963
-0.00021668
0.00100704
4.61321e-05
-0.00083649
-0.00363096
0.00179713
-0.00190145
0.0144887
-0.00279708
-0.0161521
0.00446046
0.00285612
-0.00371375
0.00280318
-0.00213569
0.000398403
-0.00106589
-0.000384755
-0.000340163
0.00105959
-0.00160004
0.00265736
-0.00211691
-0.000284485
-0.00144111
0.000483345
0.00124225
0.00249577
0.00204403
-0.00265229
-0.00188751
-0.00120827
0.00129507
-0.00136146
0.00127466
0.00112818
-0.00138406
-0.00119614
0.00145203
-0.00683541
0.000520721
0.00707502
-0.00229555
-0.000113135
-9.11698e-06
1.67947e-05
-0.00172331
0.000850756
0.000855761
0.00195138
0.000514775
-0.00133404
-0.00113212
0.00414433
-0.00251539
-0.000866365
-0.00313491
-0.000623273
0.000870114
-0.0019708
-0.0013976
0.00269993
0.000668465
-0.00110203
-0.00106936
0.000869632
0.00130176
0.000427884
4.47934e-06
0.000174206
-0.000606569
-0.000835651
0.000209687
-0.000622292
0.00124826
-0.00499223
-0.00125611
0.00372705
0.00192871
-5.31406e-05
-0.000985516
-0.000890052
0.00117727
0.0114842
-0.00526139
-0.00714137
0.00976223
-0.00188543
-0.00166437
0.000412531
0.000967351
0.000265543
-0.00159989
0.00060177
0.000732579
0.000119216
-0.000255894
-0.00235222
0.000889146
0.000879177
-0.000995497
-0.000847474
0.000898576
0.000944395
0.000418646
0.000492065
-0.000967402
-0.000165225
-0.000625491
0.000391563
0.000399153
0.00112026
0.000802588
-0.000198159
0.000843182
-0.00043451
-0.000623547
0.00760362
-0.0049398
-0.00139679
-0.00126703
0.00165445
-0.00209695
0.000659086
-0.000216586
0.00130463
-0.00113111
4.07247e-05
-0.000695941
0.00160945
0.00342042
0.000686836
-0.00179192
4.98285e-06
0.0011001
-0.000489223
0.000714444
-0.000106005
6.33796e-05
0.000481649
-0.000640442
9.54141e-05
-0.00103871
0.00264221
-0.00157703
-2.64622e-05
-0.00100255
-0.000481896
0.00107306
0.000411394
-3.0773e-05
0.00476012
-2.63949e-05
-0.0148818
0.00147272
0.000587007
0.012822
-0.000464815
-0.00114578
0.000615094
-0.00237948
0.00288911
-0.000681042
0.000196298
0.000179481
-0.000291488
-8.54818e-05
-0.0247356
0.0274299
0.00276795
0.00668042
0.0073104
0.00902225
0.00337681
-0.00756867
-0.00163228
0.000546198
0.00117799
0.0115063
0.00481794
-0.0135563
0.0147498
-0.000927202
-0.00595573
-0.000183808
-0.00117482
0.00134071
0.00293368
0.0348506
-0.0330825
-0.00470184
-0.00116076
0.0026784
0.00293724
-0.00445488
5.96033e-05
-0.00149716
0.00299657
-0.00155902
0.000769155
-0.00231443
0.00140548
0.000139791
0.00255734
0.00154333
0.000421417
-0.00452208
-0.0118466
-0.00349719
0.0216173
-0.00627353
-0.00979778
0.0122064
0.00326126
-0.0056699
-0.000771217
0.000627573
-0.0042178
0.00436144
-0.0305595
0.027544
-0.0208363
-0.00184008
-0.00169534
0.00325611
0.000279312
0.00117195
-0.000580957
8.14224e-05
0.0253015
0.00144598
-0.0182303
-0.00251058
-0.00474294
-0.00194247
0.0067903
0.00713629
-0.00748391
-0.00644268
0.00496844
0.00267157
-0.001188
-0.00689718
-0.0617031
-0.00189809
-0.00546824
-0.00728567
0.00902831
0.00572368
-0.00279506
-0.00596848
-0.0232011
0.0235272
-0.000326144
-0.00403864
0.00175535
0.000959384
-0.00174923
-0.00208602
0.00147627
0.00264391
-0.00203415
0.00011201
0.000665854
-0.000135171
-0.000642693
-0.00267787
0.0104055
0.00548281
-0.0132105
-0.00131598
3.39708e-05
0.000463419
0.000818592
-0.00412788
0.0019413
0.000821971
0.00136461
0.00329129
-0.00859476
-0.00180439
-0.000826409
0.000534671
0.00012651
0.000165228
-0.00609291
0.0030781
-0.00315268
0.00616749
0.000278236
-0.000182818
0.000310387
-0.000405805
-0.0335142
0.018814
-8.74109e-05
0.0147876
-0.00185692
-0.0009148
0.00150212
0.0012696
0.00601708
-0.000719361
-0.0284377
-0.00135908
-0.000137846
0.00603959
-0.0504507
-0.00727403
0.00394566
0.0271223
-0.028562
0.0103115
-0.00176303
-0.0140167
-0.000152541
0.000181345
0.000200843
0.000622258
-0.000823101
-0.000274302
0.000249835
-0.000100761
0.000125229
-0.00166412
0.00100686
-0.000423996
0.00108125
-0.00243695
-0.000902792
0.000445999
0.00289374
-0.0013581
0.000706324
0.00142329
-0.00333689
-0.0026793
0.00110292
0.00330162
-0.00172523
0.000807644
0.00056552
-0.00092525
-0.000229281
-0.00251167
0.00436453
9.97839e-05
-0.000167056
-0.000805046
-0.000586212
0.000336484
0.00105477
-0.00104883
-0.000256524
-0.000358763
0.000982551
-0.00278405
-0.00234064
-0.00113819
0.000814256
-0.00013377
0.000457701
0.00276355
0.000801816
-0.00162918
-0.0051865
0.00688903
0.00112245
-0.00857795
0.00207919
-0.0168814
-0.00497035
0.00818369
0.00188921
-0.00510255
-0.0121193
-0.00689218
-0.00665807
0.00812737
0.0059227
0.000254582
0.00103231
-6.29657e-05
-0.000108805
0.00017177
-3.2288e-05
0.000191123
-0.000674733
0.00191545
0.00111853
-0.000425077
-0.000263003
-0.000430452
0.00473493
0.0115931
-0.00109785
0.001677
0.000867573
0.00057627
0.000887039
8.35869e-05
-0.00351442
0.00349408
0.00181477
-0.00249214
-0.000124963
-0.000298258
-0.000455274
0.000878494
-0.00117097
0.00265757
-0.001427
0.00296118
-0.000501548
-0.00140004
0.00172568
0.00778012
-0.00515192
-0.00435388
-0.00465677
-0.000986737
0.00509083
0.000552683
-0.00103282
-0.000322044
-0.00115734
0.000424324
0.000231307
0.000501708
0.000879201
-0.000379083
-0.000860785
-0.00109172
0.000942177
0.000149542
0.00041178
0.00040523
-0.000452874
-0.000364136
0.000136768
-0.000622488
0.00129998
-0.000591837
-0.00093756
6.67119e-06
0.00152273
-0.0003582
0.000773223
-0.000626561
0.00112752
-0.000364186
0.00189124
0.000180722
-0.000120584
-0.00452357
-0.0154974
0.0227969
-0.00277595
-0.000780627
0.000359379
0.000256023
-0.00010846
0.00156343
-0.000357145
-0.00109782
0.000927528
-0.000220083
0.00444657
0.000404486
-0.000607853
0.000502831
-0.000299463
0.000417814
0.000582573
-0.00012874
-0.00155988
-0.000307549
0.00209677
-0.000831562
0.00263991
8.14632e-05
-0.000402807
-0.000569665
0.00034698
0.000149852
-0.000359663
-0.000127265
0.000337075
-0.000375339
-0.00264779
-0.00054215
0.000167065
-0.000580388
0.000831136
-0.000868074
-0.00047641
-0.00268506
0.00037793
0.00424225
-0.00193512
0.00228554
-0.00405442
0.00186716
-9.8271e-05
0.00387394
0.000283801
0.00267475
-0.00261029
-0.00274953
0.00250774
7.47757e-05
9.22415e-05
0.000517643
-0.000149831
-0.000367812
-0.000234326
0.000725921
0.000184421
-0.000676015
-0.000878899
0.000350246
0.000794002
-0.000265349
-0.00126898
0.000155757
-0.000430654
0.000698635
-0.000192082
-7.58989e-05
0.000680372
0.000276542
-0.00107631
0.000119393
-0.0010813
0.000968309
-0.000373777
0.00213464
-0.000357613
-0.000736909
6.48244e-05
0.00158248
-0.00164829
0.000583716
-0.00504136
0.0177724
-0.00558369
-0.00714734
0.0030141
0.00279814
0.00315525
-0.00896749
-0.00935791
-0.0103975
0.0187247
0.00103077
-0.00212868
0.00832259
0.00433199
0.00364974
0.00129855
0.00191571
-0.00686401
0.00805519
0.0126571
-0.022619
0.00190677
-0.0743855
-0.0487616
0.0508985
-0.00497245
0.0127853
-0.0103132
-0.01175
0.00641763
0.00398811
-0.0238907
0.0311473
-0.0136907
0.00643407
-0.00942044
-0.00107838
0.00649149
-0.00282508
0.0129477
0.0287719
-0.00937226
0.00320847
-0.00224666
0.0261897
0.0120722
0.00328415
0.0304271
0.00074702
-0.000326738
-0.000241645
-0.00128377
0.000559858
-0.00146048
0.00208517
0.000254512
-0.0101212
-0.00298709
0.00202221
0.0110861
0.00461763
-0.0112097
0.0128441
-0.00625194
0.0089533
0.00132554
-0.00566121
-0.00131123
-0.00125626
0.000262675
-0.00107599
-0.00584475
0.00247008
-0.00375454
-0.00207859
-0.000703044
-0.00210097
0.00196836
9.72866e-05
-0.00265725
0.000862691
-0.00135035
-0.000823567
-0.000364288
-0.00132425
0.00114427
-0.000390044
0.00206007
0.00739374
0.0107916
-0.0108749
0.0227346
-0.00581248
0.00526463
-0.0221868
0.0107062
-0.011008
0.00769553
0.000843217
0.00427151
0.000534402
-0.00564913
0.00179063
0.000434041
0.00122376
-0.00344843
-0.00655371
-0.00101359
0.00419768
0.00336962
0.00589631
0.00215358
-0.00311031
-0.00493958
-0.00461182
0.00395442
-0.00180723
0.000243273
0.000122848
0.00538734
0.000835881
-0.00254764
-0.00367558
0.00104497
-0.000463983
0.000132702
-0.000132991
0.000464273
0.000402882
-0.000891523
0.00161616
0.000363871
-0.000121707
0.00115576
-0.00374132
0.00382231
0.00293312
0.000473908
0.000489247
0.000570484
-0.00153364
-7.09734e-05
-0.000971551
0.000696868
0.000685257
0.0011612
-0.0029582
0.00111175
0.000944529
0.00184077
0.00199587
-0.00478117
-0.000414791
-0.00279904
0.000920239
0.00229359
0.00104969
0.00262258
0.000341163
-0.00401343
-0.00428381
0.00680894
0.00105388
0.0022987
0.000196405
-0.00354898
0.00219492
0.0167149
-0.0140087
-0.000139544
-0.00256661
-0.0143154
0.016386
0.0146442
-0.0193445
-0.00951648
0.00178906
-0.0184028
0.00229836
-0.00760881
0.00657542
-0.00164658
0.000625699
0.000933468
8.74124e-05
0.00128822
0.00607757
-0.00974732
0.00238153
-0.00080407
0.000221856
-0.000746391
0.00132861
1.54821e-05
7.73776e-05
-0.000213285
0.000120425
-0.00164034
-0.0162584
0.01029
0.00706907
0.00436459
0.00209276
0.00200571
-0.00182396
0.0084564
-0.0169714
0.0203311
-0.0118162
-0.00724511
0.0201475
0.00409371
-0.0169961
0.0208501
-0.00100983
0.00543964
0.0299686
-0.0354083
0.00194708
0.000619299
-0.000147558
0.000354903
-0.000454745
0.0002474
0.000468074
-0.000615632
-1.02744e-05
0.000352348
-0.000560967
0.000704814
-0.000400578
-0.000350248
4.60115e-05
0.000267689
0.000426851
-0.000355244
0.000117166
3.7245e-05
0.000200833
-0.00228004
0.000600113
0.000287919
-0.00150333
-0.000408523
0.000778207
-0.00673927
-0.0191253
0.0190469
0.00196476
0.000122747
0.000189591
0.000453228
-0.00309135
0.00155772
0.00237685
-0.00643064
-0.00121941
-0.00203669
0.000611034
0.00264507
6.10166e-05
-0.00266456
-0.000433837
0.00187898
0.00361999
0.00449301
-0.00329781
-0.00481519
-0.00113939
-0.00010147
0.000777774
0.000463083
0.0021765
0.000103378
-0.00135235
0.0010119
-0.000806198
-0.000638403
-0.00139842
5.81002e-05
0.00243899
-0.00178537
-0.00205204
-0.0238731
0.0289545
0.0211083
0.000522768
-0.00144792
-0.0013549
0.0123756
-0.0119369
-0.000449689
1.10142e-05
-0.0022942
0.0019408
-0.000492
-0.00531303
-0.0120653
-0.0136117
0.00968105
0.0107665
-0.00063753
-0.00329128
0.00184278
-0.00146795
-0.000296316
0.0045049
-0.00274063
0.00147571
0.00120228
-0.0245067
0.0247898
0.00777204
0.00666389
-0.00376102
-0.000243015
-7.33466e-05
0.025437
-0.0253637
-0.0157889
0.00611427
-0.000383005
-0.00292689
0.000535202
0.00993011
-0.00599974
0.000877513
-0.00074934
-0.00150803
0.00592825
0.00141422
-8.62666e-05
0.00035563
-0.000137515
0.00207079
-0.00212175
-0.000575035
0.000626003
-0.000266287
0.000377683
-0.000293852
0.000182456
0.0203205
-0.00562699
-0.00185346
-0.00220297
-0.00239094
-0.00400013
0.0114925
0.0118158
0.0352157
-0.00366195
0.000855597
0.000427317
-0.00288296
0.000333419
0.0011397
-0.00147312
-0.00831988
-6.55178e-05
0.00860629
-0.00022089
0.000748951
0.00231324
0.00185358
-0.00295316
6.63772e-05
-0.00286682
-0.00197826
0.0047787
-0.0013212
0.00332457
-0.00401712
-0.000593568
0.00135756
0.00641351
-0.00922991
0.00419038
-0.00137398
0.00385576
-0.00920919
0.00374349
-0.0107028
0.00637365
-0.00459205
-0.0542845
0.010614
-0.00672031
0.00871727
0.0016653
0.000602297
0.00018859
-0.000539039
0.00136191
-0.00190417
0.000800939
-0.000443596
-0.00102038
-0.000925408
-0.0003618
0.000830642
0.000456566
0.00618143
-0.00873659
-0.000559033
0.000160427
-0.000612589
-0.0371077
-0.0171768
0.000320323
0.000213447
-0.00053377
0.00254375
-0.00360833
0.00368715
-0.00245737
-0.000589158
0.000259118
-0.000860618
2.21759e-05
-0.000240959
0.00663055
0.00158396
-0.00650304
-0.00171147
-0.00713973
0.00184869
0.0021192
0.00160264
0.0101015
-0.00269408
0.000856675
0.00133592
-0.000159629
-6.1352e-05
-7.97729e-05
0.000300754
0.000194491
-0.000248456
5.39648e-05
1.03625e-05
0.00170377
-0.00242362
0.00235681
0.0523877
-0.0372812
-0.0174633
-0.000705228
0.00123542
-0.000650255
0.00200109
-0.00447255
-0.00498738
0.00745883
0.00454611
-0.00784088