/*--------------------------------*- C++ -*----------------------------------*\
| =========                 |                                                 |
| \\      /  F ield         | OpenFOAM: The Open Source CFD Toolbox           |
|  \\    /   O peration     | Version:  2506                                  |
|   \\  /    A nd           | Website:  www.openfoam.com                      |
|    \\/     M anipulation  |                                                 |
\*---------------------------------------------------------------------------*/
FoamFile
{
    version     2.0;
    format      ascii;
    arch        "LSB;label=32;scalar=64";
    class       volScalarField;
    location    "0.0501868";
    object      k;
}
// * * * * * * * * * * * * * * * * * * * * * * * * * * * * * * * * * * * * * //

dimensions      [0 2 -2 0 0 0 0];

internalField   nonuniform List<scalar> 
3991
(
0.320882
0.445147
0.321139
0.63599
0.3355
0.757699
0.353236
0.419878
0.723012
0.383959
0.543855
0.700534
0.340756
1.40402
0.345854
0.988992
0.352135
0.397325
0.618748
0.512331
0.604105
0.3556
0.696551
0.763179
0.545371
0.932869
0.523776
0.849213
0.40871
0.783859
0.625664
1.38829
0.42416
0.448145
0.904098
1.07526
0.688714
0.695132
1.23762
0.676521
0.496986
0.645678
0.449216
0.626091
0.419018
0.853814
0.762729
1.11011
0.703822
0.418244
0.340293
0.558012
0.342542
0.829064
0.338645
0.603585
0.53191
0.574873
0.590014
0.637909
0.360364
0.395073
0.640795
0.399246
0.584617
0.736208
0.558394
0.696644
0.377461
0.350522
0.7496
0.476562
0.339012
0.554442
0.374904
1.30545
0.37785
1.04144
0.362024
0.331767
0.611535
0.487762
0.54337
0.625648
0.538488
0.582414
0.803882
0.357845
0.464152
0.431851
0.409855
0.745993
0.767889
0.526019
0.556709
0.354059
0.681015
0.837155
0.34
0.597488
1.04885
0.700972
0.675762
0.567598
0.364708
0.360252
0.701463
0.344461
0.359266
0.343251
0.351195
0.340077
0.338609
0.368305
0.364452
0.363246
0.316778
0.312124
0.314307
0.323546
0.356907
0.623038
0.344645
0.521445
0.82037
0.516143
0.347417
0.329241
0.346691
0.362978
0.332258
0.344855
0.370803
1.07383
1.0755
0.637774
0.327963
0.349885
0.362168
0.370481
0.442705
0.942541
0.477343
0.85748
0.743307
0.383474
0.337968
0.381676
0.725489
0.328811
0.330974
0.326594
0.331267
0.582854
0.718793
0.621869
0.51781
0.871665
0.990544
1.00764
0.331461
0.399434
0.344041
1.22792
1.24515
0.908323
0.747088
1.03019
1.08045
0.374633
0.371748
0.674158
0.654138
0.3972
0.342553
0.428828
0.523688
0.617566
0.350763
0.318123
0.406923
0.637185
0.591177
0.334195
0.448682
0.328771
0.424634
0.553162
0.455328
0.349707
0.434022
0.483653
0.616893
0.436803
0.459694
0.841279
0.425793
1.14535
0.333458
0.424418
0.689556
0.492821
1.21459
0.685397
0.7657
0.764631
0.768144
0.582775
0.800697
0.357415
1.14405
0.522622
1.12433
0.444415
1.28705
0.40467
0.839258
0.729155
1.06528
1.15397
0.587084
1.15599
2.21294
0.63159
1.08481
0.912808
0.48738
1.09909
0.703754
0.320106
0.784111
0.366649
0.47806
0.35887
0.608478
0.780187
0.391786
0.936162
0.64933
0.418772
0.55754
0.509744
0.682935
0.44687
0.615274
0.960779
0.337114
0.636075
0.348197
0.898399
0.842234
0.590071
0.40807
0.44751
0.964556
0.914811
0.320481
0.530193
0.421943
0.379995
0.495839
0.41527
0.627227
0.512944
1.09036
0.527009
0.548863
0.900069
0.9147
0.911521
0.845677
0.912979
0.688719
1.2573
0.793598
0.649613
1.05742
1.00531
0.433134
0.508672
0.474142
0.679348
0.524529
0.536997
0.631092
0.572849
0.563919
0.447675
0.427075
0.420373
0.427117
0.349554
1.03464
0.455187
0.70476
0.731257
0.73391
0.340359
1.09544
0.345477
0.93557
1.07194
0.357551
0.826064
0.639907
0.597112
0.804907
0.322961
0.360959
1.01258
0.367651
0.360926
0.780453
0.380677
0.356888
0.334316
0.566356
0.434996
0.344437
0.418376
0.509704
0.34146
0.45251
1.09404
0.462217
0.478583
0.393706
0.355573
0.362315
0.348989
0.50598
0.471275
0.32526
0.324203
1.16248
0.627341
0.546769
0.413054
0.385904
0.672775
0.376463
0.347393
0.326135
0.376743
0.39698
0.38136
0.335327
0.475413
0.433502
0.629547
0.94115
0.366939
0.779268
0.476091
0.329592
0.925367
1.96781
0.685724
1.18822
0.320399
0.333532
0.465247
1.24659
0.372876
0.389783
0.368575
1.07534
0.609023
1.01712
0.443271
0.407606
0.436142
0.685124
0.656458
0.625449
0.363936
0.398205
0.775777
0.437093
0.371382
0.350814
0.332169
0.97203
0.371128
0.354803
0.361716
0.763553
0.338642
0.334216
0.44619
0.386257
0.975333
0.336145
0.437403
1.33132
0.320308
0.649351
0.920157
1.02456
0.666262
0.366301
0.541979
0.882806
0.712446
0.413148
0.615504
0.341035
0.910651
0.592168
1.12337
0.391145
0.450641
0.355667
0.406295
0.353427
0.386019
0.515971
0.336714
0.484585
0.363086
0.335781
0.459201
0.387483
1.00984
0.404401
0.521856
0.37653
0.405967
0.443229
0.324891
0.557335
0.993173
0.562926
0.361902
0.43576
0.377454
0.557442
0.660146
0.418522
0.35593
0.435782
0.326287
0.329903
0.605212
0.496891
0.649588
0.466365
0.698391
0.471784
0.669984
0.912735
0.551148
0.348334
0.404996
0.605615
0.453262
0.373728
0.810262
0.710931
0.387485
0.841133
0.344343
0.345954
0.785397
0.412853
0.830826
0.528821
0.341991
0.36016
0.345166
0.579501
0.361181
0.42008
0.884791
0.325476
0.554232
0.466427
0.394205
0.35719
0.335339
0.377516
0.504059
0.333342
0.797622
0.677389
0.368613
0.406446
0.348893
0.336949
0.33927
0.447669
0.355205
0.353362
0.35977
0.381275
0.370136
0.78587
0.389957
1.33602
0.37494
0.342329
0.709689
0.41936
0.641428
0.364652
0.391378
0.377729
1.8664
0.399539
0.364393
0.402019
0.533366
0.706865
0.702647
0.671127
0.595573
0.448027
0.364948
0.641575
0.567407
0.492895
1.02082
0.930494
0.676372
0.566344
0.565878
0.8478
0.33328
0.323413
0.359887
0.319877
0.535148
0.463103
0.8537
0.483819
0.418682
0.527305
0.321417
0.365483
0.584265
0.353294
0.843098
0.514442
0.402679
0.343982
0.338316
0.55538
1.0637
1.14177
0.659258
0.765331
0.543122
0.746069
0.650312
0.52161
0.563659
0.320959
0.539034
0.645447
0.476247
0.587368
1.18741
1.14487
0.460349
0.982292
0.514244
0.625569
0.684688
0.530717
0.442949
0.439902
0.355944
0.350308
0.354713
0.358836
0.364865
0.833635
0.479302
0.446577
0.436231
0.508963
0.449595
0.919139
1.00409
0.843451
0.960046
1.29108
0.333207
0.380417
0.326469
0.377196
0.372736
0.320115
0.381804
0.404934
0.330846
0.30964
0.324454
0.326288
0.360527
0.329575
0.326404
1.16882
0.556554
1.03117
0.380064
0.774337
1.21458
0.543003
0.545403
0.376118
0.395406
0.381354
0.506382
0.53613
0.535637
0.38104
0.354161
0.367399
0.348908
0.371686
0.383336
0.378182
0.35763
0.373534
0.463375
0.418482
0.38407
0.702021
0.498472
1.02498
0.382461
0.472588
0.683727
0.469245
0.361131
0.372816
0.376303
0.352988
0.378019
0.38486
0.418434
0.437501
0.333727
0.45615
0.422698
0.549953
0.342471
0.757971
0.77169
0.391204
0.515564
0.652129
0.347442
0.345944
0.336774
0.363078
0.699296
0.885956
0.881367
0.669072
0.898419
0.936966
0.740395
0.571907
0.368234
0.364251
0.722646
0.924738
1.61856
0.364919
0.355933
0.365075
0.602125
0.364934
0.416787
0.69294
0.582687
0.460846
0.453675
0.427022
0.334508
0.363131
0.601617
0.72233
0.333563
0.372861
0.36628
0.352532
0.411998
0.321725
0.326288
0.353625
0.335785
0.357496
0.341615
0.449021
0.358574
0.751251
0.908696
1.10789
0.324162
0.403354
0.333773
0.327941
0.415799
0.721607
0.763374
0.619951
0.677927
0.346026
0.448244
0.445815
0.434426
0.343741
0.692622
0.379204
0.486978
0.424146
0.933921
1.02517
1.12494
0.3674
1.41112
0.366501
0.776182
0.369554
0.501401
0.727764
0.732203
0.491879
0.739334
0.319207
0.620124
1.40668
0.532342
0.356985
0.34606
0.377424
0.537358
0.344579
0.405055
0.330972
0.367157
0.700498
0.633139
0.891537
0.816481
0.714728
0.718086
0.421223
0.499999
0.596539
0.401723
0.582325
0.86376
1.06765
1.06917
1.44705
1.25135
0.596542
0.466957
0.866739
0.392132
0.892546
0.985448
0.946859
0.911401
1.13713
0.722895
0.925705
0.754217
1.10967
0.475166
0.488786
0.325351
0.830194
0.389264
0.38794
0.390238
0.346227
0.381376
0.522018
0.564497
0.484621
0.400829
0.436677
0.4817
0.448911
0.490855
0.391428
0.404822
0.393434
0.368125
0.328911
0.332471
0.41189
0.441852
0.346508
0.974426
0.317379
0.850565
0.39197
0.329365
2.13182
0.983627
0.764501
0.84254
0.436704
0.463619
0.373024
0.852837
0.346263
0.662863
0.632844
0.420325
0.337286
0.616869
0.340469
0.709186
0.517875
1.01655
0.807064
0.644254
0.363897
0.371352
0.802647
0.672615
0.52636
0.958661
0.437035
1.00859
0.955479
0.636899
0.347507
0.325826
0.474544
0.629701
0.762012
0.416457
0.394588
0.392646
1.0951
0.672545
0.331747
0.343576
0.438954
0.325789
0.317215
0.320044
0.348461
0.321437
0.317957
0.327892
0.910694
0.918998
0.952368
0.934133
0.827507
0.742908
0.951458
0.738946
0.788956
0.682225
1.0666
0.416394
0.387285
0.471505
0.427459
1.74918
0.326445
0.536293
0.575095
0.912902
0.75401
0.771954
0.561858
0.647779
0.870718
0.613447
0.754254
0.935636
1.31791
0.803959
1.10954
1.02392
0.322304
0.323373
1.07463
0.674723
0.327414
0.325738
0.394745
0.385657
1.19083
0.385724
0.422902
0.36827
0.354156
1.25773
0.335365
0.346649
0.361521
0.359706
0.407571
0.408739
0.36097
1.02407
0.982916
0.570544
0.650195
0.563846
0.601833
0.406975
0.710935
0.400127
0.475861
0.314807
0.390434
0.325633
0.353617
0.342365
0.437703
0.346394
0.358073
0.669958
0.34872
0.393405
0.713323
0.416573
0.419579
0.767827
0.569056
0.396884
0.453228
0.598218
0.698871
0.404936
0.498151
0.338425
0.700546
0.569229
0.410119
0.35546
0.482892
0.455749
0.503899
0.892238
1.06332
0.601989
0.55203
0.44229
0.493443
0.344545
0.341108
0.380626
0.333099
0.416812
0.38675
0.908506
0.52631
1.03585
1.49901
1.01646
0.830838
0.81815
0.664171
0.610834
0.704436
1.45662
0.549952
0.45931
0.37078
0.795402
0.42321
0.319728
0.325331
0.374742
0.351437
0.467803
0.387392
0.446497
0.362702
0.340136
0.995416
0.588392
0.333128
0.800887
0.352298
0.734091
0.345587
0.355954
0.323056
0.493414
0.323463
0.386594
0.370978
0.894095
0.43733
0.827836
1.23771
0.613654
1.12088
0.408025
0.474458
0.94521
1.12443
0.406391
0.378896
0.450322
1.29703
0.404391
0.623276
0.460844
0.455373
0.424802
0.543496
0.431425
0.37114
0.436901
0.420483
0.461394
0.337528
0.523705
0.623298
0.422664
0.886408
0.370835
0.334743
1.04126
0.38729
1.67329
0.89454
0.659115
0.839763
0.378558
0.823499
0.610424
0.391595
0.48675
1.05885
0.59933
0.728563
0.907775
0.827753
0.480067
0.73828
1.4159
0.725402
0.379137
0.755241
0.81298
1.05551
0.481653
0.912153
0.498474
0.759233
0.373361
0.373312
1.11069
1.40046
1.1379
1.24442
1.42171
1.30358
0.633748
0.672598
0.390227
0.805014
0.667944
0.545542
0.63851
1.21206
1.1252
0.90509
0.339282
0.55744
0.745983
0.366981
0.322845
0.42229
1.13825
0.401013
0.381406
0.518597
0.416374
0.372622
0.644038
1.01018
0.417306
0.888799
0.326803
0.354515
0.479422
0.345517
0.35874
0.526641
0.876388
0.361599
0.41483
0.359775
0.385415
0.33874
0.441591
0.441508
0.48377
0.982936
0.610919
1.37124
0.59319
1.05276
1.17539
0.886549
0.605276
0.533118
1.28621
0.599647
0.674939
0.948706
0.755634
1.22385
0.927851
0.535454
0.633165
0.769925
0.93539
0.85037
0.910167
0.441232
0.546438
0.469813
0.310837
0.500972
0.471225
0.41573
0.348196
0.388801
0.909607
0.379004
0.688665
0.63433
0.327217
0.336285
0.695281
0.628057
0.358315
0.516807
0.803067
0.926162
0.587054
1.09306
0.573907
0.656062
0.532172
0.679178
1.04962
0.578891
0.351925
0.362603
0.421103
0.357803
0.422994
0.926702
0.686781
1.76486
0.731113
0.660111
1.0554
0.642941
0.34879
0.363426
0.415112
0.639907
0.414926
0.347355
0.358159
0.553397
0.5991
0.519809
0.35576
0.45958
0.427295
0.324977
0.329161
0.330425
0.332885
0.33452
0.799026
0.375843
0.452998
0.501167
0.742421
1.42364
0.514055
0.47272
0.431519
0.640918
0.677618
0.38618
0.409622
0.418063
0.708348
0.722017
0.457661
0.515526
0.464482
0.349936
0.360944
0.347501
0.350722
0.35758
0.356286
0.351574
0.362014
0.363585
0.358997
0.375414
0.347229
0.342093
0.551026
0.486219
0.450236
0.634451
0.660737
0.558169
0.57853
0.351079
0.363472
0.372557
0.391467
0.468872
0.521466
0.909818
1.16066
0.691535
0.587737
1.00067
0.457773
0.684119
0.903441
0.665972
0.90851
0.646118
0.932948
0.712804
0.603472
0.915463
0.434248
0.899906
0.475593
1.05518
0.698669
0.567724
0.531433
0.419502
0.669083
1.15473
0.470046
0.704435
0.813184
0.551626
0.368184
0.647013
0.468232
0.735178
0.917324
0.910906
0.438233
0.616174
0.439163
0.632519
0.451758
1.38209
0.630514
0.537838
0.411142
0.403212
0.588247
1.12754
1.15894
0.872509
0.569324
0.985204
0.62464
0.502892
0.675316
0.828201
0.702591
0.884535
0.799548
0.317142
0.320916
0.31682
0.601571
0.319963
1.08698
0.775055
0.761896
0.688584
0.324078
0.3225
0.457949
0.569084
0.728344
0.743273
0.339576
0.640998
0.317716
0.580411
0.597812
0.800546
0.607176
0.608728
0.388426
0.390293
0.323181
0.552257
0.909253
0.94429
1.25395
0.675969
0.854885
0.323723
0.348054
0.321552
0.328794
0.332107
0.344629
0.340989
0.42877
0.359696
0.430183
0.982949
0.929412
0.559959
0.368028
0.336148
0.391903
0.543551
0.343284
0.335734
0.356687
0.335783
0.414553
0.411221
0.437455
0.834737
0.38519
0.693372
0.664055
0.465374
0.369252
0.395886
0.506237
0.366651
0.379688
0.41092
0.373172
0.426654
0.801329
0.703036
0.330959
0.310193
0.934764
0.799733
1.13946
0.351918
0.354535
1.07319
0.529661
0.60504
1.32592
0.585461
0.978774
0.502732
0.405975
0.793658
0.716115
0.525043
0.507983
0.465994
0.785272
0.492473
0.570557
0.461639
0.975405
0.935819
0.395106
0.331925
0.493177
0.665826
0.447564
0.734333
0.712947
1.03027
0.983602
0.334259
0.417747
0.321405
0.329752
0.448696
0.385346
0.418091
0.33713
0.859548
0.839386
0.980469
1.20344
1.15573
0.642799
1.10072
0.709747
0.663854
1.05108
1.18372
0.382844
1.18915
0.407205
0.39883
0.567638
0.979463
0.414629
0.455885
0.352433
0.468422
0.404572
0.668992
0.769498
0.399489
0.42874
0.511267
0.540542
0.506577
0.928592
0.669231
0.615018
0.551726
0.435504
0.359333
0.484955
1.09392
1.04656
0.564392
0.635194
0.749627
0.616565
0.575608
1.44959
0.550604
0.784159
0.787144
0.533145
0.641013
0.895061
0.752923
0.769696
0.869781
0.400042
0.365997
0.351943
0.407202
0.366842
0.360114
0.383709
0.533156
0.445832
0.325429
0.318853
0.31867
0.330062
0.817804
0.854498
0.84683
1.27075
0.319532
0.322553
0.343199
0.326824
0.334565
0.315278
0.322197
0.317784
0.375455
0.363982
0.653698
0.486562
0.795566
0.332136
0.466888
0.389316
0.611864
0.343308
0.639058
0.529111
0.811796
0.540036
0.317964
0.370757
0.906942
0.83427
0.575564
0.330319
0.67813
0.330005
0.35562
0.907917
1.05981
0.689088
0.9954
1.03324
0.536793
0.958743
0.742369
0.55938
0.336633
0.555674
0.316466
0.403148
1.05843
0.499371
0.380027
1.06289
0.557337
0.358524
0.62405
1.19825
0.353664
0.38914
0.364651
0.434262
1.67668
0.491608
0.99469
0.360812
0.598153
0.391464
0.556233
0.658383
0.724207
1.10294
0.477509
0.684193
0.666785
1.27252
0.717596
1.32565
0.840115
0.621121
0.774336
0.457642
0.448149
0.407539
0.361695
0.396361
0.367244
0.700337
0.380402
0.353174
0.348951
0.355802
0.51716
0.424936
0.482376
0.471042
0.416031
0.393143
0.354312
0.383655
0.317585
0.337766
0.355999
0.331414
0.38751
0.320558
0.393281
0.430943
0.474024
0.425711
0.505576
0.331182
0.327687
0.342328
0.343432
0.835562
0.334176
0.372351
0.531335
0.424993
0.337381
0.830373
0.564795
0.429876
0.348088
0.390932
0.376345
0.357449
0.334771
0.922521
0.317515
1.20929
0.341823
0.352531
0.329075
1.03919
0.974853
0.425243
0.900517
0.320779
0.924876
0.809218
0.404561
0.656896
0.491986
0.939952
0.417165
0.423908
0.425211
0.384986
0.359723
1.35216
0.722145
0.399728
0.664073
0.345539
0.39639
0.337421
0.365963
0.823743
0.575055
0.418012
0.350771
0.489799
0.37652
0.418093
0.601862
0.57743
1.06694
0.327842
0.418637
1.08409
0.434363
0.353749
0.384699
0.340425
0.343565
0.410106
0.322195
0.33735
0.382324
0.417083
0.321662
0.367372
0.386221
0.353086
0.350364
0.331966
0.335682
0.344546
0.517095
0.339467
0.319968
1.35294
0.88345
0.523177
0.528048
0.349651
0.590095
0.344995
0.41015
0.354033
0.325133
1.27269
0.359693
0.751471
0.322367
0.434396
1.25523
0.528946
0.558
1.07144
1.11236
0.816241
0.973519
1.20533
0.646385
0.487873
0.503848
0.34332
0.31592
0.904649
0.531956
0.479436
0.489991
0.364777
0.620326
0.424706
1.23414
0.448899
0.430929
0.424352
1.06409
1.36282
0.742646
1.30808
1.10473
0.826491
0.669857
0.327789
0.931482
0.363038
0.339678
0.355215
0.349768
0.373993
0.330015
0.336287
0.372197
0.390506
0.940065
0.6359
0.834492
0.400582
0.781626
0.445834
0.41919
0.379514
0.387703
0.590862
0.435102
0.381965
0.482958
0.614147
0.887724
0.441392
0.615199
0.950127
0.921362
1.24953
0.757433
0.865273
0.794371
0.376772
1.00056
1.34282
0.426009
1.57743
1.2479
0.653457
0.598887
0.575739
0.72389
0.802445
0.788488
0.781394
0.914777
0.908889
0.327104
0.516743
0.776711
1.0153
1.18832
0.702568
0.378918
0.470089
0.355138
0.325966
0.975507
0.577348
0.548262
0.912138
0.397691
0.34405
0.356124
0.385896
0.391885
0.520772
0.34028
0.534936
0.490249
0.430931
0.911505
0.33468
0.341881
0.381303
0.408213
0.390834
0.425037
0.360609
0.388884
0.386792
0.38478
0.365682
1.28293
0.453209
0.446785
0.837149
0.443365
0.664527
0.465753
0.597917
0.739899
0.627085
0.681502
0.542052
0.422628
0.463961
0.382788
0.507355
0.499702
0.371688
0.338071
0.421986
0.446631
0.385773
0.440767
0.391543
0.406886
0.40667
0.905528
1.45481
0.857875
1.21265
0.481939
0.324927
0.321124
0.339102
0.353703
0.356167
1.30133
0.318635
0.326271
0.363125
0.66191
0.37066
0.382451
0.385499
0.411575
0.560277
0.513449
0.320044
0.740375
0.466619
0.491722
0.438713
0.500766
0.41998
0.399945
0.421964
0.987595
0.684243
1.49707
0.710826
0.931057
1.18296
0.611806
1.2355
0.679734
0.677528
0.639772
1.11955
0.555148
0.627723
0.807585
0.913836
0.518266
0.460244
0.536644
0.361168
1.06575
0.590888
0.849824
0.658064
0.37949
0.366015
0.702439
0.319633
0.395734
1.01002
0.505785
0.940095
0.433056
1.09769
0.575678
0.996633
0.979253
0.33251
0.440128
0.341812
0.380609
0.338735
0.36429
0.487509
1.07327
0.426583
0.556584
0.94465
0.427147
0.497665
0.523499
0.361104
0.476704
0.60842
1.46167
0.556954
0.584743
0.715686
0.361851
0.352469
0.720117
0.719096
0.618211
0.463669
0.865044
0.513205
0.484816
0.462829
0.339201
0.349317
0.323553
0.351595
0.332989
0.333631
0.686775
0.688231
0.544128
0.492517
0.353235
0.31678
0.553104
0.88432
1.00183
0.532096
0.506383
0.857263
0.525256
0.441747
0.491735
0.529587
0.584641
0.618073
0.646842
0.485061
0.489643
0.886487
0.542746
0.510444
0.589768
0.70832
0.545479
0.385383
0.372248
0.325468
0.338084
0.677562
0.57989
0.365631
0.422406
0.545391
0.373025
0.381748
0.369611
0.387199
0.376601
0.395748
0.402246
0.414889
0.639426
0.728682
0.337047
0.3552
0.319135
0.781318
0.460357
1.10495
0.388093
0.89516
0.905384
0.699711
0.683368
0.605554
0.461074
0.881181
0.482694
0.441147
0.632515
0.394422
0.429219
0.985596
0.556124
0.835813
0.443021
0.569361
0.42913
0.704509
0.489372
0.540623
0.462281
0.442087
0.541182
0.482608
0.332504
0.858877
0.848329
0.356315
0.351749
0.354562
0.378153
0.937527
0.957086
0.593642
0.882776
0.383751
0.382139
0.389412
0.815613
0.936282
0.797286
0.750639
0.386046
0.670935
0.732404
0.8199
0.659201
0.348083
0.953972
0.497895
0.572294
0.541936
0.837402
0.848642
0.770811
0.554256
0.355936
0.351106
0.726935
0.385758
0.354779
0.580746
0.553769
0.543338
0.537483
0.796175
0.418893
0.435272
0.38592
0.883101
0.382511
0.32269
0.327785
0.334126
0.338417
0.336936
0.393641
0.368164
0.334601
0.403888
0.415316
0.427025
0.411545
0.36509
0.378472
0.375743
0.950324
0.321852
0.708551
0.323431
0.556269
0.501944
0.319758
0.370836
0.477692
1.03941
0.585144
0.403253
0.371722
0.410205
0.41056
0.432144
0.928406
0.418005
0.421619
0.595485
0.442966
0.358474
0.409172
0.522981
0.532064
0.837612
0.669182
0.855925
0.755007
0.719543
0.431485
0.424246
0.478906
0.407163
0.435983
0.403473
0.759965
0.357384
0.467874
0.466777
0.537336
0.478324
0.373899
1.07957
0.890876
0.946321
1.23141
1.12568
1.01706
0.920394
0.376327
1.24826
0.494858
0.426798
0.41145
0.400984
0.358095
0.334855
0.32925
0.317261
0.35951
0.330954
0.764687
0.823136
1.11311
1.29493
0.477144
0.427639
0.421531
0.44425
0.354197
0.35231
0.658818
0.504735
0.701412
0.35065
0.672962
0.336155
0.883768
0.535541
0.366045
0.371469
0.957158
0.530448
0.801709
0.396863
0.314586
1.02902
0.380647
0.400954
0.348289
0.354701
0.360731
0.321175
0.340122
0.98525
0.333321
1.28726
1.46609
0.323382
0.330156
0.957939
0.413996
0.374561
0.885779
0.507767
0.385911
0.363545
0.441203
0.385482
0.573878
0.805367
0.612205
0.65461
0.799523
0.760758
0.833463
0.628401
1.00061
1.10204
0.765706
1.13914
0.372862
0.376842
0.379866
0.593773
0.636944
0.336635
0.887515
0.615119
0.318892
0.442905
0.418695
0.361734
0.589373
1.01929
0.489063
0.48088
0.905756
0.583062
0.702543
0.998965
0.358746
0.46236
0.405692
0.448087
0.460684
0.792027
0.668684
0.681945
0.926959
0.654533
0.324251
0.33289
0.421238
0.38909
0.374702
0.754465
0.636514
0.643797
0.950511
1.06063
0.348803
0.361651
0.384072
0.377239
0.385456
0.356741
0.385005
0.705691
0.877499
1.04857
0.779706
0.77954
0.62275
0.562345
1.12914
0.964726
0.996423
0.62982
0.716443
0.865048
0.655254
0.345077
0.714412
0.470899
0.811652
0.672203
0.696436
0.462601
0.576157
0.873542
0.477852
0.418556
0.46561
0.567392
0.808642
0.339525
0.615172
0.416729
0.379081
0.453119
1.18745
0.789033
0.369965
0.524155
0.37316
0.344094
0.363434
0.374068
0.334892
0.565489
0.521119
0.739197
0.494226
0.563956
0.927043
0.667236
0.744047
0.408005
1.20348
1.18612
1.15027
0.675047
0.662839
0.689386
0.777675
0.838692
1.2703
0.891664
1.20214
1.03984
0.750193
0.405647
0.377001
0.349001
0.340297
0.413077
0.633142
0.373395
0.338862
0.344505
0.685775
0.343198
0.325595
0.95514
0.514818
0.696838
1.08589
0.497909
0.551784
0.543732
0.871175
0.417025
0.415463
0.6604
0.411128
0.399524
0.44187
0.373217
0.553487
0.377166
0.383992
0.345606
0.342399
0.437672
0.629379
0.460186
0.582574
0.398977
0.966327
0.883008
1.05717
0.401882
0.514133
1.07492
0.398021
0.424636
0.473209
0.483714
0.647037
0.545278
0.597899
0.403153
0.397782
0.416902
0.403122
0.491659
1.19561
0.872545
0.459673
0.361811
0.522421
0.662522
0.848707
0.864753
0.737109
0.993672
0.510728
0.458734
0.859958
0.780971
0.872939
0.334698
0.439604
1.11214
1.00447
0.973945
0.441163
1.00986
0.432202
0.696995
0.522384
0.342576
0.358831
0.337906
0.355791
0.36173
0.34825
0.315952
0.325149
0.319111
0.486455
0.330576
0.378164
0.351461
0.355637
0.370779
0.38284
0.483402
0.582076
0.471021
0.585955
0.838709
0.959085
0.564273
1.08686
0.413164
0.429945
0.540589
0.534072
1.13168
0.359448
0.35807
0.380704
0.743101
0.566068
0.581305
0.413307
0.633332
0.612421
0.57489
0.396217
0.355425
0.806363
0.625379
0.454227
0.930389
0.341552
0.473582
0.390304
0.717505
0.365384
0.382317
0.364966
0.408871
0.960297
0.704696
0.481924
0.460676
1.60388
0.547674
0.654542
0.748259
0.780632
2.76955
0.609097
0.35384
0.430284
0.864891
0.357076
0.629573
0.549631
0.515631
0.820724
0.760198
0.610189
0.403871
0.352554
0.511591
0.355625
0.37958
0.522313
0.431503
0.459307
0.366314
0.37556
0.741377
0.759422
0.497215
0.365953
0.764445
0.393439
0.631489
0.599069
0.76255
0.771668
0.903151
0.800262
0.387954
0.411072
0.587953
1.25515
0.820694
0.443718
0.860369
0.43246
0.341201
0.424902
0.411062
0.805029
0.774358
0.667261
0.821384
0.937728
0.358578
0.950422
0.640371
1.38852
1.03208
0.580523
0.738367
0.363621
0.347587
0.593866
1.33634
0.855686
1.18617
1.15626
0.591491
0.881986
0.94122
1.06389
1.08394
0.734984
0.688058
0.511394
0.637407
0.796533
0.37484
0.573757
0.340122
0.43234
0.402439
0.641447
1.03154
0.643874
0.382441
0.424267
0.400773
0.767385
1.07478
0.980197
1.64402
2.54449
1.16913
1.04356
0.687035
0.34548
0.472863
0.884898
0.438937
0.973612
0.437713
0.591191
0.347276
0.547613
0.317999
0.740243
0.95617
0.953334
0.845014
0.920886
0.324238
0.467076
0.437469
0.465246
0.484028
0.327302
0.394788
0.394515
1.10791
0.729189
0.530758
0.856329
0.615479
0.462602
0.533892
0.367894
0.369206
0.502827
0.362552
0.366084
0.353436
0.367838
0.411254
0.351311
0.352668
0.354171
0.393049
0.3631
0.330787
0.696935
0.898715
0.777822
0.320224
0.730635
0.441516
0.356941
0.347756
0.35699
0.335185
0.960291
0.317496
0.349107
0.363429
0.388794
0.317469
0.317861
0.317489
0.335143
0.345686
0.342398
0.334661
0.341865
0.604037
0.329477
0.346252
0.887714
0.479537
0.900713
0.65904
0.821963
0.78508
0.631043
0.776763
0.525959
0.602249
0.941582
0.550202
0.558587
0.809164
1.09613
0.91251
0.832213
0.930407
0.724248
0.707379
0.408107
0.564614
1.34693
1.13691
0.355546
0.979384
0.611942
0.35127
0.505003
1.13921
1.05565
0.816069
0.492869
0.963584
0.57302
0.71238
0.482911
0.33506
0.86407
1.06833
1.02577
0.587766
1.12123
0.837361
0.729374
0.911817
0.816314
0.737483
0.413846
1.05096
1.00854
0.937036
1.0589
0.751411
0.872663
0.345603
0.597893
0.347739
0.398808
0.433109
0.347807
0.468234
0.356794
0.359708
0.397658
0.361517
0.449381
0.35986
0.357199
0.331874
0.336644
0.381242
0.441968
0.350128
0.40446
0.372394
1.15543
1.42187
0.569061
0.979507
0.328446
0.339786
0.343814
0.820319
0.659888
0.671923
0.631136
0.317946
1.00886
0.31755
0.346843
0.542212
1.00901
0.535508
0.45216
0.649201
0.348547
0.344764
0.421826
0.391853
0.409504
1.20978
1.73903
0.737293
0.539642
0.823775
1.03533
0.705683
0.585937
0.554701
0.969696
0.800171
0.379832
0.337476
0.357547
0.611631
0.399809
0.374693
0.367678
0.881819
0.40803
0.38713
0.346415
0.346618
0.329439
0.653762
1.02838
0.668719
0.910149
0.402246
0.315057
0.404849
0.546558
0.390175
0.764712
0.453187
0.963862
0.405312
0.714757
1.02053
0.706217
0.736241
0.783654
0.619336
0.754639
0.657657
0.626597
0.726102
0.555995
0.411853
1.19875
0.957822
0.848761
0.568523
0.707192
0.796207
1.05607
0.533698
0.62851
1.07649
0.370125
0.346919
0.354584
0.371412
0.561935
0.364489
0.329926
0.832192
0.651733
0.318873
0.820496
0.314162
0.403452
0.308388
0.605989
0.435328
0.358471
0.348414
0.473567
0.495826
0.367646
0.633673
0.454344
0.80063
0.9142
0.341064
0.91625
1.0959
0.96007
0.946923
1.30325
0.790454
0.935954
1.02976
0.495402
1.02631
0.424887
0.557185
0.586983
0.616975
0.498669
0.595642
0.520247
0.527196
1.09519
0.342814
0.44562
0.398467
1.57801
0.468643
1.00837
1.22345
0.410442
0.513563
0.415982
1.09293
0.998893
0.510118
0.878148
0.501208
0.439366
0.492182
0.461589
0.341813
0.84167
0.479389
0.42532
0.63956
0.479023
0.485919
0.479509
0.538018
0.365952
0.48529
0.394667
0.345323
0.359304
0.493664
0.724626
0.324671
0.843391
0.669655
0.417421
0.489125
0.829472
0.770032
1.0865
0.856953
0.851454
0.864695
0.711295
0.520835
0.441179
0.400856
1.03735
0.875927
0.657382
0.771223
1.22831
1.14055
1.18488
0.578985
0.480489
0.626608
1.37076
1.02289
0.39776
0.357353
0.59139
0.407285
0.428608
0.355306
0.360052
0.383459
0.408829
0.55282
0.384368
1.16512
0.846101
0.503124
1.08883
0.954842
0.584493
0.342802
0.731403
0.861406
0.326005
0.340325
0.450159
0.373569
0.613342
0.494695
0.678196
1.06799
1.11783
0.738544
0.917541
0.935438
0.938109
1.15212
0.920985
0.75175
1.03796
1.19748
0.976258
0.827058
1.14078
1.359
0.550167
0.622304
0.9943
0.378228
0.39298
0.444284
0.387754
0.371648
0.420166
0.379913
0.344362
0.359587
0.424147
0.481922
0.371512
0.323623
0.367172
0.454163
0.373051
0.442348
1.13893
0.82785
0.568797
0.412159
1.13481
0.985733
0.875168
0.964207
0.749304
0.757613
1.03638
1.06113
1.0802
1.17621
0.659204
0.518453
0.38031
0.378153
0.360947
0.394954
0.410792
0.377221
0.412213
0.401145
0.376038
0.353109
0.31981
0.421918
0.408256
1.16296
0.456802
0.954525
0.615576
0.708872
0.336985
0.342738
0.416749
0.531545
0.407653
0.343265
0.404083
0.422077
0.400233
0.41844
0.422212
0.730898
0.648679
0.801787
0.442948
0.573023
1.02618
0.935917
0.350398
0.393286
0.46736
1.30986
0.976122
0.366738
0.338574
0.349295
0.370728
0.435589
0.511697
0.493733
0.417297
0.618217
0.539592
0.453283
0.455347
0.426972
0.351368
0.396147
0.350715
0.369301
0.424716
0.359856
1.14297
0.599996
0.853865
0.74192
0.651486
0.576896
0.505668
0.543643
0.888049
0.384783
0.937088
0.919115
0.766971
0.952423
0.913201
0.747657
0.342088
0.64372
0.43245
0.416165
0.386123
0.356398
0.536645
0.421776
0.317557
0.74463
0.336154
0.329452
0.360273
0.368762
0.347514
0.376201
0.335703
0.325482
0.368126
2.04905
0.494532
0.488561
0.386378
0.361168
0.470527
0.334387
0.414461
1.30089
0.583947
0.85824
0.549125
0.412668
0.665345
0.406107
0.749934
0.449456
0.392422
0.521609
0.408526
0.413155
0.510772
0.514606
0.393178
0.396036
0.380322
0.415945
0.407693
0.406105
0.467081
0.758552
0.617892
0.614738
0.54046
0.682784
0.579979
0.634048
0.808293
0.626919
0.338422
0.812
0.686177
0.785666
1.34874
1.10459
0.904159
0.710658
1.55947
1.03786
1.43894
0.769632
0.667198
0.425519
0.338327
0.350383
0.358018
0.757029
0.371145
0.800254
0.322551
0.317534
0.358513
0.333321
0.345703
0.338464
0.381044
1.09111
0.630945
0.802598
0.509428
0.362716
0.626608
0.342402
0.378233
0.379052
0.736374
0.429359
1.04738
0.507561
0.807298
1.17887
0.583248
0.997137
0.332456
0.423859
0.864857
0.563908
1.04405
0.924149
0.629125
0.485016
1.16349
0.818615
0.487066
0.628643
0.344694
0.390011
0.354268
0.447125
0.502957
0.904072
0.520165
0.485658
0.99757
0.697291
0.671232
0.708671
0.498398
0.741015
0.870145
1.00971
0.941417
0.929457
0.830065
0.966507
0.998504
1.06066
0.791544
0.919005
0.956513
0.998534
0.915694
1.0986
0.867916
0.332978
0.32047
0.396683
0.388441
0.373722
0.370794
0.378911
0.368731
0.450932
0.490747
0.449142
0.384038
0.376801
0.359155
0.327284
0.378692
0.328291
0.322112
0.463919
0.324189
0.364452
0.425927
0.321255
0.327238
0.31633
0.363929
0.319198
0.327692
0.328273
0.351571
0.344724
0.408382
0.319291
0.323715
0.862462
0.829567
0.51089
0.580204
0.98601
0.963764
0.93284
0.756059
0.436168
0.426366
0.862023
0.516804
0.736625
0.747892
1.09205
0.774334
1.25532
0.615425
0.775168
0.693948
0.778932
0.78734
0.802766
0.922445
0.852619
0.815902
0.777894
0.947903
0.638492
0.812566
0.503523
0.65878
0.379769
0.77494
1.01367
0.878364
0.718391
0.499804
0.76835
0.812479
0.428539
0.395791
0.414131
0.760366
0.319527
0.337904
0.325607
0.558032
1.25598
0.501596
0.550822
0.510286
0.353711
0.330941
0.338456
0.315497
0.352155
0.344529
0.370062
0.35854
0.355949
0.331076
0.315801
0.546725
0.502909
0.463262
0.868644
0.526396
0.325472
0.332232
0.35801
0.372803
0.399771
0.476203
0.350587
0.354488
0.814075
0.917256
0.865479
0.918547
0.661379
0.575991
0.441144
0.330133
0.339363
0.908073
0.370251
0.383732
0.615062
1.04693
0.383995
0.381162
0.36617
0.463505
0.800095
0.398319
0.366238
1.02659
0.373895
0.820462
0.626676
0.571964
0.397411
0.421383
0.665393
0.430107