/*--------------------------------*- C++ -*----------------------------------*\
| =========                 |                                                 |
| \\      /  F ield         | OpenFOAM: The Open Source CFD Toolbox           |
|  \\    /   O peration     | Version:  2506                                  |
|   \\  /    A nd           | Website:  www.openfoam.com                      |
|    \\/     M anipulation  |                                                 |
\*---------------------------------------------------------------------------*/
FoamFile
{
    version     2.0;
    format      ascii;
    arch        "LSB;label=32;scalar=64";
    class       volScalarField;
    location    "0.0501868";
    object      omega;
}
// * * * * * * * * * * * * * * * * * * * * * * * * * * * * * * * * * * * * * //

dimensions      [0 0 -1 0 0 0 0];

internalField   nonuniform List<scalar> 
3991
(
78.6314
81.8796
95.7475
576.325
62.1741
434.026
47.5594
66.9166
527.589
95.111
208.924
489.354
46.9917
618.209
47.1152
1873.02
50.0137
64.4865
710.375
137.784
230.854
47.614
520.399
541.248
186.423
785.781
185.606
610.495
69.8895
508.257
310.466
752.012
74.0502
102.214
668.711
778.549
591.052
699.709
819.958
682.7
151.483
1039.86
95.7213
1024.13
70.9334
417.539
658.92
579.506
447.99
72.041
201.557
183.112
59.204
343.988
79.3737
278.147
155.99
811.917
919.608
537.484
54.5134
64.4688
356.035
561.014
277.196
585.154
1147.01
344.903
55.2184
52.5064
582.999
111.37
133.138
205.176
54.9483
935.052
55.944
815.369
53.9343
97.4234
299.401
112.971
139.654
322.421
210.969
1058.23
802.807
56.626
98.5159
75.9205
70.2313
372.99
1152.01
1148.78
896.364
54.3306
1078.63
1478.62
82.1141
216.944
1592.91
708.711
707.239
752.033
113.941
52.0584
330.881
47.5881
50.0886
47.2636
48.9876
46.7682
46.973
52.4167
51.4139
51.3972
102.785
100.994
101.535
133.182
83.8116
319.242
50.8336
181.444
647.247
176.623
166.488
78.9792
59.6364
52.6652
57.3494
53.1478
54.4552
1518.1
904.89
411.944
53.4337
48.4264
50.2526
54.1458
82.6658
1079.48
128.355
992.133
531.484
57.5506
123.157
56.2878
667.548
52.5593
52.3272
59.0363
53.4184
254.306
528.54
338.836
157.645
585.523
1031.01
1004.73
74.5665
70.5997
56.1866
1642.53
622.501
1772.15
763.1
1084.78
1063.44
55.0321
58.101
511.371
443.223
60.9947
78.2334
76.837
184.279
228.004
47.8377
72.3959
68.5576
333.95
794.761
59.5376
88.8241
79.5345
73.7032
184.097
101.986
58.3238
82.0719
123.676
323.708
88.2893
103.83
528.367
74.6922
1897.77
52.5277
73.2862
431.585
121.154
2036.43
665.336
723.86
572.241
578.579
618.308
1015.74
52.9745
2203.02
173.141
1558.62
97.8973
1460.26
69.7145
574.771
610.465
1281.96
382.785
734.374
1805.47
418.745
225.726
785.193
680.437
134.716
494.573
268.4
88.7915
737.787
51.2991
117.286
51.0591
181.061
379.945
60.7414
686.326
245.717
69.8166
175.013
127.008
457.96
78.3687
347.94
456.451
50.0731
223.366
46.7752
525.517
630.297
203.66
69.1472
91.7428
724.653
1723.95
139.389
169.831
83.8897
55.6762
145.997
75.5408
343.495
158.762
679.387
177.408
205.151
765.899
790.542
669.525
390.877
625.763
319.673
632.844
563.503
542.31
573.226
544.76
81.454
166.04
116.578
439.852
196.558
183.709
367.875
257.474
240.595
91.3135
75.6562
70.2068
74.6909
49.1601
756.559
95.2521
307.247
536.671
574.371
46.7128
1144.14
51.4504
399.42
596.012
49.07
1030.79
362.209
294.592
1027.44
81.5463
61.7885
414.308
59.6565
63.5848
537.936
59.9839
49.3316
47.9957
212.917
83.6576
58.7935
74.4135
140.92
82.1533
105.189
1977.84
95.6716
114.171
63.5139
51.3807
220.504
47.8863
146.721
112.659
164.788
104.575
605.392
628.037
198.953
68.669
55.0277
445.293
55.5034
50.0884
54.6553
57.4688
63.1828
57.0289
52.5763
118.572
78.0812
412.825
850.812
51.4105
1065.28
119.699
59.1591
708.647
2108.01
425.249
451.126
85.2096
46.1522
101.072
937.372
54.0818
61.6954
53.4404
1888.03
327.067
824.57
89.3703
68.3237
92.0822
637.965
940.721
1048.54
49.7295
65.2454
740.591
88.6975
54.5359
74.0766
93.0889
657.343
51.0279
48.9467
51.131
773.671
61.9425
48.5572
101.291
60.404
990.978
52.2975
81.4063
767.621
136.685
392.422
918.222
799.199
449.079
52.4765
198.455
601.976
446.638
75.025
311.82
49.1745
815.168
310.666
950.181
69.8704
102.742
49.7697
65.7207
50.2699
60.3171
168.558
118.408
144.967
50.6116
62.6199
97.5009
60.6353
667.598
67.546
164.854
56.078
68.7392
99.2336
54.5303
225.279
921.69
234.591
50.5258
85.7973
56.0411
240.581
386.422
77.0913
49.7562
90.6365
52.686
71.1782
223.349
137.1
363.264
107.975
530.255
127.277
334.891
869.778
226.472
50.9026
66.6073
234.127
90.7032
54.4778
800.008
872.34
59.0312
622.036
47.6589
52.0587
730.952
74.4113
876.807
765.815
61.0485
55.1776
47.072
176.088
59.1097
72.3965
368.727
67.977
189.882
105.441
62.1962
52.4035
94.3996
53.3895
143.915
106.653
604.721
446.647
56.9969
67.9117
54.7734
52.8751
102.323
92.838
50.0151
169.687
51.1557
58.1473
51.3102
622.838
64.9775
458.541
55.2336
55.5684
617.966
71.2311
315.564
83.2704
59.3824
70.3544
436.803
81.1565
73.7138
61.8503
1013.18
813.561
466.539
469.774
340.004
93.6835
50.4884
368.762
246.503
131.497
2568.85
1074.44
494.525
230.96
241.838
594.199
54.2683
82.4758
51.9191
100.185
176.133
117.236
1616.22
1102.58
74.5402
195.767
56.3767
53.0785
326.963
53.3153
1120.19
145.233
66.6752
54.8112
50.8673
231.707
1049.73
897.798
768.408
616.636
210.62
673.961
417.281
189.13
233.718
140.23
207.831
307.541
114.257
212.542
427.803
449.134
109.913
1108.91
178.995
269.42
720.443
178.476
99.8697
96.539
50.89
48.3706
49.2543
50.6508
52.4009
1393.39
130.443
99.8755
90.885
159.106
94.999
1012.55
432.39
663.933
381.207
431.635
155.014
56.6977
69.1094
55.7113
52.8361
71.8301
89.2274
66.1001
47.4226
96.9816
61.3464
80.1286
50.126
87.2025
67.5756
1290.34
187.469
861.287
55.8474
303.748
345.465
158.366
199.858
52.5832
63.0153
55.8419
129.12
145.657
146.363
57.6554
59.0729
66.3964
69.0246
54.9367
57.9838
55.9337
50.2869
54.7214
108.583
72.9913
56.6919
367.088
156.879
787.193
57.451
114.592
255.996
96.0577
51.6947
55.1166
56.0798
53.3651
56.4336
58.4336
73.3594
80.11
63.0313
88.2235
73.275
158.493
51.2108
466.745
650.237
65.9778
127.088
412.535
73.1162
74.5099
80.2306
162.004
487.148
964.368
1246.88
394.163
1036.45
1122.71
1320.92
819.01
52.5506
51.9813
317.542
368.382
474.155
53.6312
51.0268
53.1375
955.832
53.078
71.7471
583.705
206.716
106.639
100.206
79.9022
102.362
50.6003
223.355
570.635
90.6399
58.1532
50.5947
49.3355
75.7967
99.1745
57.0506
195.381
49.1697
53.1982
47.5664
99.2329
54.1973
510.742
790.864
561.408
57.9712
68.6883
48.7489
91.9653
74.7759
619.037
402.916
245.192
457.557
47.2496
92.3256
100.201
77.7668
47.1109
277.57
138.633
113.899
78.8201
1111.58
808.329
1295.04
52.7377
594.516
136.293
1556.1
55.9442
137.289
685.47
668.829
131.596
395.527
77.8542
358.562
1211.74
1012.26
49.0279
136.31
56.318
210.557
49.1735
65.8127
141.447
53.8247
631.537
1083.78
537.74
538.65
680.723
555.872
70.91
128.902
205.209
61.1677
226.677
434.812
535.523
1145.09
1023.51
816.66
865.216
97.5676
632.213
86.4762
1045.21
1528.27
1121.62
1056.41
1319.09
564.212
1062.51
630.661
1319.79
112.726
115.31
152.645
649.72
59.5733
59.7849
59.0119
98.7022
56.6314
170.169
262.955
123.277
62.9503
80.5832
114.75
93.7441
139.796
61.7709
66.5402
62.2481
53.3502
67.386
103.075
73.4878
84.8983
120.775
519.399
85.3237
536.079
63.1678
169.702
569.258
507.05
452.097
527.039
84.7582
101.98
56.4989
622.506
47.8697
267.434
263.42
73.2029
60.6553
362.832
61.5869
613.706
166.026
506.97
432.693
352.163
61.6222
55.7639
493.534
334.158
130.828
419.669
81.8489
632.603
483.661
258.001
48.8126
78.9691
116.41
246.621
511.651
69.2941
60.1457
60.0021
837.465
248.447
52.6139
52.0291
85.6331
53.9033
72.4575
79.4245
49.1354
64.2802
65.5955
56.8914
560.87
535.731
788.442
647.37
581.158
600.052
489.6
616.238
684.703
692.295
529.642
69.4302
59.8526
101.559
75.744
383.18
58.2894
153.083
163.996
581.959
409.738
393.965
176.803
260.217
569.132
222.936
751.321
1486.36
1175.54
949.807
1557.1
573.433
75.3684
57.5896
1393.37
444.617
53.1679
70.0214
60.7489
59.3927
374.726
58.9775
77.3214
52.7193
50.2209
1804.02
125.993
52.1124
54.6555
243.594
72.908
65.4464
53.9561
946.602
1329.32
275.779
276.954
1111.18
275.404
67.9852
790.943
67.1513
127.459
72.0019
60.4573
70.4675
50.7532
49.0994
79.6523
49.5934
51.3963
457.614
48.5536
63.4738
294.167
72.5774
73.7605
532.711
229.641
62.5126
97.5491
784.431
486.865
68.5254
145.883
52.9602
462.921
223.497
73.6148
50.0819
137.187
99.5258
141.517
1171.61
500.525
276.893
219.454
93.5887
143.23
52.0257
61.5643
58.1994
59.0813
70.678
56.1687
699.122
161.685
747.459
2140.03
931.097
1410.95
740.599
702.305
1097.78
674.385
1153.06
210.865
113.741
54.0222
237.221
77.0746
82.939
109.548
53.1728
47.2501
105.145
56.6783
100.613
52.0557
59.6618
361.44
270.907
47.5897
620.32
49.1846
445.145
47.862
49.6576
70.3777
112.202
73.8452
59.415
54.4403
695.769
80.7772
892.203
915.229
401.658
1073.69
65.8428
120.119
1109.52
947.083
66.6252
56.4607
105.526
828.732
68.0019
362.326
96.984
91.1186
75.2387
174.982
77.2247
52.1844
85.263
73.8714
112.283
48.0159
778.461
333.722
76.5975
1085.76
53.8257
47.7848
1031.05
59.8741
463.601
1323.94
344.475
600.412
56.8225
546.894
336.619
63.366
134.304
904.317
281.952
672.733
854.53
917.929
842.425
627.342
1555.97
525.046
56.6176
605.36
512.26
1045.89
126.886
1144.19
149.497
749.584
54.4987
55.3492
1076.99
1095.58
654.307
676.784
825.096
960.174
517.975
263.14
60.3217
548.357
253.632
734.639
211.354
385.911
324.115
457.682
48.3669
799.591
605.507
51.7333
56.6963
75.9389
516.978
66.5548
58.1755
145.292
77.0752
54.87
537.53
589.217
74.7971
887.046
74.2208
81.5405
125.316
102.385
59.7831
148.738
459.786
52.4698
78.1729
49.9233
58.4924
48.9975
92.2142
90.0975
127.953
770.225
222.075
555.493
161.871
793.321
365.759
505.504
195.531
149.062
583.298
183.621
496.038
408.953
328.823
1187.55
689.411
213.731
229.262
811.836
751.7
887.341
1041.46
79.6911
140.281
116.412
109.082
126.831
100.879
77.5049
194.314
59.8109
409.519
66.2646
268.106
307.005
53.1311
46.388
505.588
235.573
50.0368
145.403
647.788
493.649
273.378
490.083
811.192
416.983
224.536
485.89
610.364
268.772
47.9231
50.7384
76.2597
49.4944
73.3516
413.83
1451.96
1837.11
560.436
383.236
474.45
225.859
79.2411
63.4172
79.1175
232.303
90.7183
67.3395
53.9853
155.183
189.647
137.074
49.2233
103.935
79.9877
76.2969
68.4931
84.3555
156.868
49.0104
513.965
58.7658
95.6762
134.866
348.344
1017.01
145.4
112.758
83.5192
804.983
1039.23
59.9026
72.564
74.1446
697.029
768.389
106.514
183.967
115.417
50.0992
52.5708
50.3335
50.4097
51.612
49.008
48.1064
50.294
51.2175
49.4985
55.6114
47.5175
47.6467
232.425
144.854
103.729
763.255
778.82
246.199
274.098
47.2629
50.6308
53.0036
60.8692
101.174
134.579
565.905
480.712
829.714
252.59
1632.16
108.867
825.151
1065.34
314.088
1471.57
1094.63
1385.99
639.875
231.454
1367.25
84.2456
784.14
127.541
1914.63
310.038
219.76
723.292
74.7204
349.821
2067.27
115.807
294.131
318.723
161.905
52.8412
556.421
116.565
704.482
811.071
700.415
91.1288
208.118
87.0643
317.534
90.4638
406.641
705.901
978.194
68.5349
69.7531
300.56
636.376
2212.71
864.256
254.484
1010.89
374.811
140.004
514.56
619.683
738.402
694.779
665.585
67.6252
62.6719
78.7159
833.293
66.4592
460.545
669.349
284.628
785.284
60.8136
57.3638
90.9356
255.353
550.956
479.903
59.9738
799.651
97.9192
1169.07
1273.01
395.549
1282.84
1196.91
60.0325
61.4741
54.2746
231.601
1333.66
1258.14
2563.31
402.352
1071.04
52.8954
51.2846
55.3714
55.4657
52.6609
48.9805
48.5133
77.6829
51.8554
79.6624
1136.13
776.405
198.432
55.8771
48.269
61.4484
164.958
48.4049
67.0184
204.744
79.443
74.0282
71.1068
88.633
681.288
59.7028
477.15
821.828
112.084
51.7877
60.8525
164.296
51.309
55.564
67.1537
53.165
74.9893
794.38
545.962
189.438
86.1506
571.831
253.333
756.765
48.2386
54.5779
673.991
188.011
760.736
1544.56
268.852
629.144
117.675
66.7519
500.139
421.668
185.01
134.247
111.902
589.037
121.032
158.949
108.655
887.675
892.726
63.4121
46.0665
128.651
439.589
87.0346
584.141
396.282
679.162
529.537
148.361
74.1899
70.0047
61.6027
92.6012
54.0062
73.383
104.592
449.937
890.452
577.362
637.401
688.495
514.056
684.85
575.708
519.704
456.306
1053
58.6582
667.935
66.851
63.2197
287.397
854.94
70.1847
92.6175
51.4157
121.674
66.9817
264.832
452.484
64.1542
89.5078
166.174
203.913
168.868
822.601
450.058
333.8
224.087
87.766
49.5488
121.894
593.875
582.106
222.919
342.425
580.878
744.748
797.018
840.467
193.899
1259.07
672.155
221.854
344.909
880.974
536.995
549.957
610.746
63.4595
57.8133
58.0315
69.8412
58.4905
61.1948
64.9404
178.817
86.8595
57.9185
66.4074
66.6365
49.1538
556.345
642.321
596.772
467.614
98.2903
109.446
135.89
115.417
148.841
100.359
76.1481
101.113
60.0295
58.8248
596.462
111.023
616.422
90.7785
104.038
66.3487
240.61
47.5613
698.788
148.838
409.345
166.308
73.8013
51.8164
1154.03
592.214
174.596
84.6024
485.758
86.6347
190.981
1005.72
1380.4
597.151
994.433
1041.49
185.051
879.054
567.379
231.592
74.6931
161.134
122.632
59.917
697.74
152.005
53.5969
1120.58
236.626
49.9094
253.345
413.993
48.5042
62.1626
51.5707
76.3425
999.154
124.628
515.692
55.2097
330.385
59.137
240.648
365.904
263.13
773.688
114.084
279.554
296.074
512.227
811.48
652.63
339.935
358.387
523.941
108.287
99.7309
67.1051
51.6755
64.172
53.0728
336.074
58.7412
49.6566
49.1247
49.9323
149.811
79.933
123.488
96.5159
69.8167
63.4704
58.3956
56.5928
68.5809
49.2134
52.92
48.4556
59.7974
73.0666
63.7094
84.8947
117.386
82.6101
115.366
158.852
63.0962
59.1027
66.9768
573.575
51.8771
56.4931
193.524
70.935
48.2625
825.141
291.407
83.6078
48.1211
56.8737
54.6614
48.3391
146.384
794.211
78.3474
688.21
55.3251
50.851
68.0791
821.42
1392.08
75.2134
682.133
70.0539
1892.99
833.873
69.9717
442.335
143.254
1607.96
71.5183
79.0181
81.3362
62.2004
52.0628
1739.3
1739.06
64.8789
351.557
48.1024
60.9025
46.5569
52.1084
811.215
310.244
79.3243
67.5837
132.512
55.7068
70.4705
340.751
261.865
1080.01
50.849
75.9057
771.5
79.7797
49.0206
58.5106
46.8506
49.4489
72.469
72.0628
50.3786
58.0479
72.1205
60.6663
116.086
63.6187
159.986
191.237
52.3625
53.7487
52.4628
164.23
163.795
66.309
960.663
1042.07
176.56
787.263
48.5144
1113.46
51.1213
69.8246
155.292
68.9689
634.217
53.2481
591.043
70.7688
84.8086
688.25
146.968
1104.94
1925.08
2382.52
755.564
1835.47
2216.79
517.161
124.759
1050.69
47.4201
69.499
1308.11
1079.59
140.409
142.307
50.9628
345.658
72.9408
868.872
100.23
88.6739
81.7044
1086.58
1323.55
633.315
1799.3
2028.05
612.376
529.269
58.114
844.811
52.9563
52.4385
49.5137
52.3436
54.8229
47.4705
52.0129
54.2386
62.547
1218.46
422.594
968.501
63.3049
745.8
99.5656
75.7478
58.5893
59.8921
284.831
85.1608
57.5866
127.651
335.339
1487.25
96.0661
256.313
1302.18
1199.05
1179.76
551.919
1030.94
665.881
56.0242
952.725
1921.07
84.0764
2001.25
720.678
587.545
225.731
199.817
470.863
579.769
537.75
484.224
689.497
762.606
105.983
144.593
404.167
1874.51
2451.96
445.407
55.9482
110.301
50.4977
67.5773
1021.97
262.905
194.178
803.439
65.7068
49.5159
50.7117
60.8664
62.2798
145.965
48.7541
184.537
123.921
75.9701
457.664
72.8641
59.8795
57.0419
65.9771
59.9727
77.8179
49.8813
60.699
59.0975
58.3489
50.8007
2426.75
105.723
99.3207
740.652
87.1044
397.001
116.521
293.617
745.468
295.381
373.154
183.228
86.1219
109.968
65.3547
157.03
134.342
50.8631
54.7215
70.8674
86.3721
63.5782
81.6312
60.5221
68.2399
65.8893
1206.02
1551.61
1017.33
1302.68
127.26
118.538
117.077
168.094
50.1021
55.5875
666.58
88.0754
104.584
57.6192
382.73
61.6861
59.8961
58.8638
67.2778
215.797
138.6
71.1894
601.322
111.532
147.276
87.6862
148.642
74.2448
62.9864
80.5004
755.469
665.922
801.971
601.799
1445.73
716.37
694.954
787.591
689.628
1135.6
721.167
1895.54
212.188
1215.27
958.003
399.377
150.949
108.42
199.013
50.7335
2092.98
295.239
469.978
557.642
55.6447
51.1095
442.18
78.8
61.237
842.96
152.164
587.216
76.0908
572.265
272.426
796.465
943.855
50.2641
87.5216
50.3172
56.9474
50.702
52.3219
139.464
1837.78
74.1914
188.269
412.625
75.9389
138.701
162.417
52.143
128.346
341.958
867.957
760.995
251.056
714.548
49.5373
48.1025
417.982
478.941
287.822
103.104
534.162
151.286
118.572
102.717
109.904
76.5142
138.984
68.9785
135.001
132.611
385.755
404.205
194.644
138.643
58.2759
74.1912
178.18
626.322
879.178
163.979
151.613
668.152
171.931
89.9879
140.985
179.192
263.938
297.077
344.045
126.323
129.666
775.409
191.637
147.406
262.806
317.328
185.218
59.4995
55.1806
68.9094
56.4283
268.062
165.095
84.1431
72.7847
164.613
54.1725
57.3137
53.2556
59.0701
53.4294
62.1871
64.599
73.4553
228.437
431.602
60.156
192.551
100.517
420.947
96.3837
1240.29
59.8501
416.668
422.225
1377.61
673.724
1078.8
110.357
727.965
124.478
89.1849
287.232
61.157
84.6055
468.084
202.474
337.284
96.4043
189.618
82.5108
616.474
142.476
216.108
116.424
97.4589
205.213
137.219
58.0259
1081.65
843.555
50.4811
49.1535
49.6532
56.5923
1380.17
1261.43
276.353
729.187
57.7484
58.1508
60.6405
481.539
598.464
766.068
493.679
60.3706
533.368
736.263
637.24
561.621
47.1755
1360.1
158.948
233.898
197.901
743.055
813.857
415.328
217.337
58.4226
61.6924
411.281
59.7054
48.8424
320.957
233.637
215.538
209.229
474.635
81.7635
94.026
60.0389
759.911
59.3349
55.0969
50.7651
50.1903
48.7516
46.4344
60.7307
52.9843
47.9368
65.138
71.119
79.0927
71.8906
49.9506
53.5002
53.1012
798.657
75.4949
524.46
66.9537
215.375
147.553
66.0774
59.0749
123.43
1246.92
258.411
65.6971
54.8752
71.6775
70.7073
84.5134
464.962
74.8726
78.3297
312.876
99.2505
58.1361
68.0022
193.163
196.395
456.909
248.359
1203.09
449.079
642.555
81.8547
76.3524
121.689
67.0674
82.1284
66.0883
417.337
48.462
107.586
110.357
233.497
118.979
56.1405
744.484
899.919
865.706
1076.9
619.113
835.638
726.849
55.8885
1005.27
130.403
82.7368
71.411
66.5764
55.5679
56.3397
75.6699
73.8575
51.1385
74.9546
531.287
558.863
1215.91
924.923
127.673
73.4761
72.5127
79.8013
48.1612
47.9598
448.538
154.924
535.584
47.7264
381.37
46.0706
790.88
187.403
56.5647
72.6785
1056.63
197.409
655.908
61.7059
78.4554
928.907
60.5792
64.4422
47.4676
49.0266
52.3983
81.2936
48.7885
502.785
48.2134
362.357
348.769
80.6479
55.8706
908.366
71.404
53.3639
1409
146.67
56.624
51.8326
82.2686
57.3315
258.428
470.124
265.667
293.096
1891.7
674.851
906.434
210.105
487.427
411.722
661.389
1414.82
56.5792
59.2846
59.2934
259.855
322.975
172.119
905.531
233.548
133.128
84.1883
70.8859
52.8438
248.267
1392.43
131.376
125.104
1873.6
265.775
320.735
819.939
58.0294
111.137
63.6851
89.8439
93.8276
387.685
299.484
293.842
486.015
278.908
97.0396
49.1018
78.7937
60.1352
53.5654
771.939
222.209
263.664
495.68
468.949
47.7793
50.3163
57.8148
55.1209
58.4372
82.4211
61.6322
280.518
345.477
419.986
499.769
499.715
297.24
223.69
327.391
463.464
839.127
221.231
705.797
363.502
559.834
87.0483
473.28
106.608
588.918
565.313
671.905
101.485
177.755
471.192
113.72
74.7128
90.9099
187.543
593.89
74.176
306.622
68.4062
52.9474
98.0066
664.129
433.166
51.7116
180.997
61.6827
62.889
61.8494
51.4275
58.327
158.611
124.652
931.282
126.831
188.503
549.205
301.372
407.263
65.8231
688.126
656.513
726.544
466.425
555.08
533.696
468.255
381.6
2584.51
735.43
690.751
1067.87
591.323
69.2451
55.7891
55.8368
52.0979
72.4125
1415.48
55.491
49.1992
61.3526
305.426
154.627
152.704
1127.4
163.069
672.169
1314.03
727.116
172.245
204.69
949.12
73.6415
72.3007
366.256
69.7675
65.0403
85.3499
59.2805
190.852
55.091
57.5004
49.0793
49.5644
81.9143
398.092
106.023
288.216
64.5436
639.741
1344.57
705.253
61.4397
178.099
2031.49
83.5678
78.8041
120.184
128.734
377.211
205.606
286.437
67.6623
64.7701
69.5006
66.8117
134.335
2060.13
975.968
109.976
50.5993
159.81
256.075
1114.03
675.637
574.412
1504.95
157.341
96.2919
262.148
1546.74
616.686
49.7148
80.3721
923.458
869.878
879.07
84.8512
867.517
79.4993
546.792
184.859
47.4714
54.6941
53.7858
55.5452
51.7013
49.3186
137.896
56.0017
83.6366
130.456
60.9454
54.5822
48.2873
48.752
54.498
59.9348
121.18
345.267
125.557
270.379
359.235
1562.97
252.555
1146.76
71.3268
84.2077
233.25
186.617
2117.25
48.1659
47.968
56.8285
719.902
188.451
249.642
75.7503
352.142
317.818
237.767
64.3934
48.0781
903.329
441.787
105.462
1999.39
47.6097
127.086
59.8162
335.822
50.4354
58.1455
52.3246
66.8234
838.309
403.972
120.428
110.453
2213.26
771.566
1240.66
605.373
612.243
2631.66
209.654
49.7693
87.021
1141.55
50.3626
312.289
208.741
122.885
608.856
396.739
277.232
68.7951
50.5584
136.423
50.5808
56.4253
158.851
85.657
98.1533
53.1279
55.8904
564.4
392.358
130.201
51.7536
276.92
64.1382
275.478
280.86
1052.9
383.451
972.051
677.27
59.4363
74.5674
233.593
2193.48
531.359
89.6944
427.515
79.7408
75.4356
74.8523
75.2995
447.164
379.471
249.712
516.528
532.648
55.1902
1348.51
318.337
433.316
552.612
211.752
283.062
54.3886
53.191
265.709
403.392
728.325
664.103
1753.24
183.966
655.763
976.706
837.162
1033.14
440.047
451.115
154.298
354.551
794.919
56.7574
305.344
50.8016
81.2561
66.6932
451.233
1031.62
455.71
57.5698
78.9524
65.1412
488.116
1936.82
1609.81
1613.24
4026.9
1215.7
1297.9
283.126
56.7241
114.948
1540.75
83.3498
972.387
84.7561
315.786
102.904
205.113
74.4111
557.935
836.511
1271.67
1168.12
1169.25
80.9994
105.974
81.9715
100.523
124.429
53.245
64.8271
64.1615
1310.35
636.909
1078
1115.77
214.48
115.648
200.939
53.5884
51.4801
619.804
52.5767
94.2653
145.741
52.7086
80.1069
48.9242
49.2909
73.7828
81.1444
51.3632
52.6084
265.146
1117.79
824.726
101.299
681.147
97.1905
85.0815
85.8798
57.0135
61.0392
804.836
67.8654
47.6566
50.9112
59.4313
73.2427
72.4268
79.5196
52.8404
54.0805
58.5336
52.6966
53.403
1058.82
74.843
59.5749
403.813
1062.83
441.184
612.618
635.302
760.188
792.661
630.533
174.622
301.881
1044.16
173.654
1036.56
534.515
1507.43
723.931
562.609
806.839
750.682
883.713
70.3552
166.039
759.412
820.799
47.7988
615.155
365.817
57.5865
160.935
2198.66
666.091
1529.83
126.03
813.664
173.577
325.293
119.699
48.6133
463.431
583.773
551.801
897.127
600.33
470.592
376.296
711.408
349.48
570.869
73.6016
798.761
781.25
389.509
1021.64
772.831
1146.92
79.9225
330.13
49.2703
66.7777
77.2605
56.2281
120.589
50.8458
51.1293
66.1599
50.9819
102.279
50.3437
50.8473
100.236
104.892
57.2675
85.2672
51.5691
67.2185
54.2861
882.995
458.61
224.995
657.993
99.2844
140.836
61.1037
467.601
616.561
467.84
516.09
82.2675
864.796
73.0393
47.121
170.735
852.184
220.068
105.83
373.993
48.4383
46.9287
81.9901
61.2279
75.0739
668.904
395.337
464.885
169.381
714.896
543.228
377.91
278.138
185
2040.47
844.897
58.083
50.5525
49.4895
1014.99
62.2582
55.3018
53.4288
1018.21
63.2714
58.7318
48.224
50.2469
171.429
304.927
591.94
321.675
771.829
76.331
80.9119
66.0798
222.862
60.3412
528.855
105.708
1252.66
61.6742
551.865
1309.09
617.195
625.255
582.568
365.764
564.485
447.339
356.057
544.662
224.821
67.7185
1617.38
1681.23
942.113
921.669
488.545
838.522
1192.18
1148.36
342.273
1232.64
56.1103
54.7103
52.1237
56.2422
227.439
53.1809
61.9789
1392.2
282.92
85.4807
744.797
130.339
68.3064
90.1087
269.022
87.6956
50.7541
47.24
128.924
135.202
50.2931
382.29
107.562
776.427
971.165
46.9362
927.752
1208.34
799.26
858.925
681.82
553.213
594.13
1090.22
141.97
895.87
74.5345
235.305
321.978
310.596
136.385
173.266
114.147
121.627
2146.18
90.3236
1618.35
1534.43
1733.07
102.446
639.634
963.439
78.4654
138.982
78.907
808.729
717.558
133.514
601.705
105.44
79.0864
116.338
96.9612
183.303
853.066
122.661
78.1175
313.476
121.88
128.274
120.23
179.512
51.7782
110.487
61.4015
47.1389
50.7478
131.316
642.264
70.9766
358.201
312.578
73.1598
119.422
640.473
661.868
573.489
539.749
770.08
605.975
445.748
164.761
85.5224
1538.73
1158.8
452.753
379.338
541.919
563.175
648.568
603.786
830.448
119.166
316.718
1044.24
1240.24
65.6298
51.0747
252.599
68.3951
76.8505
50.2735
51.0212
57.8061
68.1829
205.006
59.1577
868.174
709.657
857.746
772.99
1863.91
338.412
47.9505
458.235
614.221
141.937
68.7249
83.2462
55.1728
295.207
124.177
375.723
512.166
908.212
561.005
776.036
336.35
623.107
757.17
872.495
674.697
1935.91
1453.05
1637.35
921.03
972.754
1366.55
236.763
348.212
1991.38
56.7013
62.0503
92.8289
59.6206
54.6914
73.5983
56.4923
205.409
51.2614
78.1745
130.954
54.3866
56.3859
52.7516
105.718
54.8575
94.7553
1360.19
982.005
229.544
72.5314
2307.37
1418.76
1242.52
1752.37
657.381
592.204
692.934
909.552
1016.49
598.528
461.18
177.375
57.1591
57.0272
50.6713
63.7914
72.0408
56.1329
73.6548
67.0396
55.6819
50.4694
67.1432
74.3783
72.9834
2094.23
109.416
2024.72
350.766
406.445
82.3745
48.1647
71.4889
140.29
74.5009
49.1375
69.1242
74.392
67.3648
73.3267
77.4695
578.356
415.525
721.236
97.5652
205.761
1557.35
1456.91
47.7962
62.1206
117.002
430.057
1412.68
50.2688
56.3404
48.0332
53.8109
92.2846
176.545
1368.17
76.9422
333.302
209.109
103.477
101.146
84.2786
48.4844
64.5094
48.9245
53.7999
77.1043
49.2285
1314.63
257.59
791.554
427.157
251.815
232.403
144.692
1022.81
583.312
59.1759
582.489
459.675
638.115
487.065
429.716
580.053
48.9846
589.825
77.2243
68.9524
55.5285
48.0421
224.117
73.5579
76.1204
482.934
47.7782
52.5368
48.7118
53.3911
48.9272
54.3811
94.0856
63.9296
51.5134
551.432
129.546
128.44
61.13
54.7849
102.756
93.3137
71.0154
528.39
210.068
651.774
183.202
68.5423
556.008
66.9589
384.565
101.265
60.9002
156.002
70.9797
73.1215
160.382
138.133
62.3877
60.0651
55.1043
72.1877
70.7844
66.4788
112.407
613.262
494.465
715.15
211.884
470.977
164.96
924.643
535.517
354.644
49.9731
637.376
710.703
596.663
1401.77
800.153
984.08
708.92
1462.38
1003.4
1317.62
619.136
426.452
70.9487
56.5176
58.7046
51.2372
611.072
51.3048
785.298
75.3346
78.7311
195.652
51.6564
53.131
55.095
60.288
2238.16
457.752
1003.97
158.773
57.4384
332.211
48.5374
55.7259
54.2111
472.87
77.2408
1945.82
163.819
364.934
518.202
175.066
636.638
57.7251
74.7749
541.43
236.918
538.526
964.123
1305.53
717.13
1239.85
516.847
129.684
1026.18
46.3641
59.7906
47.707
84.8024
134.288
667.016
171.09
118.533
897.876
444.448
478.337
460.488
144.652
632.324
555.927
543.588
515.551
460.578
420.739
518.067
486.427
604.087
696.595
449.649
458.643
474.975
537.855
580.072
564.09
47.6235
72.3362
70.3294
59.6003
71.6158
71.4669
67.6201
70.7358
86.3741
113.195
98.5231
66.7396
63.6994
57.2123
68.7342
60.8462
118.331
95.6412
113.341
53.882
92.0981
73.9311
150.479
68.2784
80.8983
157.445
110.157
60.7389
68.4395
154.259
139.755
67.95
70.9904
103.97
522.84
1025.52
147.679
260.528
1586.42
2034.35
1178.01
352.099
87.4691
80.6125
682.834
151.416
422.482
1514.01
1704.3
1554.27
1085.75
345.615
882.265
684.454
634.73
421.889
676.824
431.227
526.009
674.411
756.701
1244.76
313.044
850.103
152.06
376.461
546.921
314.562
1877.05
343.17
605.78
146.183
466.854
587.977
76.0228
61.8086
69.8686
669.354
60.3138
56.5989
97.4963
172.359
399.835
138.029
189.229
154.846
59.0765
96.8198
50.8491
132.839
50.5444
52.0326
53.79
51.3289
51.438
55.6749
92.7361
197.123
131.872
98.1476
545.255
159.612
90.4662
121.243
85.7117
69.9559
65.6275
101.689
159.195
66.9613
655.574
757.212
705.885
731.741
313.626
633.734
82.8449
50.2687
183.474
334.726
54.0734
58.0358
360.729
929.934
56.7244
56.4241
51.2902
97.1003
563.621
62.6813
53.4574
560.423
55.2073
413.502
346.006
201.655
63.7736
80.9876
401.483
86.841
53.4506
503.614
52.5654
59.9512
56.3131
249.069
382.102
352.963
108.217
174.152
63.6199
167.646
573.915
62.4042
143.959
64.5194
56.8461
61.5453
104.948
62.7876
1949.79
1823.76
93.1806
122.701
803.816
1100.11
1075.33
860.534
134.683
233.525
787.875
798.439
1038.8
710.214
535.392
49.1461
85.9697
58.0022
50.336
447.601
748.532
92.1687
1217.38
747.874
985.639
1193.99
862.732
1327.52
592.425
1805.61
190.172
414.328
418.093
52.2727
144.463
120.218
114.292
448.603
199.411
482.534
762.132
316.817
196.202
873.159
468.372
130.784
71.618
85.4131
52.6031
49.3293
68.221
476.942
495.697
938.465
167.064
697.022
86.8019
924.779
230.706
141.338
63.0606
311.624
57.7212
256.788
715.523
244.323
72.7579
89.2832
582.652
172.386
160.816
54.0694
87.8942
79.4709
133.893
83.4027
71.166
79.8728
81.9555
120.104
81.252
101.917
102.567
112.901
62.8027
116.22
116.904
612.131
459.559
214.705
1356.12
2606.79
750.602
814.774
476.76
56.7178
49.8857
52.3081
47.8403
48.4679
1381.54
349.049
121.616
535.11
723.585
285.965
1025.48
234.36
537.185
359.559
274.036
305.11
157.72
71.4217
58.6109
57.2267
58.6063
57.8492
905.297
719.96
2314.03
52.2484
69.066
50.3774
70.9587
51.6987
150.562
101.859
67.1308
110.925
63.9336
66.091
51.7974
581.239
833.343
860.802
92.9552
143.999
81.2016
104.271
49.1561
46.8904
69.7837
53.8065
51.5151
119.344
55.9149
52.6405
72.027
77.5435
133.381
385.527
227.895
182.362
121.099
313.282
117.517
619.526
79.4417
48.9196
50.832
631.792
180.009
566.793
592.915
847.409
447.393
918.143
521.726
780.785
62.0693
55.1468
142.42
113.668
64.9373
56.1068
103.561
291.475
77.2626
69.3957
47.242
55.4018
51.4046
46.6533
64.1767
65.6622
50.1685
69.1963
69.7275
68.0988
54.0256
79.2106
87.2683
74.2133
55.9075
59.5472
55.886
50.1075
330.085
215.619
1667.61
906.852
177.387
61.4846
68.3408
51.8339
513.616
58.255
50.602
106.228
200.162
105.913
152.562
2183.61
104.171
865.366
194.732
51.2323
58.821
51.018
780.188
886.286
426.172
861.541
96.2002
109.354
99.5747
75.4458
162.758
192.842
1146.36
52.1554
69.3334
97.6503
883.059
109.405
85.9727
212.812
1228.51
492.299
802.721
215.712
166.794
653.674
559.634
105.381
97.4606
75.3588
73.2354
1280.51
458.573
48.1854
53.0999
128.944
47.3652
46.7373
58.107
151.342
52.7532
48.7542
49.3575
57.9092
56.6599
77.1313
49.5451
534.294
933.191
744.943
590.473
928.958
67.9607
58.2312
101.602
70.1806
112.959
1477.21
241.512
312.927
216.118
1414.45
68.0734
50.33
60.5253
96.8532
51.2933
57.577
70.2926
217.224
953.371
263.347
327.003
1053.01
84.406
464.531
456.218
634.599
390.469
487.872
755.82
1095.25
872.714
942.925
1395.17
767.264
235.523
774.531
208.107
54.9892
1007.09
52.9194
51.7015
239.116
152.124
88.8007
241.091
48.6353
119.705
203.05
680.229
338.321
197.147
120.339
570.45
400.401
577.415
65.6877
81.2092
68.338
551.466
93.8118
78.4742
712.111
1075.75
985.047
496.31
994.807
837.383
473.973
533.648
991.064
2049.99
1760.23
2366.51
72.0628
69.0842
79.903
1021.09
63.2983
139.07
496.96
150.922
64.382
625.875
612.8
719.442
705.468
1411.92
55.007
82.0104
79.1322
216.657
62.4991