/*--------------------------------*- C++ -*----------------------------------*\
| =========                 |                                                 |
| \\      /  F ield         | OpenFOAM: The Open Source CFD Toolbox           |
|  \\    /   O peration     | Version:  2506                                  |
|   \\  /    A nd           | Website:  www.openfoam.com                      |
|    \\/     M anipulation  |                                                 |
\*---------------------------------------------------------------------------*/
FoamFile
{
    version     2.0;
    format      ascii;
    arch        "LSB;label=32;scalar=64";
    class       volScalarField;
    location    "0.0153672";
    object      omega;
}
// * * * * * * * * * * * * * * * * * * * * * * * * * * * * * * * * * * * * * //

dimensions      [0 0 -1 0 0 0 0];

internalField   nonuniform List<scalar> 
47425
(
53.5812
70.5764
61.7909
160.146
103.869
69.7872
77.0321
101.523
49.8732
420.988
141.423
51.8694
62.7635
70.3711
82.7442
94.0275
60.1286
55.7846
875.62
159.667
80.4402
48.618
104.59
59.5677
50.7127
49.4405
67.3974
654.584
60.4424
56.1117
50.9721
49.9234
51.3187
61.1636
51.3738
66.7326
49.5023
70.5446
65.0365
70.1579
74.2686
51.7388
54.3349
145.91
1822.84
110.645
94.0389
81.903
74.143
50.4058
522.302
104.582
50.5208
632.167
116.681
121.867
49.2033
58.2109
76.2085
61.9378
854.267
1203.09
728.757
51.6557
50.3841
50.6037
65.1495
58.4402
688.982
54.3297
71.0677
51.798
52.1105
83.3074
550.459
50.3255
710.95
77.7924
1293.47
167.16
578.701
60.2451
50.5075
54.5295
49.1863
78.1208
52.6494
49.7017
64.6507
267.785
49.9033
79.4492
49.6714
114.676
149.212
194.895
50.2277
49.5704
75.1418
81.5121
61.0522
92.647
51.3036
106.009
49.7548
54.4169
49.3648
79.9672
48.1475
50.529
272.963
59.8399
56.2233
151.544
53.1493
878.741
52.2711
225.465
84.2193
57.382
68.0241
50.0421
60.0751
58.2843
100.187
58.1373
80.1397
49.6761
106.104
50.1788
50.588
102.87
138.882
125.902
51.6679
61.1177
53.2373
59.7153
68.0028
94.0772
73.8898
135.588
68.5969
61.6172
54.2287
49.9903
69.7798
62.2237
152.248
74.2098
59.9069
481.193
51.4799
662.476
52.6028
84.6088
58.6393
832.742
97.3146
76.1904
53.0229
49.5106
50.5586
50.5743
326.386
762.639
50.3214
553.222
105.469
636.304
539.941
90.3244
76.0604
50.2701
76.1904
70.4088
688.32
60.8564
53.3229
48.5593
918.479
48.8596
54.8271
50.0154
49.481
55.4413
55.1387
84.9865
144.994
53.0664
50.6234
61.0719
71.7722
78.624
49.8322
52.168
64.1788
70.3304
52.6969
70.2037
67.3326
121.751
48.5021
51.739
54.8575
157.384
51.4249
51.8726
90.5929
51.2946
60.9896
59.3512
52.0557
73.7363
59.6307
57.5313
64.1655
153.308
53.9345
97.7673
193.291
88.5218
54.5306
78.6625
167.946
162.219
50.0152
122.108
55.704
64.8
60.6346
73.3393
109.702
49.4721
163.394
91.7916
209.046
120.667
176.07
179.917
72.9816
53.0986
49.3223
87.9249
49.7778
54.7924
59.0618
69.872
48.7664
70.0521
48.1706
135.666
62.1039
50.181
89.0305
49.6025
49.3437
122.876
85.2013
51.8426
129.344
53.1529
68.5829
134.432
61.2604
94.3627
49.1239
61.9222
56.9351
77.2309
71.9935
156.46
201.306
52.3501
136.539
179.718
141.892
133.408
182.377
182.26
862.362
51.9734
807.992
127.095
75.2683
71.7839
106.849
78.4359
93.4929
54.3915
542.213
53.4281
50.4012
53.3135
57.7335
102.192
106.521
50.8862
61.5782
58.5753
94.6788
49.8079
91.9892
54.9819
654.527
919.29
635.793
48.8368
50.2106
50.3088
103.569
615.614
83.1227
118.408
164.05
77.6684
104.05
126.107
79.9145
289.959
148.14
49.2489
56.8117
49.2477
87.1908
49.2974
71.4178
56.0626
51.9469
68.4707
64.7552
439.743
53.9912
71.0008
131.391
49.5669
462.99
51.4606
49.5528
53.0172
51.2985
51.6224
48.9362
51.6549
51.5862
54.4165
57.4616
51.3876
71.1463
89.1524
50.8181
51.5461
61.905
52.6074
50.8792
57.314
75.0097
49.6031
54.7191
96.7497
65.1567
57.0542
85.2921
85.5599
49.6991
51.4263
134.814
52.5868
65.9004
50.0569
135.355
558.075
71.1758
49.412
200.462
49.3617
52.0213
97.5697
74.8743
49.5411
68.2593
49.6436
48.4364
76.2585
89.8876
84.425
86.4318
51.2528
53.7998
83.7001
51.8694
51.8903
79.1185
55.2122
63.9628
51.8346
58.6657
90.1561
69.2274
50.2409
386.171
49.3815
265.444
74.6402
109.48
107.937
50.2177
142.031
48.917
96.517
51.5729
941.561
296.359
52.0352
54.7167
72.3028
76.7902
77.4423
76.8224
67.6959
90.7194
68.3426
49.3243
97.8557
61.4264
50.661
69.2625
64.0844
52.6143
147.82
1056.64
51.6755
285.265
861.918
93.0736
889.396
729.534
51.6603
70.4701
65.9012
66.3741
610.313
94.1562
50.5305
51.9732
62.0841
63.7838
80.6436
77.2497
330.574
616.075
136.315
68.7802
78.4003
65.23
53.6212
51.9434
60.5927
52.6467
87.1173
76.9981
133.34
68.0378
49.6376
72.4487
56.6606
82.737
52.6831
58.2343
63.2905
69.7138
65.8185
110.377
129.189
57.2654
87.9418
52.9761
370.312
128.251
74.8803
52.4551
142.958
126.171
52.7148
50.23
53.1078
56.5021
62.2364
54.2564
112.823
66.3516
52.6818
53.4676
154.981
97.7132
48.9647
56.628
54.4561
61.2871
50.0635
52.2388
49.3185
66.0346
56.5085
112.719
58.3157
48.7585
48.7024
53.8237
73.9925
130.45
51.4107
49.5178
55.8682
52.0247
53.0728
56.4828
74.4315
67.8567
55.3868
78.0315
102.365
392.338
62.6979
69.3438
56.6448
49.8325
105.284
106.261
81.5185
53.2395
85.4139
65.1116
51.721
116.151
50.0195
293.463
56.1832
57.2667
60.1476
105.111
48.3143
68.528
67.4547
49.673
48.6471
51.5998
1020.48
56.2922
155.154
49.786
87.9663
53.7151
57.7248
77.5735
71.503
72.4785
49.026
355.335
51.8186
54.5404
51.7343
51.1827
49.129
62.1695
67.217
53.376
51.768
66.8836
48.9432
182.76
49.9406
60.8114
416.399
71.4876
49.7299
280.539
500.29
49.4537
636.265
680.42
65.2809
54.1618
50.7294
49.0349
89.0055
94.0087
342.086
50.4685
135.092
51.7441
91.9142
60.9201
87.7915
67.3131
288.087
130.092
50.8922
87.2792
78.0932
74.6838
123.503
127.991
50.8694
93.7335
134.388
66.9713
69.9696
115.903
56.1211
50.5569
119.765
96.7383
70.1583
127.58
106.433
58.5382
76.2431
55.4678
61.1664
71.3801
52.2391
50.2191
1344.58
59.4929
62.8158
956.409
938.516
48.292
79.9189
1509.89
177.617
90.1841
177.968
120.583
671.328
54.9214
50.1506
65.4436
135.915
115.541
114.455
50.2121
122.595
62.1487
74.4929
53.7752
81.622
55.502
271.397
603.17
124.727
59.1891
88.315
51.0712
111.728
54.1485
65.2489
68.538
67.3607
50.6627
189.849
79.5494
49.9615
76.8609
195.216
759.371
184.826
90.789
51.8283
75.9949
48.9667
805.403
68.7273
431.621
84.2327
68.6922
58.2884
69.9526
63.2079
73.5735
60.391
82.7079
50.9329
210.64
68.6756
49.6813
65.8663
91.7343
952.32
58.5222
207.321
62.3658
49.6387
48.5138
150.202
73.5143
65.8716
51.4288
63.6959
60.3998
75.0387
78.6525
79.7489
60.8192
124.079
196.16
68.888
97.0272
65.6105
116.017
85.1751
48.7702
51.4491
55.9669
66.0968
76.1962
49.6517
311.837
338.186
94.2924
65.5608
50.1011
92.3178
51.0037
139.891
52.8679
184.462
86.4986
48.999
76.5161
49.9301
57.6236
67.4402
50.2476
88.5401
50.9394
50.7022
52.4895
166.461
48.3536
336.569
146.078
216.613
359.551
82.1005
79.458
59.8387
56.8649
137.611
342.16
342.216
74.3306
56.0133
72.3145
124.097
156.209
134.648
93.5576
53.2965
63.8891
64.9881
118.977
58.5552
86.7794
266.505
63.6039
69.0526
154.408
116.797
112.041
72.2307
589.117
358.49
218.53
246.519
82.9025
124.255
49.7584
49.5022
73.4265
399.667
190.736
71.8988
75.3326
48.989
311.279
361.371
48.762
173.174
89.2302
49.1912
171.061
48.7618
49.1784
69.159
73.1067
93.059
50.9148
49.4056
56.3029
71.35
69.8789
143.298
96.0045
48.3388
263.149
51.6023
48.5439
49.2608
206.611
82.1445
211.424
103.583
51.5881
52.383
71.308
1020.6
72.706
83.9281
82.1639
67.1258
65.1796
122.425
122.918
129.2
361.522
83.1073
640.069
50.2622
70.0151
52.2973
65.4379
49.5322
169.24
131.85
50.0376
371.714
106.98
66.0983
175.178
68.5153
52.0798
72.2977
69.8994
70.5341
99.885
372.799
65.5935
69.1068
209.591
224.864
648.471
221.595
92.201
185.738
51.953
50.1165
94.508
95.8096
86.3687
85.4129
96.6586
99.4355
51.035
60.4795
110.953
102.525
92.5304
112.886
1208.72
83.2773
58.9505
100.452
279.28
166.52
228.814
96.2248
69.1734
98.5222
95.5024
66.2193
49.6965
53.6167
98.7255
321.366
111.593
68.8977
94.7119
50.788
110.527
132.53
80.3366
285.929
51.9668
69.4432
132.021
98.9154
69.4391
70.243
106.475
98.4058
91.5958
66.1632
141.212
54.752
52.0386
54.4044
88.1265
56.3508
149.014
53.786
227.953
311.061
126.011
85.8693
85.4608
51.3194
71.5707
116.504
460.439
166.25
519.762
51.824
60.6371
55.0617
213.305
80.2077
294.927
240.995
236.386
71.665
268.506
84.9328
74.5311
66.385
55.0541
64.1168
70.8802
74.9045
117.888
73.5347
55.0853
56.7668
267.626
497.297
150.124
173.192
571.703
193.073
95.6664
79.2968
75.0556
109.531
184.372
190.189
567.57
52.8938
57.362
63.8854
52.1588
68.2119
103.8
90.8253
56.1982
108.589
53.0608
77.2355
51.1773
51.8259
124.077
64.0152
124.534
53.8858
51.2202
163.877
50.8957
79.7901
93.2075
52.5591
63.907
114.628
62.8372
63.3196
69.4416
191.344
186.882
125.595
103.079
1774.07
945.505
335.006
409.139
110.092
57.1577
1179.33
338.51
56.574
70.5303
109.567
88.9882
319.861
139.403
54.1758
117.964
60.5807
51.3181
205.582
855.444
128.873
1273.99
143.534
254.4
1235.61
55.754
81.0111
134.268
191.687
97.9699
53.7542
55.0729
728.003
52.1462
223.845
64.1119
166.674
49.6154
55.6821
356.164
358.33
87.9002
60.7757
61.5695
324.835
49.75
48.9781
240.449
403.03
74.5137
51.3241
992.598
739.261
371.046
100.985
106.123
292.102
409.643
73.7482
109.444
92.6013
56.706
88.4972
334.449
1325.93
62.9994
62.3276
59.6493
51.5594
56.0274
77.763
138.554
64.1932
49.8606
50.1431
66.3592
295.465
1281.31
53.2991
247.013
87.7926
69.1545
149.17
51.5502
86.6264
62.3126
56.9483
202.227
52.1271
453.369
48.8093
762.721
561.853
315.474
205.448
62.2887
66.4856
107.509
51.6819
203.863
1625.97
108.989
299.638
195.256
421.709
136.886
772.858
489.259
94.5784
50.8332
1755.54
77.4539
51.0894
71.8826
440.187
1012.55
75.7085
55.113
407.294
79.2177
570.544
684.319
111.681
130.016
924.108
107.984
55.9814
614.153
51.7067
936.557
997.761
50.0553
63.5587
78.472
55.0705
128.655
91.1429
52.9159
127.568
91.2241
119.643
62.6672
51.1454
136.524
63.538
697.461
57.7082
95.3817
108.062
50.8332
725.335
82.3033
118.599
150.386
400.202
85.769
697.886
183.607
132.986
58.7383
1395.89
223.017
228.568
79.4987
156.547
63.0704
77.0086
64.0656
300.949
329.463
94.3167
650.628
151.024
103.297
262.044
131.26
147.48
602.299
148.608
49.4186
149.201
85.7812
149.006
211.827
811.765
57.1367
54.2102
64.7
771.339
66.3375
350.205
62.8635
65.4431
52.4605
101.935
61.2638
195.882
194.003
57.0102
68.1096
93.7883
76.8074
912.683
158.555
95.4429
696.461
284.595
122.721
143.336
67.0945
61.5518
859.667
61.5577
768.108
169.148
54.758
63.0722
67.5079
96.7085
60.6867
73.4742
103.619
82.2033
69.0534
70.359
75.6444
111.568
68.5592
203.47
160.67
110.989
55.1025
701.143
323.619
64.1969
443.524
342.812
53.1852
118.872
468.973
231.201
54.8707
91.9554
210.754
151.132
333.616
55.1327
526.052
98.7432
52.4406
68.3378
113.506
145.755
129.8
68.1489
218.029
49.3254
306.471
112.966
1030.34
147.779
65.1561
123.419
173.901
61.4221
94.8341
68.1862
93.9869
828.04
72.0426
67.7575
866.791
48.8899
78.0717
384.589
57.579
169.887
778.328
150.458
81.3988
73.6653
903.962
201.687
322.942
165.296
81.1589
61.8227
107.463
494.662
808.108
125.675
91.4596
53.6756
87.4845
86.092
132.264
307.91
97.053
54.9604
58.4424
57.0289
53.2731
89.5248
55.1975
54.9676
125.161
96.3643
49.9054
134.517
113.691
65.9689
51.6578
136.064
59.9177
51.4432
52.3851
107.021
97.8729
52.0734
99.7807
607.502
90.0454
55.2295
52.8484
49.2873
185.865
61.9601
53.1883
551.562
816.648
286.445
51.4978
550.725
161.459
51.1371
815.539
109.904
801.292
97.0017
70.2021
86.5152
72.9562
49.0071
87.4483
87.6047
94.7819
110.931
82.4558
107.538
149.315
82.3686
73.1521
392.108
88.6226
1180.22
75.6904
607.166
50.636
122.87
189.075
51.3017
69.4867
193.943
49.0001
215.439
225.089
1139.98
58.8463
507.706
55.2342
115.234
108.369
54.7742
499.134
59.1961
244.642
53.1371
634.638
630.296
78.5566
49.0589
294.752
74.1118
281.143
68.852
98.8795
70.1464
69.8452
55.0313
53.3583
71.1053
180.373
62.0792
180.11
88.8648
75.4605
50.1618
153.206
210.779
90.0411
174.118
53.6213
65.796
122.36
85.2453
69.9773
54.6552
157.691
128.752
49.8703
80.3016
64.43
71.3562
95.5125
159.18
191.435
75.7863
95.3959
183.681
86.6899
52.534
63.0594
50.3084
177.297
169.345
203.966
107.986
71.823
68.2923
71.8436
53.5165
51.5396
59.4473
438.922
130.893
620.287
453.315
577.071
54.9623
62.4332
61.51
64.9574
53.361
278.549
71.8128
49.1317
81.5057
107.945
69.5987
164.658
66.3149
159.248
83.3204
103.942
51.0168
69.9812
88.1938
94.0531
64.4258
119.897
88.9942
92.5753
76.3195
72.9994
77.9043
155.653
179.298
57.8581
86.1637
127.973
100.931
171.564
50.5018
51.1656
130.951
60.3816
53.6236
78.7506
50.5604
50.8625
72.7106
78.3815
188.668
70.5874
84.9912
49.9086
67.6557
484.731
82.0844
87.7704
54.5095
60.3662
92.0341
88.3846
849.004
110.243
176.58
49.7847
57.8035
73.7951
49.8511
52.8409
111.725
86.5648
51.8488
48.8553
191.834
104.349
454.325
124.067
153.199
105.222
66.4018
112.345
355.543
181.431
82.866
78.1562
868.509
61.5947
80.5405
93.4391
88.5243
50.4765
912.923
65.0681
98.2023
54.668
128.289
60.8719
914.645
954.689
66.8542
51.9289
49.0949
94.5512
100.122
56.2794
1120.14
685.315
60.8001
143.666
350.59
59.3416
52.3586
105.35
49.4454
58.6122
51.753
70.9078
98.9487
87.7193
77.5433
52.8644
61.9539
71.8429
50.2281
228.143
65.9078
96.1795
129.925
340.131
224.605
106.126
135.423
65.9296
133.678
127.208
52.6255
567.293
229.399
131.82
84.762
107.583
95.3387
93.4156
179.336
49.2428
49.5511
67.7192
71.275
133.775
83.2644
342.531
430.377
53.6569
132.567
50.1593
50.5226
80.6389
60.3507
69.9274
53.4897
49.141
226.941
382.954
50.1564
49.0161
103.095
997.355
57.7129
48.8282
59.9483
143.796
866.986
81.6139
300.25
200.405
257.46
313.791
74.4803
52.427
49.1234
63.0849
899.302
52.8843
86.8686
82.4095
49.5665
528.541
959.702
905.331
212.834
163.328
53.8534
52.7452
55.891
76.1947
556.071
457.982
360.761
514.419
344.998
63.1871
50.3597
795.197
52.3829
854.311
97.3432
848.043
83.0634
128.883
51.5511
117.109
171.17
173.144
50.8809
68.4854
93.8936
88.0854
68.4199
75.854
70.0938
1084.01
518.446
78.3992
241.812
409.286
228.836
62.9768
50.5779
423.282
423.467
345.814
51.9623
912.303
51.9956
869.867
1273.17
480.236
167.79
54.1892
60.7331
48.3819
70.7411
83.9721
143.734
60.4337
80.6891
56.9798
95.2552
72.3165
49.6323
49.5036
107.096
50.5689
50.9871
82.0962
55.7144
88.3661
93.6231
159.023
92.8929
50.6409
59.5846
109.071
68.4121
95.4773
124.548
1284.6
55.3345
426.62
64.4962
97.783
226.766
75.0449
60.9558
50.2492
66.0386
92.9145
52.4109
94.8306
101.821
82.5321
54.9348
64.752
51.6061
66.8035
113.864
59.8339
102.101
287.685
89.1266
82.2053
74.2857
113.324
87.493
228.351
51.0289
65.8726
108.81
215.464
233.203
72.9605
110.684
894.564
248.906
189.312
92.0559
75.1977
115.859
85.925
52.9582
138.803
79.9861
87.7831
170.032
55.9581
165.79
114.934
118.862
105.791
204.821
76.8877
59.2883
50.3478
58.0837
85.3461
84.1958
465.247
59.536
90.2541
130.52
99.341
802.172
60.7354
50.0628
106.056
287.486
285.743
157.521
50.5036
136.254
71.2035
55.2935
50.2945
511.111
102.209
63.6689
297.11
52.3972
64.8818
152.403
661.507
863.042
52.4254
67.2492
802.196
49.7259
126.069
77.416
424.612
303.181
51.5768
92.7627
664.331
93.6342
64.1527
63.2386
100.573
55.8589
72.5616
379.655
53.274
100.279
483.486
154.389
538.641
81.3653
386.596
57.5297
1035.39
108.972
108.032
519.166
101.708
183.757
385.097
313.232
303.606
49.819
50.6547
390.439
59.9695
87.7798
361.141
60.581
62.5422
64.9775
89.191
72.5761
53.0831
715.79
375.48
134.537
279.721
167.617
79.9546
83.9382
68.8523
115.442
63.7343
54.2828
73.1281
61.8555
321.98
333.89
56.4177
59.1457
52.4032
71.1851
102.018
107.978
98.579
69.3538
359.658
64.4419
64.2404
317.76
131.245
417.18
83.9648
88.6348
560.586
139.784
110.323
242.792
135.245
127.278
53.3074
868.01
49.5816
53.2889
59.8752
89.1612
72.8769
103.462
124.214
103.605
152.61
81.0466
113.573
102.852
49.3708
119.719
64.4562
328.607
1202.82
94.1287
319.115
90.9261
67.4295
505.514
66.6703
59.5571
60.8599
81.0311
573.813
224.589
57.8411
304.173
252.02
65.5013
1734.79
336.259
57.2385
220.067
69.0331
82.9135
228.576
378.553
148.128
680.419
61.4206
55.2129
158.394
59.9906
51.856
108.105
279.608
408.955
48.7082
140.137
52.662
147.85
60.8915
147.248
211.524
92.3316
255.468
65.2026
67.6596
701.819
50.221
52.7503
125.586
55.3011
132.631
249.803
53.0705
917.96
495.601
799.294
357.643
120.435
75.7381
50.1411
56.8885
88.1716
49.6336
90.8052
150.351
60.4971
79.4087
555.139
50.6163
142.901
52.1257
129.305
64.6523
689.205
123.828
84.1295
51.4716
139.977
151.436
52.0734
57.5322
99.8538
48.5855
205.659
78.2146
108.497
59.7802
53.0808
104.364
55.0494
131.286
199.167
53.0622
61.311
52.3336
66.8526
320.509
225.275
138.164
353.787
711.85
180.165
75.0342
602.139
356.882
495.909
68.9316
164.986
198.808
280.328
211.211
818.541
61.5166
55.1378
155.931
616.095
57.4887
367.476
89.4809
371.408
76.2967
76.0242
489.27
215.218
322.71
66.9938
329.472
128.089
333.02
51.8967
216.501
60.2594
56.3423
95.5514
95.7718
314.207
111.263
63.52
164.357
62.9746
187.069
265.658
52.6509
64.4428
62.2385
828.652
72.6955
130.855
134.754
141.942
56.1529
51.9227
95.5796
67.0907
316.404
51.2062
106.619
345.942
62.6459
55.6177
65.4876
61.9215
491.863
140.138
184.757
82.2878
63.2757
1139.58
1397.53
56.0961
148.717
56.0148
51.8118
293.084
71.0379
452.222
58.1662
51.9312
96.5639
57.702
56.4338
57.9323
62.9925
139.736
159.827
160.704
153.784
72.6396
78.3
50.8044
171.507
500.683
812.28
75.7598
346.754
191.389
567.034
88.9959
371.546
110.21
87.9395
130.523
88.9099
275.619
69.9085
158.841
109.697
62.5164
974.109
109.776
428.064
110.092
57.9684
109.549
58.4587
58.383
62.2907
155.41
101.82
118.314
53.2146
118.467
292.802
134.02
73.2161
167.644
57.2813
59.3315
49.2183
77.6824
82.3652
150.018
76.6697
100.461
77.2609
68.6853
80.7858
57.7252
66.7854
59.671
127.49
56.4939
104.165
57.1554
70.7913
129.952
79.8231
53.7802
81.1315
93.8154
93.6875
130.178
318.834
49.484
74.2212
332.028
160.56
156.975
55.6169
158.465
87.2363
177.579
56.5094
53.338
59.183
111.031
63.0226
60.9182
736.376
70.2232
239.298
52.9926
50.5269
161.486
84.4996
60.8234
127.833
50.7695
86.3865
60.6058
273.234
49.4197
154.351
51.4425
53.1845
80.9793
68.4394
133.839
106.349
49.2771
142.53
69.4503
74.5292
94.8026
668.362
58.9516
66.5212
131.641
64.4802
57.9037
129.807
56.168
50.5942
109.057
188.988
127.811
88.0293
278.465
113.081
326.064
51.2294
183.699
70.0889
92.5538
59.7206
57.5272
58.011
61.459
85.6335
166.092
65.5318
491.746
79.4223
51.2448
437.923
133.249
1744.59
299.3
60.8964
85.1688
107.057
123.728
415.031
69.9961
342.85
93.4428
372.469
68.2717
267.614
67.0394
237.136
213.9
130.387
330.485
423.661
721.887
1237.88
461.794
725.253
197.739
346.099
376.157
49.6273
100.448
284.893
74.6443
500.278
62.0026
387.41
552.79
127.845
104.092
77.1414
49.0499
112.113
50.4041
258.548
134.627
86.2161
179.442
80.5645
157.409
63.3888
57.3126
116.563
56.6948
221.503
50.3795
73.6806
675.02
60.3581
52.7567
81.1536
58.0541
420.724
175.941
65.0534
55.8998
183.87
50.5739
67.4583
56.5693
59.71
98.4585
79.0072
54.9502
59.3342
311.581
72.4717
65.3474
55.1158
52.6579
51.3244
62.7465
74.3007
98.4171
51.27
73.0083
94.0918
58.0841
218.447
78.1737
57.1663
65.9472
84.1305
144.415
112.056
99.5276
53.298
121.429
86.1217
58.8972
62.0899
81.0244
75.6921
98.2746
75.9064
133.853
71.7454
75.9111
120.018
165.451
639.377
1025.19
132.312
58.1748
277.936
171.962
88.4392
53.7562
50.6666
53.3561
73.5005
76.0272
49.5274
51.3284
53.6585
112.96
52.8267
51.1592
49.6328
58.2204
147.219
59.5799
119.75
55.4225
86.0702
279.702
56.1571
53.7587
63.9042
947.91
1052.86
101.796
73.5258
60.0287
60.3491
70.4593
397.606
70.836
66.9932
93.2636
53.6328
89.9592
59.1369
64.9572
114.875
82.6096
68.4443
206.52
176.401
70.317
1825.67
162.573
203.464
63.8049
82.7857
100.113
118.861
52.0927
73.929
315.445
51.0859
205.068
524.648
111.786
128.214
482.97
74.0766
74.4454
95.0606
49.6915
125.463
331.727
96.2762
90.5984
198.801
190.905
990.727
585.045
93.9422
53.4739
143.082
65.625
177.086
145.862
494.867
50.3259
50.2581
533.685
55.4091
208.844
75.6261
106.889
594.77
715.984
53.1807
49.7845
766.459
53.2396
52.6361
61.4619
50.3511
86.2322
62.8386
224.315
57.2273
555.333
108.649
53.099
79.7047
666.954
83.8862
577.41
65.8419
61.1515
85.1476
88.7779
61.0787
73.8988
59.0538
502.222
108.326
109.897
391.68
120.347
53.847
514.2
88.3754
113.173
75.506
62.7759
110.522
68.6936
51.7717
251.41
72.1441
72.3928
59.0407
98.7878
64.0881
63.5672
56.1282
58.4368
158.746
63.639
56.9502
82.5407
347.614
69.2132
65.1386
61.8789
97.6746
49.0952
69.2057
55.6438
134.572
64.7486
144.627
151.453
81.4732
393.217
59.9398
60.4618
294.763
320.836
574.528
87.2764
292.816
60.6193
424.918
97.0145
195.971
97.602
52.2612
108.289
212.537
96.8382
58.789
52.4864
53.476
467.64
53.7473
54.2853
60.0093
2128.16
387.925
51.6512
1430.97
374.082
315.69
151.936
1374.82
349.584
60.7641
276.386
93.785
52.1588
272.215
877.686
68.367
51.6351
52.2733
515.66
56.6269
862.195
50.9478
131.152
61.4336
130.081
323.908
52.227
118.728
119.379
54.3099
106.784
50.5468
128.519
1648.65
1714.89
576.738
96.8621
345.089
49.993
51.7103
56.5206
99.5871
50.5862
61.3547
49.8678
78.0635
92.3617
51.9205
53.8705
77.7447
52.6027
93.538
118.548
49.9941
113.951
132.705
54.7546
61.2976
814.559
60.1913
763.878
581.455
133.541
136.841
74.6069
120.556
59.3647
58.8502
292.692
56.6775
66.065
55.1289
59.9869
73.6008
133.814
93.0268
185.874
114.055
54.2407
478.908
65.8109
272.13
210.874
67.7287
870.728
67.3197
63.4853
60.6335
63.4987
76.7438
56.1272
111.032
53.4542
323.274
206.412
386.241
56.5113
59.0534
84.9521
363.534
225.362
76.9462
146.861
69.2844
287.009
68.3922
56.4261
289.732
87.8533
55.5265
93.0512
1142.39
56.3213
61.944
123.608
52.6398
134.189
138.572
51.9662
75.9023
183.634
172.913
749.084
67.8837
273.754
240.443
196.722
57.7503
187.161
99.2943
106.652
55.6425
54.1975
55.8652
454.682
74.6771
106.115
109.869
70.3248
58.0182
92.6729
49.7539
146.593
49.8547
65.7099
169.358
107.634
74.0455
170.608
100.067
83.4587
76.0314
128.348
49.7311
159.449
364.05
111.538
61.1797
50.7756
141.566
54.9902
50.6699
86.3819
50.2087
109.878
90.8009
49.4013
52.3899
104.875
147.271
171.281
49.7631
729.277
49.8387
99.7772
84.235
50.8383
695.402
151.849
632.119
51.1951
66.8041
527.435
671.795
93.6444
98.4803
185.784
129.917
57.6875
66.8008
65.5959
150.281
83.0468
136.122
51.8471
137.297
102.052
112.687
52.6298
91.3482
49.7536
62.6541
453.049
168.556
88.5572
54.0552
108.782
88.4217
86.7845
145.055
51.3548
53.9775
65.6692
89.2799
87.1872
66.6601
116.166
60.2157
56.4626
53.9815
65.099
62.6269
55.6415
121.77
72.7508
64.7795
1784.55
77.5834
63.588
79.6652
50.5772
87.8366
206.131
54.5639
84.2515
80.9005
967.395
66.2509
61.1673
95.9318
1386.32
96.8112
154.844
126.29
71.9874
49.5724
69.8664
68.4093
767.908
102.125
71.6386
65.0548
51.4372
209.067
53.0838
740.478
195.986
113.487
78.3138
63.6776
110.226
94.9601
64.2932
373.452
118.987
336.413
53.1133
140.564
595.846
119.963
55.433
104.305
56.8114
623.144
65.8265
56.9724
89.3499
49.37
58.1364
83.928
51.6313
144.632
50.8001
259.782
49.996
80.4861
61.9377
153.328
89.6238
130.23
86.6972
520.677
101.122
122.052
76.9805
52.3533
104.158
60.8513
56.5096
72.1797
69.3518
60.3652
124.954
50.2225
61.1323
50.7757
243.084
87.5269
412.892
522.185
213.064
161.145
68.3084
70.8794
55.9443
192.394
91.244
54.2868
52.3392
111.891
81.4031
52.2943
78.8238
1006.38
89.6419
64.237
68.3718
425.807
811.306
62.9796
502.222
554.417
211.504
247.964
168.946
401.908
73.4323
224.886
705.406
71.3287
51.653
57.3996
99.9709
318.493
53.8572
51.0014
71.3629
152.954
157.505
934.008
114.294
909.77
117.726
58.7386
87.9411
67.4123
61.1471
665.393
56.5131
214.697
455.552
58.2347
577.49
2120.99
57.3894
98.8146
86.6532
431.363
155.339
122.96
681.019
995.153
99.3795
482.572
131.161
295.869
82.634
53.1867
154.781
597.696
595.064
64.0545
111.644
142.847
99.5905
222.682
54.6299
62.9992
839.58
236.616
420.185
49.2498
310.653
64.571
391.247
64.7679
102.361
187.87
342.591
85.5397
108.556
363.956
98.4085
452.372
84.4431
67.495
268.54
52.6535
158.857
52.3585
52.6045
50.4637
80.6239
377.385
439.268
256.211
64.0063
69.0221
233.057
62.1613
422.346
72.993
57.9912
78.9276
150.613
154.538
538.712
51.7289
75.5537
70.1225
315.726
110.41
576.58
818.71
408.019
106.608
67.3775
349.051
388.055
146.7
57.5383
64.7354
49.2346
721.446
217.383
322.864
1872
241.817
94.3624
87.19
685.163
398.531
70.9123
91.8488
107.571
405.852
58.6985
50.3022
92.2295
70.117
564.848
319.982
231.976
92.1282
211.259
413.469
175.816
96.4967
738.252
243.505
651.627
207.537
251.191
544.542
157.847
61.9936
101.143
62.5089
53.3275
71.8392
65.7517
149.83
182.533
85.2251
179.488
182.05
145.295
59.1631
191.587
101.242
64.3914
129.729
614.952
1041.5
508.244
69.7936
114.299
71.1379
159.66
448.58
153.43
390.933
73.4977
398.594
303.043
188.209
53.01
50.9121
68.7469
66.4253
581.085
89.4633
57.8401
255.042
69.7777
773.389
366.281
101.415
383.141
62.5314
50.2564
49.5801
50.1943
102.33
69.7082
93.4834
134.279
72.2092
50.4272
171.169
582.65
475.441
50.7152
105.961
58.7145
69.1266
58.9872
589.786
55.9671
55.8975
54.6512
95.1674
52.581
53.3707
92.6716
55.818
58.435
58.5408
231.847
50.8495
64.6037
107.301
390.646
366.74
66.274
576.399
519.173
58.3699
59.1095
161.714
63.0561
175.846
84.4058
90.0588
79.7948
170.887
73.3257
93.1285
930.762
358.031
103.615
548.821
52.6611
51.6725
65.944
50.9929
49.8476
72.3129
54.8676
71.2667
188.363
74.4403
413.399
75.2803
444.979
76.1703
48.9723
626.737
119.114
83.9456
519.074
100.794
600.041
73.9055
362.599
50.1035
169.901
90.8742
231.398
51.329
86.1418
76.6617
416.809
51.0642
49.566
57.4194
82.4855
119.179
60.1498
60.6048
93.2424
52.3826
124.288
52.9428
63.5451
144.259
89.0499
156.712
62.2849
52.9527
57.8773
50.2257
58.2009
93.73
49.2178
86.5455
49.9624
236.717
120.355
57.2352
113.034
111.188
62.4206
83.3891
62.6638
129.433
159.24
55.8999
51.7314
89.8063
76.0786
351.241
482.041
465.47
65.6138
55.3156
55.1201
61.521
81.3621
787.899
240.482
65.7233
58.9492
64.4505
52.895
50.2643
74.2794
136.237
166.5
438.477
205.666
61.73
77.0087
79.7181
49.1055
264.01
74.6192
65.7234
117.23
56.4102
900.286
75.831
54.1237
68.0118
70.7452
151.199
470.802
50.4396
410.226
61.1079
703.72
107.443
499.775
70.6451
53.0018
59.3766
106.888
58.3452
51.1733
118.347
48.4259
50.4033
54.1562
65.1397
198.602
64.5291
722.839
77.479
57.4194
131.973
172.561
50.1216
371.586
881.267
733.66
521.813
387.993
53.2908
398.006
366.408
81.8787
62.3812
59.2928
652.187
94.2373
98.3232
49.1954
73.0053
227.107
621.088
154.702
81.8351
48.862
69.8675
248.094
52.6523
56.7521
496.392
401.494
230.385
674.784
74.9033
48.6081
69.6069
77.0724
1052.23
50.2255
50.7015
49.6815
299.424
50.0989
58.8665
98.9047
99.8841
50.1909
97.8852
53.0532
145.61
69.3759
136.542
61.8905
197.786
92.6489
116.847
168.748
115.383
185.968
58.6596
621.058
92.7639
305.923
306.333
298.322
83.242
77.4999
191.608
75.5881
48.6049
54.5106
50.6662
89.8703
567.002
120.544
50.7355
84.8075
62.0167
49.4017
118.679
58.8877
138.133
97.5532
55.0683
103.416
58.0381
70.9258
194.039
451.88
65.2419
101.591
81.6915
107.876
505.049
185.799
444.525
776.285
141.153
55.3877
56.347
50.0291
109.326
775.759
82.8142
763.629
127.358
53.6641
120.374
382.014
54.962
54.7132
59.2089
73.7101
52.8116
216.776
63.163
85.7625
195.282
49.9621
101.514
55.7426
127.41
55.8278
59.482
574.219
75.5602
118.804
59.469
62.3954
50.2563
103.599
123.667
98.8645
93.664
71.95
62.3506
68.8133
58.9078
233.357
58.5348
58.9122
119.014
211.124
236.352
53.3069
91.7277
114.371
169.246
70.0288
185.118
55.2644
133.703
96.205
58.4194
148.302
84.7775
53.8897
197.297
88.4519
52.8034
53.7696
173.586
92.2153
100.8
56.3934
117.328
85.6827
51.5602
96.1429
336.871
72.4326
68.5869
87.4432
579.59
69.6917
82.7529
157.223
62.5028
155.821
56.3476
646.813
85.9505
77.9423
85.2817
56.4039
116.565
55.9697
404.784
49.6042
72.4828
559.453
60.0243
113.816
204.61
92.3149
53.5973
448.614
54.0366
50.7089
91.0459
127.746
57.3795
286.638
50.315
385.198
109.008
50.2022
80.8554
121.349
645.363
182.406
74.1525
52.0656
127.098
327.829
487.391
117.782
127.297
924.017
203.441
153.251
132.512
84.6264
105.162
62.789
523.252
901.714
154.724
175.704
102.426
856.119
453.823
447.135
355.986
168.649
61.0014
57.09
153.266
75.4445
505.681
340.977
71.9787
642.853
111.031
52.9308
60.7818
56.1848
109.959
88.349
92.5717
79.9537
143.565
185.255
821.633
58.9346
120.776
633.851
568.624
182.73
187.477
68.4607
687.985
49.1267
65.8864
366.209
148.914
52.3893
285.953
381.532
64.885
118.527
56.0658
104.272
55.0779
82.1623
179.302
88.9108
530.453
49.3342
58.114
90.3717
454.508
179.127
124.878
168.415
171.725
123.874
67.0781
361.129
108.972
72.6937
195.934
768.104
262.731
57.5115
302.621
160.831
87.6256
68.425
125.44
52.5649
82.9531
82.8404
79.6234
72.7167
64.8789
85.3605
51.2756
50.056
49.7146
104.402
55.0635
162.08
431.295
650.766
88.5165
76.1849
55.2031
56.5599
105.57
581.761
58.3672
147.272
73.718
160.43
57.77
82.9632
58.6139
308.811
50.2569
55.5015
233.474
55.0511
69.1972
80.7781
57.888
337.835
79.5164
486.826
334.18
252.305
559.16
174.558
362.293
70.9904
93.1109
146.114
61.0659
340.763
85.8353
86.0273
138.134
72.873
68.9688
52.8484
59.6097
54.3284
50.5117
87.2764
288.696
50.1153
807.808
115.423
298.38
123.211
284.259
1772.92
58.7003
268.866
1334.81
84.3083
326.537
80.5879
71.7069
682.312
923.611
252.86
159.847
61.3335
262.943
99.6585
470.445
55.2497
60.5212
211.787
956.313
61.2572
75.1018
57.0003
137.369
370.498
56.3249
476.839
277.246
539.498
664.696
58.4325
211.64
63.0315
476.84
392.071
255.981
254.886
111.367
374.253
188.931
244.594
68.1323
66.9962
62.593
61.096
58.6669
1321.17
67.991
97.5902
70.9192
67.1388
81.0551
876.064
86.5201
235.259
300.199
86.6732
140.807
133.964
48.8564
63.0959
866.084
483.053
244.829
192.963
154.777
73.43
397.816
57.3542
153.998
169.113
58.8978
412.92
113.327
171.097
360.632
84.4712
111.589
114.335
86.4767
56.9142
141.666
68.1933
391.648
63.4164
167.414
72.3453
217.102
63.4218
69.2333
371.451
127.145
247.26
50.5805
1651.31
52.1904
56.6685
52.945
61.6645
72.5571
461.601
98.2064
53.4525
588.608
76.3637
53.6237
66.9928
729.129
49.9261
86.9553
802.523
130.023
750.753
360.782
97.0072
113.599
176.671
183.284
667.223
73.4438
259.213
84.4533
61.6569
180.331
70.038
87.9455
59.7215
482.668
382.054
402.138
230.425
143.199