/*--------------------------------*- C++ -*----------------------------------*\
| =========                 |                                                 |
| \\      /  F ield         | OpenFOAM: The Open Source CFD Toolbox           |
|  \\    /   O peration     | Version:  2506                                  |
|   \\  /    A nd           | Website:  www.openfoam.com                      |
|    \\/     M anipulation  |                                                 |
\*---------------------------------------------------------------------------*/
FoamFile
{
    version     2.0;
    format      ascii;
    arch        "LSB;label=32;scalar=64";
    class       volScalarField;
    location    "0.0153672";
    object      p;
}
// * * * * * * * * * * * * * * * * * * * * * * * * * * * * * * * * * * * * * //

dimensions      [0 2 -2 0 0 0 0];

internalField   nonuniform List<scalar> 
47425
(
4.85433
6.01383
0.398819
7.65465
-3.78235
0.853143
-2.57409
0.418697
25.1669
-12.2044
-0.00647986
22.6925
0.216192
0.0741744
5.86685
21.8413
0.907168
35.071
-87.1129
-15.2591
13.9362
23.3519
0.299736
3.70983
23.2284
3.35846
0.562819
-23.7535
0.807499
0.315343
23.2897
20.692
23.4873
1.14542
0.370508
0.428863
24.6425
24.5024
13.7773
4.89215
5.3065
5.53202
6.33975
25.2822
-17.3038
4.73685
0.588203
23.3544
3.13255
0.941379
59.1499
6.80546
0.25272
-12.7747
3.76883
14.8917
6.52026
0.216822
-6.73573
0.0596794
-15.2388
-14.7404
-42.6371
28.3896
23.8478
10.5548
21.7097
5.36233
-26.6284
30.5907
10.5254
2.56514
8.79583
15.9739
-32.4974
25.6235
-42.3808
1.41137
-88.8135
-4.70141
-37.6017
16.8952
29.6721
21.0277
4.93993
5.46988
7.8611
3.71185
5.03757
-9.1765
23.2961
9.6357
1.24865
5.98132
7.14943
5.3187
1.17191
6.5555
5.38892
21.4866
21.5469
34.905
16.4485
54.8968
16.6691
6.86071
5.26238
5.13195
3.78552
21.9332
-30.818
21.2413
6.58747
6.79773
6.78976
45.9746
7.0663
61.3084
16.301
5.49755
6.46571
23.9287
22.8451
3.83022
19.9981
6.71164
3.63906
24.2873
0.234779
2.45788
28.4513
5.89629
65.7467
15.152
5.35255
3.55436
9.23124
6.65381
19.7902
6.83856
21.9437
-0.268697
12.8143
6.65838
17.9967
24.358
-2.40267
22.2504
13.5236
23.6648
6.84101
53.9398
23.6097
10.5508
29.6819
3.82216
15.0816
-96.3046
5.4537
0.127529
6.41521
2.96457
3.12073
18.0291
-27.7524
-63.5487
23.0849
-34.0614
3.59813
-26.6976
-34.974
4.15847
21.8029
26.8614
4.18505
21.0265
45.1442
0.11476
0.581169
1.28446
39.4428
3.34956
0.84681
1.022
0.790206
21.952
16.8998
60.3441
1.16022
5.16245
22.8082
1.22608
-0.203616
23.2592
1.74766
6.75894
22.6301
3.40477
6.44212
5.98099
1.01326
7.84203
4.9262
6.96131
17.7678
8.79964
0.0369857
7.29042
20.4794
23.5867
4.40216
7.00803
21.2926
2.89281
7.8717
5.4521
8.0622
-3.08876
29.5095
23.3206
-6.53694
5.21585
7.12146
9.17928
10.1875
-5.09504
0.618789
5.46534
5.31391
1.74226
9.72688
2.26415
7.26
24.7683
0.382596
20.4336
-8.16213
1.91781
-6.49465
-0.103741
1.345
1.02552
0.961255
2.24555
15.3967
25.5234
5.06176
25.3385
2.32934
0.751396
4.12073
-3.39118
0.341872
24.271
-0.294917
0.549865
22.9246
-0.128663
13.8001
23.1824
1.59144
25.0524
17.0352
17.8932
2.44121
6.2745
0.796661
2.615
0.328498
17.6924
18.5443
-6.22259
-7.72817
18.901
-4.58101
18.5846
-5.1809
38.6215
-6.26919
45.2086
-11.7257
5.28707
-15.5568
4.3821
1.10156
6.60479
0.667626
0.171089
6.44761
6.59399
67.442
27.4983
23.8654
0.0628979
0.124311
14.8345
2.66457
17.0808
21.4625
1.92321
5.58194
3.60672
1.42138
0.699188
-67.3397
-79.1185
49.4315
1.26845
2.86206
19.1867
20.8273
61.7581
-0.374192
0.217321
0.316833
6.48747
2.57484
3.64495
1.16581
-29.6996
0.252177
20.5858
19.8887
-1.10838
5.70233
-0.337012
18.5646
4.46997
1.6372
0.422136
4.63174
-58.244
17.3361
0.263782
23.7119
-0.978617
-58.5565
21.8383
2.3928
3.19088
18.575
18.7848
3.96605
22.2402
1.67999
-0.253762
1.24846
24.4864
-0.607162
1.64599
20.1395
15.4815
21.1443
20.9519
19.7358
5.00108
0.84757
27.8733
18.4205
23.3683
19.9123
5.08388
0.734458
-0.0156869
15.6495
6.39775
0.627207
23.1399
21.9615
17.6531
1.15267
-9.49881
7.53711
18.4529
25.5354
18.5938
5.1465
21.8289
24.1632
24.1579
22.4854
18.4244
2.5687
23.986
3.58874
23.9061
0.307449
17.6725
21.5129
0.680556
14.9643
15.983
0.240243
14.1374
3.69371
15.368
21.243
0.835595
-2.91812
0.810232
-9.98369
1.20987
-12.4704
0.624773
10.877
1.24226
0.823167
1.40701
0.0158283
-1.34579
16.2394
-88.5919
70.0965
3.29833
15.9499
14.7618
13.5148
2.82838
0.635304
1.30609
0.980307
2.97324
5.80692
12.6593
0.404699
-0.382108
4.47838
6.80486
7.94691
29.3121
-73.6846
6.55585
39.29
-67.3393
5.87221
-76.4322
-13.1765
3.26605
10.6787
11.7222
8.76781
-78.1571
4.35359
3.15782
1.33812
8.47995
10.4547
4.74221
4.9321
-5.17513
-70.3653
-6.92049
23.4509
32.3388
5.64378
3.6666
9.27741
1.64791
9.34202
23.0794
23.5698
24.0597
14.4811
24.4471
2.91266
19.7974
0.508829
7.9302
2.89911
2.48257
22.4944
22.4788
23.1383
15.4491
20.97
4.83979
8.54157
-4.77642
22.8765
-0.40157
22.0503
6.67942
5.09128
21.7873
3.18182
20.0282
22.5121
22.8379
18.8118
1.75061
6.80939
20.7017
5.26215
19.7172
36.1078
2.52739
21.9522
22.2444
24.16
4.1354
1.55589
3.33917
0.569941
8.99549
0.44877
0.51947
2.20781
3.83985
7.88201
0.643735
0.508642
33.6058
-0.773709
4.59658
4.26579
3.47759
1.36787
0.584874
20.6217
17.5578
23.8392
24.3992
59.1244
1.15522
-0.351598
21.3138
24.7676
-8.96148
-12.2023
2.05747
3.922
4.67006
3.04308
21.2757
-13.3156
24.2878
-66.3948
37.0501
24.0616
-0.0556246
-7.95707
1.06878
5.09183
0.715648
4.74071
0.225024
2.73413
-65.4249
0.834913
0.919194
0.414587
-8.81329
2.00193
-0.219851
-8.41764
-4.36223
1.5149
0.87569
-49.139
1.08996
6.52156
0.12324
2.07468
1.56505
-1.2993
2.78476
26.3154
4.35869
2.59224
0.272422
-14.289
28.328
2.51069
-50.1679
0.817675
0.615246
-51.8753
-22.5486
22.266
-49.4253
-49.7305
0.432268
23.257
-0.0612361
24.9558
21.9689
0.0944647
-26.7014
20.0258
0.449437
1.90904
-6.62877
-0.954901
22.6676
15.6727
-42.9002
-1.5031
11.1432
2.653
5.80278
16.758
1.98913
3.46356
20.707
16.1211
23.9546
5.71341
22.1426
-9.11953
15.7287
12.8514
-11.2124
16.9461
2.33705
13.6261
19.0561
1.49013
23.5732
6.03451
40.1304
20.1507
7.16216
5.41528
-107.297
14.4087
2.47418
-22.8743
-25.5005
0.601253
6.30733
-25.9112
0.0155127
16.9118
0.20514
24.3974
-21.4158
0.768771
-0.727198
21.6953
-12.742
25.583
24.9484
1.67158
0.368937
3.54807
-0.0649389
2.59643
4.22368
6.87082
-7.85311
-38.7463
10.6139
19.2091
0.953161
25.8484
21.0525
23.065
22.6248
23.8911
22.847
30.2639
8.1839
23.2031
16.6317
-5.0181
0.123377
-67.7732
-10.6219
-0.664184
26.936
12.3473
-0.171251
-80.6405
0.320159
-31.987
2.3167
1.67923
0.951498
2.79215
24.2732
17.2528
38.1748
0.533917
1.98667
6.78191
-0.220479
25.6391
-1.12302
7.15615
-75.5856
2.01729
6.82236
0.458837
23.6574
3.8644
13.702
6.82291
-0.643638
23.4907
19.0848
-0.101926
0.676772
6.9452
0.168071
1.94619
44.5294
44.038
20.8551
31.2687
0.00635013
-0.285131
13.9541
5.85358
5.32243
0.175921
3.94171
0.795797
3.92144
47.9197
4.51432
0.370764
22.2125
2.68295
2.70145
5.048
0.0915927
6.44643
-6.02519
4.03779
0.906138
0.152645
2.79976
23.6856
0.637903
7.12244
2.7477
2.04861
2.20309
29.0989
51.7139
3.89343
-51.9864
5.31909
-14.0125
-50.5427
6.80434
6.8765
19.074
6.33359
57.421
-52.9235
70.7389
2.00891
8.37825
-0.629158
1.06051
69.0788
16.0404
7.0536
2.09582
1.81724
2.68003
6.06933
3.72003
3.60236
-50.9379
39.0003
22.405
23.9838
58.6067
54.9462
3.75347
-24.6247
-0.180242
62.1062
59.869
23.5556
2.53172
25.8221
1.36301
14.054
-48.9691
15.2128
12.7059
15.0761
1.03513
-51.3184
-51.4972
-0.00107213
12.7226
2.85476
1.55602
14.1129
1.26351
24.7666
-0.69684
2.83196
45.6429
0.543547
-1.60834
-0.511204
1.37506
0.690231
65.0379
-6.61063
0.415386
17.742
2.56806
23.661
23.8217
1.11935
1.24771
-65.1177
0.0625204
13.9473
11.2636
38.5713
-57.674
1.49129
0.227549
-5.69864
4.55042
22.643
8.89086
0.200982
24.1914
-66.828
-5.19238
-53.3059
23.8836
39.7521
0.68963
1.03203
25.1683
0.526176
0.145892
26.8531
-66.6673
-9.11804
-0.306021
-58.5922
0.322934
5.92542
0.279174
-0.200162
0.549123
-0.404518
-56.3275
-0.0291223
-1.931
4.31757
4.32908
-25.8224
2.52332
5.44429
20.0921
23.818
20.1098
-7.18571
5.38475
5.27913
-4.20984
57.944
7.94841
24.7507
4.02365
5.1836
4.65769
4.27589
0.258878
-99.9574
1.21268
6.9539
-1.56935
2.61183
0.22588
1.40629
4.52026
24.9774
25.7834
4.49538
4.92354
24.1446
30.0853
25.5516
-51.9277
0.148925
5.78329
3.84277
1.5095
4.85511
44.3094
23.255
3.77794
0.816048
18.6982
23.8389
23.0424
22.1295
20.6762
24.6564
-12.8265
1.31274
29.3654
31.1885
24.6902
15.8322
6.24939
48.7053
6.72987
2.64966
6.66201
0.604844
-33.3346
5.36161
5.90507
24.5087
24.4642
23.9622
4.7005
-49.6405
-8.79563
-13.4044
17.8884
2.40489
17.2297
-35.9991
5.52309
-35.379
6.00349
7.35352
3.29046
3.04225
4.43153
21.2793
1.1228
10.9238
2.33257
2.88821
12.8134
-5.36507
-5.1484
5.97248
23.9537
65.7849
-75.6311
48.4373
-8.54997
-31.7244
0.568872
3.91647
28.5516
2.56923
62.7089
2.84857
1.59047
-65.4836
20.9522
9.8939
0.479322
25.6475
35.9838
22.5923
2.6093
19.3432
-2.1156
17.9475
22.4199
21.5531
23.059
2.50056
2.43173
1.73885
38.0254
21.0847
4.07565
16.4064
2.51152
2.26103
14.9331
1.77829
-16.4884
2.73687
4.91295
22.9056
-9.47892
3.82665
1.71241
2.01704
-95.2091
-40.3271
-1.03937
-47.5059
7.41894
5.05978
-17.6287
-48.7857
5.4028
15.4487
3.11123
6.45587
-11.2499
12.3562
6.76748
3.66587
21.9816
8.65756
48.3635
-81.9124
0.796305
-10.1747
3.05336
66.7234
-97.1452
4.43802
20.1872
9.74228
-20.2954
19.8813
4.93728
25.0452
-6.84783
6.35284
-6.86934
9.29648
4.27965
6.12578
15.7156
-1.96749
-2.69891
20.8834
25.4472
1.9942
-25.9913
17.3
5.26372
1.55946
-10.5095
21.7941
16.131
-41.8247
-58.3994
-13.6521
18.1648
5.8109
1.57752
-18.5779
18.7436
26.8241
-9.46372
3.65966
4.16256
-0.987496
-14.4296
10.1819
22.6913
22.5872
23.958
19.6574
17.1755
-9.99971
22.396
23.9978
21.9199
5.37187
-59.7697
-14.4973
20.7961
47.8265
-2.62507
21.0202
-34.0862
13.605
17.4671
3.52766
4.52915
22.2246
16.8001
-27.4062
21.4518
-17.3064
-80.2712
-18.9117
19.3791
2.98159
20.1173
4.23757
3.41461
-1.75398
-16.5817
5.69116
-62.778
-23.9055
71.6994
-7.83447
-70.5261
-9.73556
-0.282432
4.96055
-19.7639
5.27649
26.344
-0.826471
-31.5898
-16.6835
-0.179955
11.2864
-18.8116
-11.8792
-19.7139
60.0347
2.38225
-7.67476
-87.8307
4.73324
30.4062
-2.65648
25.0653
-95.2208
-15.1915
19.3059
1.13641
2.17189
8.8347
3.38752
9.76858
8.5171
4.56343
15.487
49.331
20.0411
33.7704
-18.4893
5.21042
28.3139
6.07581
6.4931
2.67708
22.441
-45.6678
3.62326
5.2626
3.40975
-7.59618
4.31042
-72.7065
3.38952
23.403
10.0584
-107.315
64.9663
-54.8396
-4.46819
50.5462
11.6106
23.8491
2.65266
-11.816
-76.8296
-8.11373
62.0735
24.3436
-0.144901
-41.3853
2.01816
9.07254
-18.6001
-3.98719
5.96449
0.597722
22.5332
24.386
-26.0989
-28.4403
6.99541
16.4511
22.8809
-95.2551
22.366
-21.8241
-1.99356
20.9645
24.0545
-3.84314
7.49211
63.4774
-0.392446
14.6287
42.9282
41.6965
18.0581
-64.1891
-11.2476
-0.00453279
-97.9334
74.8381
24.6537
-20.9054
24.1993
34.0537
-70.4265
12.2181
-101.936
-13.2614
6.31755
31.5274
4.56402
24.0126
22.6247
27.4021
-7.18555
0.852746
0.202801
37.321
1.3043
5.28645
28.1924
2.89403
7.80914
-2.2752
23.3975
-40.4896
-12.2991
11.1846
-11.5389
-61.5085
0.566294
57.356
-44.9764
5.58835
38.5993
2.65253
3.04257
-6.4224
-7.63736
15.2897
-25.7616
-4.13294
14.2468
13.8314
2.10277
-6.77839
2.64646
36.2583
-38.0375
5.40694
24.3127
2.52633
-34.7242
-0.127707
1.30638
2.13964
-5.21328
33.6538
7.78541
1.62283
1.94266
-87.7914
0.283969
2.11561
-37.1805
3.16508
2.83877
68.9386
6.0944
-3.54232
-41.4934
0.991435
10.2498
0.254115
-113.995
-56.9997
-8.07025
-51.6748
34.4888
9.43662
-2.64653
-25.3964
-49.0858
3.90871
1.1049
22.966
4.66701
3.26808
11.2696
62.9546
24.4804
22.3159
5.27113
1.59948
22.2164
23.506
32.2949
22.4516
3.23343
23.2403
21.5492
20.3604
0.829949
4.99681
19.7806
18.7749
3.46241
23.7801
1.48579
2.92831
20.4841
22.9376
23.8677
-72.5973
21.4831
29.8118
4.98114
-0.161842
-15.4069
22.4181
22.0422
-67.6996
-33.5564
68.5953
24.543
-71.3328
24.5148
4.6122
-65.4881
9.50039
-70.9138
2.65762
1.18285
22.1996
32.835
18.7888
6.00006
3.97802
5.84391
18.0633
15.662
3.69161
-1.94288
4.53068
0.984412
71.7942
22.9681
-27.9716
-4.90705
-48.1499
2.70094
20.9491
-0.71063
22.7183
5.12862
23.7472
2.5456
-12.7455
-6.37516
-20.7099
6.05343
3.60143
3.19481
11.3335
-9.55762
4.62058
-30.7187
6.1473
-25.7505
3.30983
-35.6243
-63.2736
7.04723
-0.431299
-23.5163
1.20726
-23.1315
21.0717
7.40094
3.70277
6.25108
9.23452
6.60515
1.74407
-7.65631
3.8661
22.2421
5.54846
21.6637
3.07764
21.4793
-20.4719
19.5759
-9.05877
6.51361
3.93006
18.4823
2.87813
18.5662
17.5774
3.34653
5.48901
24.6502
5.31705
5.72758
5.76717
6.0399
-4.41686
-19.3887
1.31968
4.68938
-22.3715
5.81564
1.40904
1.19593
1.43194
2.69144
4.58279
25.1559
22.3381
3.98085
2.64171
52.9458
5.33079
3.09449
4.76304
-28.1009
7.30516
-31.4828
-19.0117
-24.7684
21.0579
0.767602
7.20079
0.446052
2.6279
-23.1366
3.90094
2.7751
3.30091
7.14517
7.80689
-56.2359
7.72362
0.362667
-0.812765
2.55019
1.73627
0.768797
0.36813
0.371974
1.40759
1.95277
3.61872
0.376767
0.134303
20.721
5.78303
5.16918
6.1899
2.04704
5.64482
3.25945
6.26647
1.55211
4.36179
2.48934
3.98628
-0.224533
4.49202
3.31456
1.40187
3.92986
4.59255
-0.41098
-47.3216
2.77385
-4.02115
6.16734
-1.92415
-44.9536
-0.0357603
7.20659
0.258444
2.19073
3.39122
5.8359
64.9559
7.50323
-3.07753
3.30384
0.469402
5.47283
2.29396
1.26083
5.79732
1.98968
2.74191
-0.394002
2.94462
-1.43893
-21.5441
19.5901
1.48482
2.92914
2.78664
5.18141
-1.18919
0.417926
0.597402
0.552793
-37.4695
0.0255245
5.56464
1.36637
0.945765
5.28362
-119.694
-0.304024
4.45947
21.8455
0.294274
1.85498
29.1573
38.7769
-0.290079
15.2077
0.500183
5.14812
1.40552
-0.0513057
-36.0241
-31.7448
-0.109407
2.82357
-20.0654
-0.385356
6.08178
-7.24873
0.309894
2.99963
12.581
-1.02816
3.56619
-0.555033
6.83253
27.2916
5.71174
-0.27267
23.3849
-5.51948
23.0608
-7.30876
-11.465
-47.3673
-6.6011
2.80828
23.4196
-1.22861
23.7153
6.97844
24.2199
-15.6059
-7.95905
24.451
0.424781
23.7075
2.23504
4.27247
-54.494
2.86335
2.62028
22.4267
22.9189
51.4379
54.8785
73.9886
-48.3052
36.3558
23.8455
23.0368
31.2806
23.7737
1.27135
0.118884
1.71174
-0.893669
-55.3237
-55.6083
1.84151
5.1077
7.17052
-61.503
5.66811
2.88742
6.80105
-17.3566
-37.3135
2.98442
-19.7093
3.34212
-12.1689
-11.0642
-6.65712
0.671751
1.67523
24.2141
-37.5381
0.307647
25.1643
2.53724
0.527841
-54.4988
-57.4124
-62.7665
6.89734
-22.9298
25.3681
16.6901
13.2654
1.25942
-66.2356
-60.3956
-48.6643
72.181
-50.3342
44.9637
21.1864
-22.4179
23.3401
-39.3322
23.755
-35.7787
21.3626
-8.90262
5.6525
-9.13325
25.8233
24.6397
6.01563
22.6578
22.1439
41.4174
12.0351
25.2216
22.0914
-46.1114
-49.3011
1.80274
-7.12578
-49.1695
-6.7779
4.03275
23.7349
-46.6644
-10.6448
-9.01539
20.9214
-85.6784
15.0884
-33.6227
-105.907
-45.7871
1.24282
23.7361
17.066
17.4587
22.2364
4.69386
-12.5227
6.8636
8.04622
3.83296
0.368601
0.595127
3.73135
1.34901
-7.43295
0.675208
0.67545
0.99076
5.32337
-3.94196
2.95168
1.95402
1.4963
4.76505
4.50693
-8.58068
3.06394
22.9523
-12.4912
-105.986
3.72558
-70.7954
4.65808
-3.56528
-1.50992
44.5328
12.7228
16.2943
4.38257
0.34113
0.407311
4.62497
0.138879
0.0854248
6.55272
1.09304
5.01745
5.12297
16.83
2.05745
5.61578
58.7602
0.217446
21.8672
0.251435
0.14899
51.4556
-35.024
34.4578
1.11348
5.6675
-7.36675
-59.4534
5.11372
5.09456
25.5094
3.26666
5.28186
2.07525
-5.25064
21.7623
0.278926
24.9777
65.9419
5.00178
6.58602
4.66318
6.49872
3.87924
2.33065
5.3912
19.5855
23.9045
14.6655
22.0683
21.1011
14.161
11.6448
4.52966
-21.6615
14.6173
1.98616
19.2278
22.014
73.1399
13.002
6.05246
8.20754
-30.0284
-11.6648
11.3808
25.0025
6.03967
42.1043
3.91267
22.9983
-13.8944
58.5581
40.463
4.0465
6.01586
15.4539
-23.6328
-75.4515
-49.4501
6.33272
1.89033
-76.7547
5.73171
1.85297
3.94873
-9.86517
-68.5055
5.51245
21.3721
-84.0609
20.4375
4.12274
6.09588
16.5166
3.51254
19.1738
-6.29997
22.1274
18.8264
-44.6205
20.4221
70.2829
-3.82483
65.7887
40.2012
-49.9148
24.6956
25.4986
-33.4241
1.72441
7.75213
-47.3305
-6.46824
-5.90748
4.40004
4.83575
-46.2947
5.85329
12.7707
68.9489
3.57933
13.1678
4.57584
-0.993675
16.0263
16.0385
-13.8572
-45.8829
-12.9911
-53.0992
2.88461
-0.0386311
6.41066
-0.483823
0.837357
3.79368
6.16325
0.697872
5.63478
-51.8014
-53.2608
5.34823
16.8389
5.32481
1.30024
-5.35062
18.902
17.6776
0.157045
-53.3757
18.3364
3.63979
-54.9183
9.49704
-8.45455
6.06644
4.52981
-27.2746
10.2028
63.6262
3.63624
8.13426
8.7004
6.42206
-94.6581
2.66143
3.18475
3.5394
2.55305
19.2512
2.3637
-8.13868
20.1448
39.2515
21.7713
22.2967
21.3169
2.96838
6.40473
3.69275
3.32385
-100.3
5.7728
-16.9487
2.93464
-1.11623
-31.3483
-0.427209
2.62595
6.72513
3.76424
-30.0837
-3.32566
21.0733
51.9745
3.98138
5.53815
-13.444
-19.7505
5.11342
-16.6501
44.1828
21.9266
6.44812
47.0138
24.0356
-44.0716
24.8281
16.1083
59.3665
43.5972
21.6457
17.1162
72.8182
-44.1629
4.50778
64.1248
14.5825
24.8842
3.13612
24.5964
-6.20125
22.867
70.2605
19.9933
23.9641
52.7471
17.4412
21.9589
-6.62506
5.90037
23.5986
-36.2153
33.5184
-8.89657
-32.9299
-42.1709
-1.47582
25.0969
47.0643
23.223
13.5395
22.6881
19.5898
22.6947
7.21755
4.84299
52.1678
-17.9823
19.6836
-8.78115
10.439
20.0166
-0.655915
-47.659
4.33057
-1.44004
20.253
11.1014
5.00105
19.9039
3.79848
5.39854
3.55478
-31.6547
10.9347
3.38604
2.94406
19.4046
2.05487
29.3418
4.17091
1.93537
35.1396
14.9767
27.4251
45.2911
-55.3877
68.3937
52.1795
-11.0327
-35.9673
-56.9261
-7.26161
-54.3541
-55.0688
-6.37163
-5.12951
-11.5548
-57.0163
71.3216
6.97996
-42.9315
13.9595
6.71096
-14.0714
-44.7874
1.48263
-48.3779
-1.37478
-47.2417
-1.1575
49.6839
-18.9896
-6.18119
-56.014
35.4342
-54.561
4.91376
-56.4987
33.8231
17.5613
3.867
6.44175
55.8149
14.1737
-30.0399
-10.0528
22.644
4.57025
6.03034
-7.93282
-12.8425
6.4229
5.47992
25.8532
-8.85342
4.30514
5.43336
-4.79924
53.6269
5.91787
13.9265
5.0729
13.1035
-20.6198
18.3652
16.6909
-8.70132
5.31932
14.8779
10.5665
9.75202
74.8592
11.7665
-18.454
4.98925
9.33193
-89.6124
-96.4668
16.9192
18.264
16.1369
19.6335
-5.10658
2.67737
70.1317
0.628813
19.7963
-10.3934
5.95006
3.67653
16.6014
1.46807
16.6502
-3.56074
-60.1292
-15.9115
44.9873
-10.763
24.5679
17.6551
-32.797
-43.9141
39.5691
-52.8549
19.2777
-36.5403
46.1802
-16.0827
34.4415
-0.196661
9.65326
0.875664
7.81784
0.382649
-17.4851
9.51031
23.2467
-69.2431
25.2114
-6.46106
24.8932
6.01677
17.8418
7.03657
6.48176
1.43142
6.42239
14.003
9.24085
23.6817
4.96505
-49.0704
43.8842
21.463
50.1562
24.4772
14.1917
20.0495
22.9994
39.7564
6.13326
39.6531
4.99447
5.16042
-2.06477
3.13969
1.04358
-4.79863
-1.51725
-3.60552
5.92228
45.476
12.2058
38.9906
3.10375
20.355
24.0625
5.88014
2.44877
2.37079
5.43621
71.8049
1.67125
4.37516
-48.3343
24.2428
25.2437
26.7047
24.447
-3.72168
-10.6769
10.7427
5.92368
5.91875
0.48867
44.8837
0.886444
-29.4457
6.58347
-7.47156
8.28881
17.3066
-9.05611
23.5837
22.304
-1.92797
25.5608
4.88846
15.9257
-20.8764
25.237
66.5224
7.10807
7.09435
46.5493
19.4521
8.73245
42.8597
15.7583
0.820934
47.9354
-8.62461
50.1244
-70.3573
13.3907
23.8512
6.66116
2.92752
11.4366
4.38176
6.3036
1.2747
24.5995
-14.7012
13.6454
5.52373
-2.29277
7.51196
-3.38184
23.0599
24.0176
32.705
13.0112
7.04171
2.44843
6.51602
2.19342
21.5876
5.95782
-2.64433
72.1753
-2.451
6.55902
71.0837
22.8856
-97.8046
63.8855
6.59956
10.3001
42.0822
24.4598
-52.0686
45.4573
-51.0844
11.3534
-51.3636
-5.03818
-15.0322
46.8666
12.2038
72.3267
2.60171
-52.7021
-46.6234
-95.4064
-101.476
-18.37
-43.4759
-8.73533
-47.4537
70.1863
17.2393
20.2492
58.4601
32.989
-18.9136
17.4214
-21.2812
59.994
3.61433
20.5682
0.497202
3.05369
3.01086
2.64392
71.2445
4.42548
3.13596
28.8719
4.6474
3.84432
20.4129
3.5752
2.39482
3.56093
2.92097
15.2519
40.1047
-24.545
8.55698
9.82016
4.35047
6.9359
-28.7154
-23.4469
-3.7049
6.99318
52.5252
22.3635
6.60872
3.89947
12.6507
12.1285
3.25379
19.7272
20.764
-61.3041
2.46016
20.5444
6.17438
10.961
19.4105
4.77587
16.398
18.9578
20.4313
-0.376902
19.3384
20.8449
60.4018
38.6642
18.8063
36.1473
20.4562
7.53904
21.55
3.70524
6.78953
7.60554
13.9901
-1.69575
26.8651
18.8337
-2.70609
38.2714
1.97611
17.4061
41.0329
0.312078
43.2303
-5.37293
-24.6957
-54.4141
8.11953
1.3563
-1.39755
42.5802
3.87338
6.56816
17.6606
9.33309
7.03305
1.83205
17.4293
21.5539
38.6433
15.3778
9.92742
21.3681
19.4082
-0.0457401
-13.6318
45.4187
-0.731042
16.6571
2.62841
49.0647
20.2939
18.8858
1.5553
-28.466
-100.403
24.5996
23.7844
2.75288
-1.44191
3.26212
-9.79434
43.6785
4.55754
6.10025
7.57762
0.43584
25.5039
-0.629475
1.22904
3.30902
43.3637
2.85671
5.71448
31.9713
-11.703
-7.01602
2.24297
2.00097
23.4093
-0.135871
2.98488
21.0071
17.6808
-2.06924
31.3498
14.3157
-41.2351
1.45984
3.8391
-46.1511
-2.08179
22.8707
2.89038
15.9845
22.5777
74.551
2.93096
3.42108
-7.02928
-16.3053
-58.0058
-38.0152
2.88637
26.2713
60.4811
0.06139
23.3326
22.0171
-28.1562
24.1821
14.1871
-7.96447
20.2104
26.9329
-2.28951
16.3331
-25.2514
-38.9111
23.6061
28.7216
-43.0847
23.7411
19.6892
10.5467
22.3047
21.4728
7.32315
-15.0339
4.62067
27.2963
23.3619
24.0965
22.2993
19.1982
0.0263677
53.1379
0.0992382
6.94623
7.96343
47.3477
23.2406
1.13774
12.4868
68.5869
-6.31378
-10.7223
-35.5191
11.6314
5.45584
-26.6016
-2.59776
24.0871
-0.950209
5.03035
0.229413
3.59195
21.3094
20.3803
17.4679
0.628448
-0.197892
-3.9123
5.34078
0.562158
7.93766
6.81495
0.0784661
6.46374
5.28194
21.9985
-17.5152
21.1768
6.94755
7.17836
21.6727
21.2335
22.5565
8.12775
7.6171
3.01467
11.2914
7.26936
9.10303
-47.7013
9.32954
1.48442
-53.2701
-49.3518
-46.2101
23.1091
-50.04
25.8284
-46.9781
5.84522
-54.5421
3.1592
10.4402
10.4785
5.64511
3.39393
10.5712
7.25154
23.8854
6.4
24.7617
5.33543
0.0462685
-102.242
-53.957
34.0364
39.5775
-28.0045
-20.6953
-17.7142
-59.529
-54.22
3.66162
-55.2735
7.10365
6.30979
-31.0018
-79.7434
-1.5431
7.65909
22.2687
60.4211
4.76111
-79.738
6.64607
12.7081
6.33155
7.40025
-23.1066
9.07922
6.61303
6.6847
10.4805
17.0764
7.27304
3.06333
-72.3091
-75.2877
-15.1498
37.1858
-20.8511
20.6964
2.61484
22.7927
14.5057
12.1884
34.3512
20.1919
37.0539
3.02428
12.5996
13.4639
7.7929
10.6188
2.82727
14.3219
22.2931
15.393
50.3143
8.80774
29.4795
-36.9933
5.49915
-26.2911
45.9482
19.8775
19.62
13.2723
-16.0253
1.19978
18.3838
-23.4579
15.9267
11.7055
5.54826
23.3255
18.1319
4.53334
-0.0113803
-19.6319
24.7147
5.9232
-30.0425
9.09833
-22.1121
-27.9777
24.0935
-59.0077
5.32023
40.868
3.19826
22.1445
18.7431
24.276
5.38226
22.5804
-53.8962
4.21798
-52.4764
4.31855
0.0978185
31.8783
-54.3737
0.594125
5.51175
8.44218
30.218
-54.8392
22.1394
7.07845
-8.88765
3.41607
7.48234
22.1894
-109.273
5.37445
14.0506
5.3275
8.07367
22.2928
17.9935
6.33399
21.0432
-1.44324
21.6403
-76.0098
21.4154
-41.764
-5.70467
4.89978
15.8103
5.3776
-1.07576
20.0364
5.39104
6.32979
4.45269
67.1247
0.110624
47.9796
5.18852
1.59515
5.26354
-0.466214
22.6797
20.3691
25.2901
8.12569
1.74455
24.7878
1.92665
2.69517
2.77464
-5.46183
10.7641
-0.271065
20.7482
-14.1995
-63.5387
1.01161
4.83453
2.06945
-7.73479
1.21725
1.02646
5.83209
2.01247
6.92141
5.42113
0.31057
2.47817
22.7249
-9.81614
-22.1635
25.8372
61.4315
24.993
22.0008
-0.281784
23.2761
55.1218
0.334208
51.1147
7.93849
-0.33126
18.728
43.8871
3.67021
0.285487
64.4833
24.3777
34.7296
3.87878
0.432924
1.02475
6.04748
-0.228957
2.68482
10.2333
3.72591
62.9506
3.25262
3.5132
2.03625
21.5323
-7.8126
-0.634913
5.13443
5.64815
7.42845
2.32059
18.864
-9.32059
33.369
28.285
6.46278
2.18973
55.4127
-0.441816
54.5885
37.8699
18.9374
21.5261
1.67133
3.96928
9.31427
1.71285
1.3482
21.9689
-99.2534
5.86577
4.87915
0.556001
19.5392
4.34475
62.8689
5.99353
56.9705
4.50946
-49.209
0.0146423
0.37721
4.57507
-23.1022
1.79281
44.6121
20.7674
44.821
5.00297
-1.6505
12.4425
-25.159
35.6097
23.2534
20.0972
7.00184
-5.74472
20.4308
-73.771
-0.985478
25.185
46.3297
22.2042
-5.7048
56.1838
11.8365
5.45283
54.4055
42.6152
9.97965
10.5786
-38.2495
53.4112
18.1913
53.4241
5.34784
-34.6674
37.0967
6.44572
0.218575
0.185164
1.06592
7.18996
22.1826
-12.5553
7.59375
-8.44845
25.3388
50.659
-1.1693
47.1476
0.300667
0.121205
0.997508
68.1559
-1.54053
61.568
24.5401
12.9817
35.3922
15.5523
27.85
-0.324935
-0.443394
0.235623
-0.252005
16.2413
0.606158
22.5593
-17.1155
5.89319
-10.341
23.5967
-3.73329
59.8384
11.402
9.87888
0.604845
53.9057
-0.484196
31.402
7.19866
17.7673
3.62295
9.55342
44.7774
48.1879
0.929687
-0.0918933
6.93243
-18.2797
-45.7025
1.55767
64.8985
40.4496
68.1424
69.551
59.0794
-42.6672
8.92166
59.0508
-31.2616
-0.119496
13.3121
0.667703
-7.48552
-22.3713
7.00809
9.69931
5.44282
-0.196315
20.8349
-18.8515
51.7106
-24.1944
21.6998
8.58684
19.6561
11.4566
4.60178
-86.4813
6.17765
-11.2125
0.482951
20.4627
-63.3167
-101.324
20.5205
2.73148
1.23832
25.924
20.4692
1.39304
35.4642
-71.7041
-10.0004
-16.7412
48.9652
-15.4414
14.9058
34.9076
13.8623
-26.5446
-31.3025
15.0592
6.72661
63.7623
10.0275
-18.8094
6.34928
-0.0146317
-39.5226
2.27922
-51.1692
5.31589
-52.1374
1.12935
-51.0176
18.9596
-5.19207
64.571
-53.2214
32.8987
-10.3384
-55.3342
-1.01023
-8.8318
44.9634
42.6765
-10.5126
20.2925
27.7051
24.4729
14.6399
21.6584
2.96839
-54.6027
-164.32
-37.0738
29.9353
33.3638
-15.0534
36.5071
-47.2417
2.21985
16.1159
10.3315
-25.0758
24.2874
-48.9163
24.1523
44.1035
45.0183
74.2187
43.6359
-7.0428
-34.1663
60.2548
24.554
47.3881
-24.1235
-53.8654
60.4281
38.0139
6.14662
30.159
27.0058
-21.2737
-50.5986
-98.0501
33.603
16.7876
48.8073
-30.1067
58.5237
41.0001
22.6225
50.152
-73.3206
16.6404
11.48
24.5688
3.2612
-15.9788
-63.7854
56.3017
4.40848
-23.887
-64.9277
57.4694
55.422
54.1172
-29.6382
-72.0786
56.3213
-2.61099
-32.3323
57.0968
8.80228
2.91523
21.7089
4.98417
8.43747
3.77895
54.5435
-4.57164
1.45494
7.9928
7.72459
9.32804
6.55113
20.4012
-12.0526
4.67298
7.82496
-29.0784
-49.5999
-55.4327
-0.92858
9.32781
0.393512
-12.0958
-7.60207
8.20095
-46.9345
12.6941
-45.8078
-48.5083
54.2589
31.1589
35.8029
-1.60721
20.305
-42.8351
-5.48764
2.94514
-43.7502
-0.325622
-33.0216
-18.0727
-5.90673
-18.9433
9.57849
24.6564
21.0129
23.5025
22.0629
52.2705
2.13488
-0.304373
-0.136419
23.9331
-13.8775
-55.9208
-32.6543
23.5665
49.7751
32.9888
42.235
14.1235
-60.3
4.9871
24.3014
15.4854
6.0426
28.5143
19.4499
2.50104
24.4722
2.0467
2.35939
10.1128
24.6754
47.0007
-9.60541
68.0546
-74.7728
29.4693
-81.3891
-52.2083
2.09398
17.6179
50.368
5.84811
-11.6771
4.84324
24.1729
-8.96827
-59.4173
30.3989
58.3077
75.1669
-32.8807
-10.0665
-32.9433
23.711
9.31931
-0.104507
19.5023
15.2271
-6.42919
12.6076
20.7878
-19.252
3.64623
-59.1749
7.17529
-80.5734
0.657568
19.9993
-81.3791
-0.165503
-0.410622
73.2618
17.1818
62.6408
10.3105
-52.3438
26.74
15.8566
46.5012
68.2284
24.8429
47.1828
-0.364737
-18.2915
25.0414
20.6592
7.37179
22.3484
-14.4697
10.997
3.7894
25.6798
12.7867
-3.56389
13.9129
18.7848
5.17378
5.36283
-12.8916
0.244287
21.5421
-0.259614
22.9595
0.14626
3.60157
20.7393
-4.15548
20.1968
-37.4581
0.173262
41.9823
1.16039
49.1484
0.664958
6.33519
0.0847459
0.0816021
3.22734
11.5337
24.7091
47.6559
34.4788
-68.4745
-28.6446
59.5123
37.7454
30.1272
19.0701
0.000966253
-0.58033
-47.1296
59.5251
32.3461
28.1419
1.35774
27.9717
0.158689
0.58374
-2.419
-8.42059
-16.9354
-47.7838
21.3047
5.53171
-6.12522
20.6787
48.7671
20.9215
0.489696
20.8945
3.92308
-51.9606
-3.83211
0.758116
16.8909
6.59291
4.43623
-45.0883
20.4228
-46.1622
36.4002
-50.3779
-10.6735
-10.2037
1.24245
31.4402
17.3071
24.7346
43.9852
23.7222
4.94362
18.6887
20.0696
21.1107
23.0695
-18.1257
19.5564
24.3007
53.8779
22.2641
-3.83892
24.3581
23.9841
-51.2795
-50.7876
-7.7279
-52.1368
-48.501
21.3577
67.0809
-71.2338
-2.31583
26.1059
32.6631
-48.9573
3.28356
1.43112
18.3334
-4.42359
-54.896
-21.2384
46.9739
14.1161
3.71305
18.2605
-64.2511
38.2082
17.6574
-31.2923
-76.8085
-65.3101
75.6062
22.8878
18.3278
17.8561
23.2864
-53.9163
27.096
19.8942
28.7631
-20.9432
24.5191
34.8675
57.3953
49.0427
18.7362
-0.0299248
33.2006
6.24562
2.78433
2.05916
39.8301
-10.7892
-7.37905
1.7008
68.2549
2.09124
-65.1464
37.4617
37.3664
52.153
-59.997
-27.4785
-54.2413
45.3632
3.02172
-12.2074
-5.83034
18.975
8.93009
23.0908
5.85524
32.182
6.2788
20.1717
6.26742
4.29625
0.344591
48.8514
16.7562
10.1059
-6.51465
14.5063
6.04803
15.2424
9.49802
-11.075
-23.167
-1.99763
12.1339
48.8249
5.619
72.1417
-29.3579
71.2379
67.4616
5.58265
10.4099
11.5442
3.61321
5.42742
-64.1958
25.7145
-37.6591
-24.2967
13.4567
7.82626
-49.4448
12.651
12.7041
20.4462
15.4733
3.60745
-34.9967
7.68861
5.29944
4.12112
5.69347
5.45222
5.9459
5.33029
5.35331
12.1724
-30.9109
2.7024
3.15303
1.00161
3.49142
29.866
-5.6968
25.766
25.9189
-0.715214
-0.729508
3.60659
1.0563
13.6179
2.90178
12.5137
15.0927
-0.975948
66.6921
1.58616
6.4294
0.239993
0.345173
-9.33457
0.179928
-57.1338
6.4597
60.8184
11.1981
5.31019
-11.9872
-3.60527
5.62286
-13.1275
8.51997
0.584064
13.9499
-55.8396
0.146066
10.9789
33.2425
49.0213
6.47259
16.0069
18.4206
-18.9886
-5.00778
0.103041
58.6637
-35.0086
-3.1524
2.84592
63.246
1.61281
5.52593
40.0606
-41.251
14.2031
0.548286
1.04258
0.119198
0.118834
-0.525594
-49.0904
25.5179
-0.660594
-29.237
14.9046
0.712137
6.10171
9.56512
27.3959
-22.1779
14.0483
24.5353
-6.96228
8.36104
20.5509
72.7483
23.1995
-82.3161
52.976
26.5448
36.8791
1.21551
59.8576
2.77247
21.1067
31.8572
0.49264
-18.7967
-77.0474
3.293
2.17714
-109.852
34.7867
-55.0211
7.58201
2.91125
0.121725
22.802
38.9875
64.6236
23.681
64.2574
23.4714
-57.9536
-66.2959
-54.1701
-64.0687
5.15155
8.35106
36.7987
24.6411
24.0001
75.9612
8.76724
-4.58352
-36.4214
1.53955
4.64915
11.6769
6.81346
1.1147
14.9588
15.9145
5.79866
17.4645
23.0534
-11.1328
22.7707
22.1702
24.6709
59.2447
23.9089
20.9777
45.1653
-9.93792
23.392
24.2843
47.4828
24.1552
31.7609
73.5161
67.5822
-2.87425
4.58858
24.295
54.8934
21.8704
23.7765
5.37174
55.6516
-25.5015
4.04478
9.34831
16.9029
62.3591
49.4736
16.7888
11.2138
-15.5232
17.1724
4.8955
-26.0566
15.2527
2.38081
-52.2031
-46.2384
-46.482
22.3962
-50.2787
24.2015
-6.68533
26.1051
31.6786
30.0414
-6.19525
17.5601
21.0616
54.2653
21.7456
22.0922
36.2172
26.6261
24.3912
22.0155
29.2171
23.8131
26.4852
-31.9545
17.9212
-3.52077
4.34012
45.0591
7.28527
75.8969
3.11492
10.5288
15.9013
-11.2863
5.25012
4.26185
5.84295
-17.8695
3.51726
8.15734
-10.5811
6.08452
13.1878
4.41283
5.31565