/*--------------------------------*- C++ -*----------------------------------*\
| =========                 |                                                 |
| \\      /  F ield         | OpenFOAM: The Open Source CFD Toolbox           |
|  \\    /   O peration     | Version:  2506                                  |
|   \\  /    A nd           | Website:  www.openfoam.com                      |
|    \\/     M anipulation  |                                                 |
\*---------------------------------------------------------------------------*/
FoamFile
{
    version     2.0;
    format      ascii;
    arch        "LSB;label=32;scalar=64";
    class       volVectorField;
    location    "0.0153672";
    object      U;
}
// * * * * * * * * * * * * * * * * * * * * * * * * * * * * * * * * * * * * * //

dimensions      [0 1 -1 0 0 0 0];

internalField   nonuniform List<vector> 
47425
(
(10.0916 -0.0477397 0.0747163)
(10.1187 -0.0263195 -0.521587)
(9.94366 0.0362277 0.138771)
(10.9653 -0.351705 -0.221903)
(11.6791 0.372511 0.708189)
(10.1372 0.00874924 0.040506)
(11.5661 0.250911 0.616952)
(10.0764 -0.00803932 0.00831439)
(10.1615 -0.0571458 -0.0476273)
(5.99157 6.4573 -0.931658)
(10.0371 -0.0491792 -0.0107982)
(10.4004 0.11163 0.0206311)
(11.4206 0.290963 0.225572)
(9.9879 0.0718496 -0.0310316)
(10.1233 0.308877 -0.141569)
(9.52971 -0.186649 0.144513)
(9.96658 0.0994835 0.0117679)
(8.68945 -0.479455 -1.12657)
(8.56438 0.785904 -4.42121)
(12.791 -0.352576 -0.658487)
(10.5388 -0.506234 -0.497537)
(9.72144 0.067466 -0.0696314)
(10.129 0.0512084 0.0685021)
(10.0574 -0.0646532 0.0211603)
(10.0424 -0.136258 0.117755)
(10.0988 -0.0459232 0.003965)
(9.9968 -0.0804777 0.0160707)
(11.2879 -0.223174 -7.85032)
(9.94274 -0.0606818 0.0262751)
(10.049 -0.0080524 0.000458275)
(9.69215 0.352182 0.243484)
(10.0047 -0.0516723 0.18972)
(10.0312 -0.208239 -0.0781077)
(9.87659 0.161459 0.101879)
(10.0079 -0.269545 0.0739131)
(10.2624 0.0408938 -0.0265104)
(9.74729 -0.0241741 -0.0290192)
(9.71604 0.328857 -0.185361)
(10.4136 0.130179 -0.143044)
(10.0365 0.126244 -0.0105996)
(9.7985 -0.103409 0.0927142)
(9.58451 0.0802432 -0.0880954)
(9.41931 -0.305801 0.33092)
(10.0761 0.138423 0.0557453)
(1.4336 -1.64069 -0.603084)
(10.2303 -0.0345818 0.214139)
(9.98435 0.0816281 -0.0371576)
(10.0571 0.10962 -0.092533)
(10.126 -0.176918 0.13722)
(9.99349 -0.155968 -0.0995089)
(1.96173 -0.47833 -5.17859)
(9.63445 0.627997 0.711509)
(10.1152 0.0925266 -0.000614039)
(7.71182 -6.08891 2.00383)
(10.026 -0.0246967 0.168299)
(10.3964 0.108317 -0.232519)
(10.0947 -0.0853439 -0.248875)
(9.94188 0.129271 -0.155185)
(12.709 0.408558 0.205212)
(10.0218 0.0590548 -0.174407)
(6.50585 -5.98046 1.28724)
(6.1775 0.806103 1.78896)
(6.94624 -7.47265 1.25112)
(9.12674 -0.976489 0.238757)
(9.95486 0.0121864 0.136268)
(10.4714 -0.187368 0.0970773)
(9.92076 0.0389173 0.00313195)
(10.2914 0.189862 0.386374)
(8.76587 -6.62666 2.80358)
(9.13 0.492978 0.594277)
(10.686 -0.25254 0.224559)
(10.0522 0.142814 -0.054767)
(10.5598 0.0541391 0.0675079)
(10.4557 0.194157 -0.473529)
(7.85133 6.02928 1.13629)
(9.83388 -0.126499 0.203708)
(7.40949 -7.51938 2.01919)
(10.0455 0.105688 -0.063819)
(8.3018 -5.87728 2.82635)
(11.2065 0.184041 1.63799)
(8.35921 5.65189 1.332)
(10.2378 0.200398 0.0468436)
(9.3922 0.0776353 -0.0839155)
(9.98422 0.301769 0.268725)
(9.72661 0.180914 -0.174166)
(9.87874 -0.00100028 0.00650729)
(10.2831 0.00537942 -0.0242518)
(10.1586 0.132518 -0.0816254)
(9.82524 0.786558 -0.811584)
(10.6859 -0.190256 2.39505)
(9.65403 0.326492 0.0323778)
(10.4337 -0.259299 -0.169906)
(10.0407 -0.0461232 0.223957)
(9.98597 -0.224639 -0.129119)
(9.7528 -0.171129 -0.0822062)
(10.2001 -0.11212 -0.114187)
(10.04 -0.0208238 -0.0649477)
(10.0949 -0.305981 -0.187048)
(10.0372 -0.0421099 0.29743)
(9.85167 0.526837 0.419456)
(10.1865 0.160719 -0.0662921)
(8.74466 0.0994395 -3.41756)
(10.3378 0.0982028 0.0497469)
(5.47317 1.68033 -0.219525)
(10.3492 0.120169 0.136256)
(10.0328 -0.332126 0.0932797)
(9.94559 0.0243664 -0.111069)
(9.87363 -0.0836133 0.0852908)
(10.0569 -0.00173269 -0.0152942)
(9.97891 0.239548 0.0460523)
(-0.5017 -1.33188 -1.4011)
(10.1111 0.043557 0.00505817)
(10.0301 -0.440722 0.132073)
(10.0858 -0.00997731 0.0807045)
(10.3378 -0.349837 0.129152)
(1.83736 -3.91096 -5.16331)
(10.3334 -0.33829 0.100164)
(4.18083 0.147073 -3.59787)
(10.3578 0.080965 0.31)
(10.4676 0.295686 0.365463)
(10.0836 0.136348 -0.0796174)
(9.93201 -0.183296 -0.0012118)
(10.0264 -0.0444729 0.133217)
(11.3321 0.686711 -0.381763)
(10.0657 0.20981 0.0326041)
(10.143 -0.536263 0.178478)
(10.0221 0.0228651 0.173255)
(9.85564 -0.0457044 0.081606)
(9.88712 -0.15045 -0.368404)
(10.0863 -0.0406415 0.120571)
(9.59083 -0.0546434 0.434798)
(9.88814 0.130653 -0.0884583)
(4.60115 0.137861 1.36032)
(10.3864 -0.0953983 0.175649)
(9.76469 -0.204275 0.0286163)
(11.4713 -0.423433 -0.690986)
(10.7565 0.340404 0.267546)
(10.1844 -0.545045 0.260266)
(10.0447 0.0766395 0.18261)
(10.4574 0.202123 -0.166117)
(10.3745 -0.134882 -0.054399)
(11.4481 -0.157876 -0.159898)
(10.4025 0.00693103 -0.0501545)
(10.0051 -0.682977 0.233438)
(10.0423 0.166351 -0.186507)
(10.0547 -0.0660077 -0.0135232)
(11.5128 0.0561303 0.987323)
(10.2132 0.0971261 -0.0239339)
(10.2311 0.00947201 0.0727334)
(10.0794 0.016818 -0.111086)
(9.9597 -0.650619 0.148863)
(2.97402 -0.280253 -6.04785)
(10.1647 0.145471 0.211516)
(5.84432 0.153739 -10.7364)
(8.94774 -0.975713 -0.375447)
(9.9748 0.0467997 0.00556908)
(10.7248 0.208859 -1.43307)
(7.39802 -3.50204 -2.21933)
(9.94748 -0.214162 -0.708498)
(10.0659 -0.202324 0.15133)
(10.5255 -0.394568 0.160817)
(10.0612 0.0708586 -0.223923)
(9.99483 -0.0581363 -0.143086)
(9.77831 0.319713 0.0225709)
(12.0467 0.118141 -0.0105956)
(1.85184 -1.80792 -1.91971)
(10.0488 -0.00245093 -0.0809788)
(8.31623 5.81532 1.19698)
(10.0787 -0.295157 -0.141063)
(12.0001 0.433447 -3.55986)
(9.25716 5.29972 0.963478)
(10.1129 0.179352 0.00622656)
(10.1881 0.14152 0.0356316)
(9.35107 -0.779636 -0.310951)
(10.5668 0.199863 -0.27751)
(9.39907 -2.69446 -0.853465)
(2.80847 0.84942 -6.88941)
(10.0109 -0.0641945 -0.0247953)
(10.0555 0.0272723 0.0212271)
(10.1125 -0.0879406 -0.0513189)
(2.58539 0.365379 -10.2985)
(10.0031 -0.0267755 -0.0337151)
(9.92535 -0.0594613 0.0275619)
(9.62104 -0.308552 0.0259117)
(10.0261 -0.031505 -0.0509293)
(10.0048 -0.0278316 -0.210712)
(10.175 -0.326167 0.115147)
(5.66304 -0.326037 -0.0157894)
(9.97839 -0.0640064 0.0890985)
(10.0298 0.020683 -0.0747261)
(10.0346 -0.0828214 0.123785)
(9.95984 -0.186704 0.0749595)
(10.9757 0.67715 -1.10463)
(10.0352 0.148146 -0.0330866)
(9.87513 -0.087587 -0.0578672)
(10.5901 -0.219581 0.0428404)
(10.1353 0.0446952 -0.154979)
(10.0682 0.0212237 0.0760019)
(10.6833 -0.266083 0.141961)
(10.0736 -0.0924534 -0.0164171)
(10.1008 0.147276 -0.122461)
(9.99526 -0.158468 0.04635)
(10.0851 0.0475589 0.0066692)
(10.4889 -0.283417 0.0221539)
(10.191 -1.19823 -0.643373)
(10.3108 -0.0828612 0.12634)
(9.86622 -0.046137 0.263388)
(10.5185 -0.206608 0.0254894)
(9.97231 0.185374 -0.141898)
(9.63721 0.313588 -0.0484222)
(10.1148 -0.0179391 -0.265776)
(10.634 -0.0120182 0.0668364)
(10.0831 0.2424 0.0204113)
(10.0584 -0.194644 -0.0695527)
(10.2086 0.0881551 -0.0344848)
(10.6633 -0.340792 -0.128389)
(10.3832 0.110421 -0.022287)
(10.8666 0.0614601 1.13066)
(8.7329 -1.07612 -0.287635)
(10.0555 -0.22985 -0.130667)
(11.1095 -0.258523 2.07149)
(10.5149 0.155734 0.150194)
(9.70675 -0.518812 -0.0934528)
(10.4805 -0.17219 -0.0780346)
(10.2188 0.0293378 0.227749)
(11.0897 -0.477524 2.00133)
(9.96485 -0.0121918 0.0597272)
(10.5562 -0.274803 -0.134417)
(10.6832 0.497758 0.302866)
(11.0086 0.900911 -0.179504)
(10.3909 0.02619 -0.0554611)
(10.0976 0.0254994 0.0966883)
(10.0395 0.0106138 -0.0526665)
(9.99639 0.0404336 0.0812063)
(10.2167 0.213331 0.00570739)
(10.0795 0.123747 -0.0107712)
(11.1287 0.307307 1.73869)
(9.92763 0.0579607 -0.0468345)
(11.3275 0.275539 1.58697)
(10.3509 0.0832561 -0.183177)
(9.86879 0.0457414 0.162872)
(9.73322 -0.172593 -0.0456701)
(9.92394 0.0414673 0.0377982)
(11.1973 -0.0767393 -0.190674)
(10.3362 0.25986 -0.0616806)
(9.72045 -0.0262974 0.193673)
(10.2202 -0.115161 0.170322)
(9.33098 0.439806 -0.186534)
(9.95052 -0.0568893 -0.0421193)
(9.92573 0.000438014 0.03787)
(9.83071 -0.294432 0.117731)
(11.0771 -0.0955316 1.67697)
(9.99593 -0.102916 0.0383173)
(9.95605 -0.224878 -0.0582792)
(9.74277 -0.0136745 -0.0232315)
(10.0391 0.0712696 -0.0490086)
(9.9042 -0.254758 0.0774791)
(10.43 -0.0259514 -0.10999)
(10.5452 -0.159198 0.0847566)
(10.1203 0.0449891 0.0072904)
(10.3568 -0.139197 -0.457503)
(9.95139 -0.0927905 0.123072)
(10.0412 0.143825 0.00853172)
(10.372 -0.144656 -0.0246227)
(11.0289 0.0542257 0.5489)
(9.74926 -0.186919 0.0748205)
(9.93638 -0.0900786 0.0742701)
(11.0894 0.0728529 0.450598)
(9.87056 0.131069 0.218805)
(10.1975 0.131961 0.0334683)
(9.86121 0.114459 0.0192674)
(11.3706 0.374595 1.29627)
(11.0594 0.407812 1.45131)
(10.1243 -0.355044 -0.120893)
(11.217 0.149962 1.49395)
(10.4351 -0.0684909 -0.038864)
(11.283 0.262147 1.38604)
(7.26737 3.01671 2.73362)
(11.02 0.332623 1.47827)
(5.86269 1.00014 -4.55899)
(5.96473 -5.85434 0.897822)
(9.99564 -0.0834148 0.0673564)
(5.60925 -5.90714 0.101033)
(9.85626 0.230861 -0.184904)
(9.86694 0.0701034 0.0300083)
(10.6931 -0.10041 0.0650275)
(9.97115 0.266313 0.118039)
(9.82698 0.00652423 0.0663867)
(9.54367 0.278619 0.334205)
(10.2599 -0.423576 0.083583)
(1.35813 1.49465 -2.9527)
(9.35787 0.635307 0.135738)
(10.0062 -0.0148355 -0.00688687)
(9.85053 0.00406464 -0.0236152)
(9.89434 -0.0682744 0.197009)
(10.9171 0.058455 0.369997)
(11.3735 -0.00793127 -0.224955)
(10.3081 -0.326327 0.157418)
(9.97351 0.0017262 0.0172967)
(11.1581 0.102181 0.425006)
(10.0169 0.120866 -0.248144)
(10.1245 -0.259773 -0.00460457)
(10.0101 -0.363608 0.034711)
(9.95812 -0.179085 0.172544)
(13.8107 2.85625 0.607729)
(9.05637 0.503059 0.774726)
(1.53751 0.944657 -5.65487)
(9.8913 -0.023625 0.14208)
(10.0698 0.12591 0.0120045)
(9.99526 -0.525287 0.0566638)
(9.90737 -0.333292 -0.0359204)
(1.13975 -0.47225 -5.07586)
(10.1297 -0.00772302 0.0107043)
(10.1141 -0.0690761 0.0194623)
(10.2556 2.42086 1.49252)
(9.98093 0.00397186 -0.0945695)
(10.0147 0.00159132 0.063637)
(9.85204 0.161868 0.0812781)
(9.74563 0.222406 0.129074)
(13.7631 0.36783 0.212906)
(10.4517 2.17742 1.44119)
(10.1317 0.0863052 0.186467)
(10.2869 0.369616 -0.112949)
(9.99994 0.192788 -0.137726)
(9.74618 0.168442 -0.414783)
(10.0426 0.109283 -0.0498259)
(10.1312 -0.0799343 0.201675)
(10.0316 0.085403 -0.305454)
(9.94771 0.0132373 -0.096723)
(10.0167 0.103555 0.0396744)
(10.7818 -0.0555965 0.339897)
(12.7116 -2.98495 1.57149)
(10.2696 -0.609089 -1.0345)
(9.9909 0.0645966 0.0911856)
(10.0616 0.0120672 -0.234541)
(9.7196 0.066531 -0.0750783)
(13.0926 -2.41708 1.79172)
(10.0312 -0.160804 -0.189348)
(10.069 0.0192689 -0.0301688)
(10.0411 -0.213487 -0.0477557)
(9.99774 0.0911902 -0.0720753)
(9.98269 0.0181551 -0.0817568)
(10.0983 -0.11636 0.0102663)
(9.76682 0.0254486 0.094576)
(10.1027 -0.0881131 0.281756)
(9.6077 -0.206252 -0.0795999)
(9.89507 0.198379 -0.145806)
(9.76686 0.297332 -0.0691451)
(10.0893 0.149936 0.117839)
(9.94227 0.0558855 0.226205)
(9.99425 -0.00380105 -0.0954143)
(10.3044 -0.495656 0.141955)
(10.0631 0.131118 -0.00669391)
(9.65737 -0.151829 0.0309705)
(9.87278 -0.0184356 0.175335)
(11.0619 -0.691999 0.0856971)
(10.2603 -0.0703957 0.0313465)
(9.49664 0.222611 0.192488)
(9.94057 -0.211889 0.100548)
(10.2857 0.20344 0.0196905)
(10.7245 0.0934379 2.0198)
(10.469 -0.575209 -0.333806)
(10.0388 -0.273769 -0.0392751)
(10.0583 0.195914 -0.0872346)
(10.2362 -0.043335 0.182568)
(10.0651 0.22992 0.0853152)
(10.1684 -0.0340024 -0.13437)
(10.0678 0.0927086 0.0961918)
(10.0484 0.0235855 -0.0634276)
(10.2237 0.518726 -0.01765)
(10.1997 -0.0668165 -0.189267)
(1.31581 -2.84555 -1.39205)
(10.3537 -0.133568 0.0397319)
(10.0451 0.628508 0.0773319)
(10.0199 -0.0720069 -0.00918326)
(10.0497 0.541244 0.0773231)
(9.75132 -0.185322 -0.0538851)
(10.0354 -0.122657 0.0223856)
(9.89369 0.117422 -0.120317)
(9.79337 -0.0332321 -0.0197414)
(9.9632 0.145857 -0.153491)
(10.0761 0.626328 0.0258998)
(10.363 -0.0478738 -0.00244988)
(10.3276 0.0859511 0.0416346)
(9.83491 0.0396078 0.0490021)
(10.2078 0.100531 0.0571297)
(10.1914 -0.0977597 -0.13288)
(10.1875 0.227592 0.0275592)
(10.2385 -0.104526 -0.141875)
(10.1215 -0.125262 -0.0627829)
(10.2081 0.801574 -0.153189)
(10.1652 0.962284 -0.205127)
(10.2644 -0.0056361 0.0352673)
(10.3846 0.0102017 0.178594)
(10.1265 -0.0924788 -0.175977)
(10.1546 0.75161 -0.134316)
(10.2175 0.0291586 0.0124195)
(10.0531 -0.0435908 -0.139124)
(11.3366 -0.710614 -0.638429)
(9.88468 0.0170506 0.00433864)
(10.2723 -0.703349 1.80081)
(10.1183 -0.0663477 0.0187266)
(10.5964 -1.90581 -3.63447)
(9.90732 -0.0460053 -0.122654)
(10.5732 0.103541 0.150964)
(9.90163 0.344646 -0.352894)
(9.92894 0.0442112 -0.0693346)
(9.8629 -0.0446797 0.0597877)
(10.1129 -0.0127342 -0.0510064)
(10.2384 0.117409 -0.0534177)
(10.154 0.864737 -0.137291)
(3.30549 -2.11756 0.786739)
(2.44445 -0.426037 -2.0064)
(10.2147 0.167788 0.217281)
(10.1334 1.34143 -0.65611)
(10.4904 0.557987 -0.314688)
(10.5896 0.518223 -0.264649)
(9.98764 -0.132725 0.0899496)
(9.90446 0.0807028 0.15916)
(10.0959 0.0762839 -0.0693847)
(9.92575 0.0207963 -0.0407099)
(9.96252 -0.0807017 -0.0316612)
(10.0168 0.0624994 -0.121264)
(10.5688 0.51853 -0.206773)
(10.0587 -0.0960966 -0.0549388)
(9.9217 -0.0317049 -0.174272)
(10.3797 -1.17786 0.514496)
(11.0467 0.478872 -0.0417525)
(10.7515 0.361294 0.125723)
(8.04898 -1.14008 -4.53939)
(0.141117 5.21254 -0.137228)
(10.1068 -0.189815 -0.00904647)
(7.39104 -0.795233 -5.01421)
(0.407204 4.49731 0.222191)
(9.63867 0.132515 0.0911822)
(-0.0123393 5.41277 0.0270504)
(9.11732 -1.65095 1.66949)
(9.93572 -0.210585 -0.000547003)
(10.7222 0.580861 -0.211926)
(10.6758 0.60682 -0.24713)
(10.9075 0.530847 -0.118828)
(-0.644287 5.03764 -0.0376659)
(10.1167 0.0878217 0.0144128)
(10.0744 -0.144158 -0.0545777)
(10.039 0.0132633 0.1044)
(10.9867 0.585171 -0.188947)
(10.8866 0.605881 -0.258927)
(10.1041 0.0694223 0.0367326)
(9.97728 0.0593926 0.0149552)
(9.79884 3.54233 2.98197)
(-0.801951 4.1654 -0.722007)
(12.4847 -0.30577 -2.46963)
(10.1305 -0.00728508 -0.0245842)
(8.75576 -0.56364 -2.81565)
(10.1966 0.340628 0.633795)
(10.216 -0.191351 0.0675901)
(10.5965 0.256036 0.0699346)
(11.2652 0.248291 0.273679)
(10.5932 0.213024 -0.00446838)
(10.2789 -0.00210311 -0.0097875)
(10.0371 -0.00496771 -0.0315929)
(9.95463 0.106225 -0.088163)
(10.3751 0.199635 -0.131969)
(9.95971 -0.024488 0.0135075)
(9.99053 -0.155323 0.105451)
(10.019 0.101939 0.146081)
(9.95316 0.330243 -0.0370497)
(10.6882 0.0132317 0.0721101)
(9.99275 -0.0865349 0.0568631)
(10.0781 0.0405541 -0.207549)
(10.1948 0.0666335 -0.0332224)
(10.0325 -0.0301204 -0.115039)
(9.74816 -0.184188 0.172593)
(10.2881 0.154389 -0.0653341)
(10.2901 -0.090624 -0.0466416)
(9.82342 0.0348282 -0.123962)
(10.6558 0.0741247 0.0215327)
(9.35599 4.30571 2.41972)
(9.85915 -0.138376 0.0143716)
(11.5752 1.43903 -0.925583)
(10.059 0.0566268 -0.122053)
(10.3927 -0.182351 0.0582761)
(9.4751 -0.172865 1.44539)
(9.66585 1.2591 -0.427816)
(10.0174 -0.0334575 -0.00981975)
(9.7625 1.30874 -0.482148)
(10.1846 -0.0127826 -0.26015)
(9.76484 -0.121766 0.0579322)
(9.88973 1.20828 -0.755746)
(10.0731 0.324067 -0.586865)
(10.1637 -0.247176 0.0186019)
(9.78701 1.07547 -0.500802)
(10.2451 -0.0405243 -0.0461864)
(10.45 0.0031188 -0.195388)
(8.23728 0.190838 -3.54046)
(10.0578 0.026248 0.0400737)
(9.65378 1.64586 -0.380245)
(9.82333 -0.180087 0.00317184)
(9.05795 1.85035 -0.735553)
(10.1035 -0.214421 0.00732987)
(9.90676 -0.1314 0.0327202)
(9.94323 0.160807 -0.0124122)
(10.1574 0.0309526 0.0538385)
(10.9945 0.364945 0.566624)
(9.88791 0.116586 -0.0231627)
(10.0649 0.0246872 -0.0272232)
(9.9327 -0.0374825 0.00302518)
(10.1433 0.120236 0.0114295)
(10.7702 0.160321 0.121757)
(10.1108 -0.0152959 0.0952195)
(9.99756 -0.0107916 0.0485921)
(8.8229 0.222501 -0.311377)
(10.1371 0.00822709 -0.0143558)
(9.94422 0.0786156 0.0322341)
(9.8742 0.00827406 -0.0830955)
(9.8443 0.092399 -0.0837956)
(10.1146 0.0216167 0.164162)
(9.98005 0.0815489 -0.0518436)
(10.0205 0.0436108 -0.226379)
(10.1338 1.23455 -0.863386)
(10.1951 -0.0578356 -0.00894497)
(9.79031 -0.0222903 -0.242716)
(2.95543 -0.261288 -5.06429)
(9.9616 0.0303678 -0.11946)
(10.0575 -0.0818751 -0.0302543)
(9.99219 -0.122623 0.0844817)
(10.1259 -0.00229636 0.0294063)
(12.2434 0.707945 0.323033)
(12.2961 0.327003 0.638435)
(10.0097 0.114115 0.344897)
(9.80731 0.113883 -0.0282549)
(10.1943 -0.0808852 -0.318355)
(10.7407 0.0600216 0.825765)
(9.8624 -0.111616 0.0522641)
(12.3119 1.13576 0.261039)
(9.85602 -0.337046 0.0914516)
(-0.865134 -1.32874 3.47117)
(8.07161 -0.296698 -0.41985)
(9.85071 -0.591563 2.09542)
(9.75603 0.0904347 -0.15934)
(12.2308 1.00131 0.333892)
(9.99042 -0.0392968 -0.0283936)
(10.042 0.0795248 0.104133)
(10.1323 0.112345 -0.0514117)
(10.1416 0.00814928 0.170778)
(10.0343 -0.0725388 0.000541558)
(9.9481 -0.0882321 -0.151711)
(10.1767 0.739908 0.959623)
(9.97439 -0.00674497 0.101415)
(10.205 0.23042 -0.137905)
(10.1202 0.125147 -0.0733077)
(12.1978 0.627697 0.301518)
(10.1002 -0.0635488 0.0466308)
(9.93547 -0.072144 -0.0110118)
(12.0413 0.771987 0.178736)
(11.799 0.0776169 0.378624)
(10.0415 -0.0258755 -0.140217)
(9.97473 -0.00257853 -0.0753838)
(-0.219631 1.48264 1.07691)
(9.73513 0.0352616 0.0517599)
(10.1575 -0.21857 0.0698944)
(10.0504 0.145896 0.0783837)
(9.9893 0.00567144 0.139522)
(10.118 -0.0243874 -0.00336076)
(11.5744 0.266026 0.10742)
(10.6339 0.0913442 0.923177)
(9.61035 0.469349 1.00723)
(10.1166 -0.0704625 -0.120458)
(10.0701 0.135118 -0.0296803)
(9.89305 -0.16724 0.072164)
(12.3216 -0.0437924 1.32221)
(9.43098 0.163223 -0.228654)
(10.0127 -0.119263 0.254295)
(-0.288782 1.10457 0.988083)
(10.1919 0.0289914 0.0533273)
(10.1213 -0.00755441 -0.0198986)
(-1.06613 1.17093 1.27054)
(11.8555 1.82891 -0.823298)
(9.87019 0.0625356 0.100953)
(0.10195 1.07144 0.448417)
(-0.0937156 1.463 0.92448)
(9.98362 0.0139019 0.0355135)
(10.0083 0.300973 0.228622)
(9.97783 -0.0540082 -0.128173)
(9.71391 -0.197431 0.220174)
(10.1987 -0.254393 0.0686979)
(9.77145 -0.122712 0.131451)
(12.3709 3.72535 0.898549)
(10.18 0.254742 0.11967)
(10.16 0.21031 0.00484182)
(10.0929 0.0427253 -0.109509)
(12.0907 -0.233967 0.381103)
(11.5493 0.601241 0.0901746)
(10.3639 -0.317281 -0.229617)
(10.2629 0.149348 0.0316391)
(-2.60369 -2.5182 -0.301589)
(6.35416 -1.12084 -2.59895)
(10.6426 0.179332 -0.065721)
(10.0264 -0.0920613 0.156033)
(10.0627 -0.182459 0.000339046)
(10.7643 -0.118715 -0.520135)
(10.0792 -0.117541 -0.26557)
(9.99498 0.0595487 -0.320927)
(10.1423 -0.216827 0.0298221)
(10.2633 -0.00342509 0.219939)
(10.1182 0.0521641 -0.169035)
(10.3301 0.234839 0.131634)
(10.2616 -0.0944691 0.247651)
(12.3408 0.707973 -0.309448)
(10.107 1.40588 -0.903126)
(10.5383 0.189939 -0.0784362)
(12.4188 0.878257 -0.580151)
(10.619 -0.0158608 -0.0329142)
(9.85731 0.106545 0.172531)
(10.6072 0.629277 0.141175)
(10.141 0.134337 -0.0158451)
(10.1577 0.208225 0.269408)
(10.1599 0.0304895 -0.0989654)
(10.1533 0.600123 -0.262684)
(8.0503 -0.520373 -0.970932)
(10.0892 -0.0955201 0.0532048)
(10.422 0.172677 0.0415772)
(9.96261 -0.116114 0.118936)
(14.123 -4.94472 -1.43792)
(10.6838 -0.372216 0.70072)
(10.9324 0.0319518 0.664895)
(6.53536 1.24504 0.549241)
(6.28277 1.23663 0.401893)
(10.0326 0.145124 0.0252967)
(9.96609 0.237843 0.405209)
(5.09396 1.0027 -0.197002)
(9.98521 -0.0711083 0.00151363)
(9.88235 -1.56653 -2.98145)
(10.256 0.323889 1.19953)
(9.79885 -0.132173 -0.327407)
(10.1176 1.35164 1.21229)
(9.99779 0.0390865 -0.0258055)
(9.96134 0.12255 -0.0136667)
(10.1409 -0.109015 0.122396)
(12.6124 0.284601 0.114111)
(9.69815 -0.0293718 0.340242)
(9.88804 -0.35236 0.0451743)
(10.0345 -0.0520411 0.00373917)
(10.1272 0.380874 0.132666)
(9.93276 0.0457504 0.0548351)
(9.98749 0.0202231 0.0431446)
(10.0964 0.0770959 -0.00191818)
(9.87439 0.0859262 0.0492388)
(11.1982 0.349687 0.428901)
(9.81741 2.28006 -3.25211)
(14.4196 1.54602 -0.132635)
(10.5117 0.193876 -0.0365212)
(10.0617 1.00144 1.35349)
(10.3069 0.048318 0.0806004)
(9.39426 -0.759644 0.270529)
(10.2255 -0.145274 -0.0407641)
(10.0345 0.343041 0.106476)
(10.2075 0.0749582 0.0641077)
(10.1058 -0.0064128 -0.0347581)
(9.99865 0.0195475 0.265289)
(9.2244 0.271467 -0.698486)
(11.295 0.131759 0.169937)
(10.2083 -0.0550101 0.103362)
(10.2799 -0.228792 0.0806354)
(12.0148 0.772754 1.38936)
(9.94154 0.0190697 0.0640761)
(7.39174 -4.82423 2.86322)
(12.6695 -0.844107 -2.32981)
(9.79177 -0.0582335 0.0483563)
(9.58152 -0.27121 0.254318)
(10.4374 -0.274473 0.312311)
(10.0783 0.0811814 -0.0397356)
(8.11923 -2.38195 2.76484)
(9.99185 -0.147036 0.0190347)
(9.92927 -5.5242 1.06879)
(10.1203 0.182317 0.058885)
(10.9057 -0.00913084 0.788009)
(11.3923 0.389217 0.0769574)
(10.0401 -0.0471186 -0.0809746)
(9.89717 0.122138 -0.0878703)
(10.4772 0.222415 -0.196507)
(8.70435 -0.495612 -1.79842)
(9.58571 0.0157781 -0.147786)
(10.0769 0.234728 0.283838)
(10.184 -0.0154218 0.149552)
(11.3813 -0.0227482 0.668717)
(9.94387 -0.0517374 -0.00137881)
(11.5323 0.355202 0.363601)
(10.2581 -0.035207 0.0730567)
(5.18806 4.70231 1.68551)
(11.326 0.328655 0.144631)
(10.2257 -0.0195518 0.115466)
(11.3818 0.326617 0.268929)
(10.1484 0.00691722 -0.155945)
(10.1766 0.120142 0.114016)
(10.2893 0.19392 0.16565)
(10.1537 0.12989 -0.0164669)
(11.5803 0.407536 0.24062)
(9.94664 -0.0367405 0.0551902)
(10.1493 -0.309809 -0.0426739)
(11.4422 0.37717 0.125003)
(10.0446 0.103206 0.16505)
(10.1774 0.0809088 -0.0945067)
(9.94237 0.073056 0.0318158)
(9.9815 0.0102756 0.00560449)
(6.82302 0.216599 -4.49149)
(6.6974 -0.282703 -5.00896)
(10.2228 0.0807342 0.424109)
(8.80822 0.277041 -3.62478)
(9.87089 0.123067 -0.0341075)
(9.8529 0.00299193 -0.111318)
(10.5549 0.468915 -0.185802)
(10.0602 -0.261796 0.155302)
(9.80545 0.0400573 0.252498)
(10.3119 -0.0190968 0.0890911)
(10.0629 -0.176024 0.0477179)
(9.9919 0.140843 -0.100457)
(10.0432 0.136366 -0.281154)
(5.20891 -0.023014 -5.6127)
(7.69502 -0.816617 0.703113)
(9.95567 0.151008 -0.0714411)
(9.93801 0.0299245 -0.140227)
(9.83942 -0.13708 -0.0328472)
(10.1258 -0.0536286 -0.0137515)
(9.88312 -0.0401414 -0.107237)
(10.0957 0.193253 -0.0458416)
(10.6666 -0.258286 0.154072)
(10.9022 -1.56054 2.17921)
(10.0649 0.0750084 -0.0544797)
(9.83056 -0.280576 0.293551)
(10.2608 0.10712 0.0395147)
(10.0057 -0.0173284 0.170841)
(9.90805 0.0921393 -0.0324881)
(10.1858 -0.0237122 -0.0103911)
(10.2009 0.00384902 0.0087582)
(10.0624 0.0233206 -0.00787156)
(10.0122 -0.121389 -0.221093)
(10.2022 -0.195748 0.0903106)
(9.28138 -0.779152 -0.876298)
(5.08921 0.520054 -4.07971)
(9.93019 0.0668373 -0.139623)
(-0.470579 -1.00598 1.0888)
(9.6893 -2.21347 1.14548)
(12.5952 -1.13854 -0.680429)
(-0.0678867 -1.07553 0.650771)
(10.0753 0.277041 -0.0905807)
(9.37067 -0.04681 1.08125)
(10.2854 -0.405563 -2.16888)
(10.8837 -0.90646 0.421444)
(5.72006 0.328577 -3.10177)
(0.140985 0.995887 2.02918)
(1.36711 0.338155 -2.68395)
(10.8659 0.0245904 0.52345)
(10.2888 0.0829489 0.0353486)
(10.9009 -0.0342537 1.09152)
(10.1921 -0.0680129 0.219995)
(4.0476 -0.196884 0.354381)
(10.6211 0.0151805 -0.250636)
(10.4464 0.0162644 -0.0392308)
(9.90453 -0.0604369 -0.0353096)
(10.2166 -0.0365876 0.0223995)
(10.7975 0.093263 0.773666)
(9.51046 -0.0499363 -0.371736)
(10.2337 0.203611 -0.116537)
(10.0737 -0.0216478 -0.215108)
(-2.5504 0.457457 0.262924)
(8.17026 0.21647 -2.00076)
(10.3276 -0.0340498 -0.138518)
(10.0658 -0.187663 -0.0653376)
(5.32101 0.407406 -1.68708)
(6.04956 0.179203 -2.39365)
(9.82162 0.511223 -1.56026)
(-0.0867629 -2.98785 -0.959163)
(7.64797 0.539075 0.75858)
(4.57185 0.286408 -3.10691)
(4.24867 0.211481 -4.00102)
(10.2056 0.085122 -0.0284182)
(9.91913 0.0529082 -0.254357)
(9.63866 -0.053456 0.155062)
(9.89241 -0.0603763 -0.0565298)
(10.3048 0.0138008 -0.140354)
(-0.31056 1.60284 1.19043)
(10.7053 -0.0191168 -0.187771)
(10.3911 0.00842581 0.0284978)
(10.2354 -0.0503713 -0.083434)
(10.0819 -0.0305664 -0.0623992)
(-0.266674 1.39567 1.49788)
(0.207585 1.19486 1.75004)
(9.71589 -0.11322 0.164069)
(10.2264 -0.0701625 0.118138)
(9.94792 0.0127879 0.00576519)
(9.95962 0.000829746 0.0688145)
(10.242 -0.145789 0.0524323)
(10.0248 0.000883152 -0.00206582)
(9.72677 -0.00805105 -0.00321)
(10.0472 -0.0297414 -0.00832867)
(9.95402 0.0471992 -0.0145377)
(6.84664 -0.512741 -2.50459)
(9.77439 0.0654565 -0.0973549)
(9.93103 0.0514331 0.0295283)
(9.95445 -0.171991 0.207033)
(10.1424 0.151794 -0.0237014)
(10.0239 -0.00537684 -0.0150719)
(4.12045 -0.42463 -1.77634)
(12.1666 -1.07437 0.117444)
(9.92423 -0.0415583 0.0677119)
(10.4746 0.437 -0.17083)
(10.0553 -0.059232 -0.129676)
(9.71538 -0.386639 0.243464)
(9.62182 -0.323824 0.353353)
(11.4754 0.00933374 -0.0155666)
(10.0252 0.0180147 0.0270369)
(-1.38282 0.548357 3.39815)
(11.6942 -0.0847867 0.029953)
(10.2784 0.0713454 -0.0392362)
(10.478 0.188095 -0.0619281)
(8.08527 0.260184 -2.86182)
(14.7566 0.500372 -0.328239)
(10.0045 -0.0551878 0.133708)
(10.0814 -0.0492281 0.130641)
(12.4146 1.00339 1.41564)
(9.84026 0.111769 -0.288074)
(10.0786 -0.0596701 -0.0399112)
(11.1291 0.168039 0.362523)
(10.0289 0.0148185 0.0567647)
(9.79549 0.168433 -0.106265)
(2.93012 -1.3435 -3.21443)
(11.8208 -0.642007 0.516974)
(13.7982 1.79953 0.812982)
(10.0911 0.00729101 0.0216895)
(7.78053 0.369611 -2.11837)
(10.0085 -0.273804 0.0254418)
(11.0023 -0.970773 -0.199974)
(9.60645 -0.295515 0.489132)
(11.535 -0.0180816 0.0123987)
(10.2986 0.472648 0.0875309)
(9.51112 -0.274485 0.484144)
(5.12791 1.12487 -2.15408)
(12.5807 1.07932 1.80143)
(11.8495 -0.296164 -0.654008)
(-1.5329 1.31368 2.32062)
(11.4238 0.14582 0.246027)
(10.2584 -0.0537487 0.0983763)
(10.47 0.110122 -0.0552568)
(11.233 0.982287 -0.132217)
(9.95495 0.0652402 0.241466)
(11.6917 -0.029327 0.192383)
(0.372385 -0.899977 1.97436)
(9.95475 0.117449 0.193503)
(12.2137 0.0240198 -0.866902)
(9.83794 -0.0881363 0.00234623)
(9.74545 -0.0758885 -0.0919495)
(11.4059 -1.88139 2.00787)
(9.94495 -0.103191 -0.221783)
(10.1222 -0.0322542 0.10974)
(8.7748 -5.53779 0.662087)
(9.60542 0.396361 0.062969)
(9.69096 -0.23527 0.075698)
(11.8715 -0.671389 0.439857)
(10.0063 0.984471 1.11795)
(10.0007 -0.107827 -0.0703976)
(11.9106 -1.7859 -0.211673)
(5.57553 -0.600922 0.460868)
(10.3071 0.0957653 0.241658)
(9.58345 -0.646353 -0.553484)
(10.0861 -0.0460881 0.139761)
(10.0855 0.185732 0.0790089)
(10.1251 -0.272563 -0.305058)
(10.2275 -0.162839 0.107651)
(6.09897 1.14648 -2.08995)
(-0.440041 0.458749 -0.0407641)
(11.096 0.278595 -0.700724)
(9.72673 -0.720105 -0.0433155)
(10.8495 -1.95453 0.0486032)
(5.0938 3.94101 -1.38155)
(3.60609 0.051136 -1.08888)
(10.6177 -3.19018 4.31401)
(10.1667 -0.00927052 0.0648415)
(10.0502 0.228975 0.0299139)
(9.60385 -0.0240818 0.262153)
(10.0419 -0.0301445 0.104555)
(8.00772 0.33943 -0.54977)
(9.60879 -0.408592 0.371281)
(9.47432 -0.391172 1.31995)
(9.74771 0.325942 0.407628)
(-1.37407 -0.750846 0.434726)
(11.6459 -0.0293226 0.063686)
(9.93528 0.383555 0.0449552)
(10.2503 -0.010673 -0.0437856)
(10.0149 -0.0123043 -0.0434792)
(10.2879 0.0206132 -0.334711)
(6.2435 -1.62802 -2.71914)
(10.0027 0.196811 0.183539)
(7.31059 4.99109 -0.520077)
(10.0413 -0.0557722 -0.0131026)
(10.0685 -0.46883 -2.60728)
(10.1081 -0.0336287 0.0517505)
(10.2426 0.0281129 0.0708762)
(10.2497 0.129485 0.343279)
(10.3375 0.0767861 0.113421)
(9.72195 0.0760991 -0.243046)
(12.5387 -0.177051 -0.507344)
(11.9449 0.00018308 -0.159192)
(9.40263 0.982913 2.65558)
(7.72641 3.84967 2.7997)
(9.58536 0.894687 0.623526)
(10.1984 0.442349 0.0240414)
(11.0476 0.446234 0.204042)
(6.39748 -0.168498 -2.43134)
(10.2225 -0.0871849 0.00280932)
(10.143 0.0125097 0.0744807)
(10.0119 -0.309248 0.133189)
(11.3964 0.0181823 -0.0526594)
(10.6943 0.33083 5.0195)
(8.63973 -0.307486 1.2143)
(10.1855 -0.236603 0.114006)
(10.0139 0.273007 0.0155904)
(9.59325 0.78748 -0.181443)
(10.192 -0.0863979 0.00346007)
(10.0825 0.203987 -0.0339959)
(14.8007 -1.54126 1.11944)
(11.7143 -0.428191 0.828909)
(1.67101 3.95643 -0.767321)
(10.1899 -0.488145 0.293453)
(11.4052 -0.732522 -0.130411)
(10.3117 -0.912146 -0.903315)
(12.88 0.0391762 -3.08195)
(9.93331 -0.0623982 0.305048)
(0.639971 -0.52983 -3.13579)
(10.1589 -0.0549497 -0.185338)
(10.0553 0.0640801 -0.12748)
(10.682 -0.203071 0.811296)
(11.8381 0.427739 5.18222)
(10.0775 -0.0873288 0.138)
(9.98995 0.252659 -0.407516)
(10.1151 -0.176064 -0.00234014)
(10.6745 -0.76328 0.662974)
(10.7342 0.0436432 1.03411)
(10.1 0.0410824 -0.0791041)
(10.7963 -0.297107 -2.60846)
(9.80576 -1.00564 -2.70952)
(12.5272 0.0208085 -0.125708)
(10.1374 0.312536 -0.158662)
(9.6083 0.220633 0.0905909)
(3.25551 0.656874 -3.07456)
(1.11545 -1.07763 3.68895)
(5.62763 2.96578 1.1275)
(12.664 -0.707402 -2.19936)
(6.59405 -0.332504 -0.105599)
(10.0319 -0.0251736 -0.0694862)
(10.0222 0.197089 -0.138348)
(8.76159 1.3083 3.10358)
(10.0122 -0.219483 0.130423)
(4.72433 -0.5082 0.467858)
(9.94098 -0.191352 -0.216899)
(9.93047 -0.0375308 -0.138134)
(-3.66531 3.30452 -0.310758)
(9.76171 -0.902625 0.922017)
(10.6845 -0.174757 0.13664)
(10.0853 -0.163 0.168442)
(9.24327 0.126074 -0.0671664)
(8.35832 0.256209 -2.38366)
(9.91579 0.270604 0.262148)
(9.9994 0.0597283 0.0736277)
(10.2785 0.418545 0.918368)
(11.9528 -0.628003 -2.37313)
(10.2686 0.21567 0.162614)
(9.8842 0.215064 -0.143367)
(9.76599 -0.182574 -0.034544)
(9.84944 0.256526 -0.279241)
(9.81038 -0.0566527 -0.142455)
(11.5287 -0.639578 -1.531)
(11.1025 -0.137544 -0.135694)
(8.6458 0.00640678 0.350992)
(9.82141 -0.686059 0.542226)
(9.70008 -0.128733 -0.070844)
(9.93859 -0.226238 -0.0380792)
(9.7325 -0.0233087 0.247843)
(9.7838 -0.107414 0.152525)
(10.3797 0.662662 0.348027)
(11.4863 -0.909201 -0.22502)
(13.7779 -0.205305 2.03636)
(11.0619 -0.0419105 0.420451)
(11.4758 -0.500642 -1.0831)
(10.1359 -0.139965 -0.420892)
(1.85057 -3.53775 -2.15144)
(9.81871 -0.0558634 -0.115342)
(9.89484 -0.175634 -0.174015)
(9.88881 -0.101541 0.00931295)
(12.9534 -0.735981 2.42184)
(-0.78215 2.89186 0.385645)
(5.40528 5.20738 -1.28572)
(-0.435648 1.50439 0.639942)
(10.0792 -0.396054 -0.276163)