/*--------------------------------*- C++ -*----------------------------------*\
| =========                 |                                                 |
| \\      /  F ield         | OpenFOAM: The Open Source CFD Toolbox           |
|  \\    /   O peration     | Version:  2506                                  |
|   \\  /    A nd           | Website:  www.openfoam.com                      |
|    \\/     M anipulation  |                                                 |
\*---------------------------------------------------------------------------*/
FoamFile
{
    version     2.0;
    format      ascii;
    arch        "LSB;label=32;scalar=64";
    class       volScalarField;
    location    "0.00482047";
    object      k;
}
// * * * * * * * * * * * * * * * * * * * * * * * * * * * * * * * * * * * * * //

dimensions      [0 2 -2 0 0 0 0];

internalField   nonuniform List<scalar> 
47425
(
0.376041
0.393192
0.38406
0.389429
0.394502
0.387567
0.398723
0.386019
0.390216
0.426324
0.378397
0.385947
0.390449
0.380078
0.385214
0.379316
0.380059
0.414197
0.570552
0.413906
0.385182
0.385272
0.378442
0.378481
0.385438
0.386387
0.388871
0.571372
0.392055
0.391862
0.401009
0.380097
0.398925
0.384939
0.378904
0.380165
0.379877
0.400222
0.40672
0.387745
0.381919
0.377785
0.38344
0.384414
0.597574
0.38475
0.378503
0.389853
0.400943
0.383441
0.469806
0.386868
0.39151
0.4566
0.381331
0.384181
0.376835
0.40291
0.40281
0.399603
0.456592
0.701602
0.487655
0.392609
0.394296
0.390018
0.387147
0.379507
0.491059
0.395453
0.389598
0.391737
0.385341
0.383741
0.473732
0.385695
0.508814
0.387504
0.531164
0.399274
0.489563
0.384249
0.385456
0.384297
0.384447
0.382601
0.379953
0.374591
0.381684
0.420021
0.389742
0.379879
0.390367
0.380718
0.383934
0.386971
0.381259
0.378961
0.393902
0.379956
0.374795
0.426723
0.382783
0.435123
0.381718
0.392719
0.389883
0.377462
0.376488
0.391291
0.418513
0.372598
0.386896
0.383871
0.396829
0.512865
0.397672
0.475982
0.38673
0.389054
0.379161
0.399208
0.381658
0.39391
0.400572
0.386239
0.377104
0.384232
0.375258
0.386415
0.384275
0.384665
0.446925
0.38082
0.388684
0.400637
0.387554
0.384178
0.390753
0.381337
0.385036
0.385527
0.383898
0.386018
0.385576
0.391098
0.383563
0.377404
0.377964
0.381738
0.385508
0.530298
0.391879
0.546862
0.385316
0.381983
0.387531
0.571152
0.383782
0.378786
0.387927
0.378726
0.387836
0.386466
0.416103
0.53913
0.373264
0.480657
0.394759
0.547188
0.487105
0.387623
0.383041
0.38639
0.381281
0.412291
0.550871
0.379836
0.385936
0.374799
0.527249
0.384463
0.390044
0.398025
0.382012
0.376324
0.380045
0.412755
0.392721
0.379091
0.395776
0.392561
0.40874
0.392196
0.374461
0.382527
0.394487
0.372921
0.3849
0.381581
0.383749
0.407733
0.385727
0.383823
0.388255
0.38308
0.389715
0.384923
0.378643
0.414075
0.385995
0.388365
0.386812
0.394145
0.385023
0.391999
0.39218
0.396795
0.386848
0.381248
0.409093
0.393227
0.381651
0.403495
0.390474
0.403862
0.381667
0.397544
0.389295
0.393511
0.393211
0.38101
0.380935
0.379551
0.381396
0.377248
0.400893
0.385768
0.398457
0.376475
0.383083
0.389565
0.381804
0.392286
0.386608
0.414643
0.373803
0.411601
0.375545
0.395149
0.383824
0.398784
0.382434
0.39211
0.39433
0.387407
0.383747
0.395289
0.381754
0.399722
0.38755
0.388452
0.385083
0.381294
0.391443
0.382415
0.374853
0.391761
0.388193
0.390578
0.391048
0.395666
0.396293
0.395434
0.398789
0.391815
0.397597
0.461077
0.3977
0.48058
0.449524
0.376775
0.433487
0.383806
0.383089
0.393034
0.378383
0.37624
0.381573
0.394452
0.474404
0.39874
0.387993
0.379115
0.382249
0.386155
0.387778
0.399488
0.377711
0.38952
0.381193
0.391118
0.375593
0.380505
0.561734
0.606145
0.51692
0.37345
0.377007
0.395779
0.374331
0.470561
0.385016
0.377177
0.410795
0.384741
0.381389
0.385011
0.383673
0.479205
0.407987
0.386671
0.381724
0.373909
0.381206
0.373378
0.392724
0.381156
0.380163
0.39045
0.389348
0.52068
0.384919
0.378045
0.385211
0.388811
0.526513
0.380928
0.373241
0.392024
0.401143
0.396397
0.378273
0.379579
0.379858
0.39398
0.401316
0.389353
0.381839
0.382364
0.398145
0.393145
0.377761
0.385652
0.389158
0.393748
0.383779
0.391595
0.392267
0.383555
0.40725
0.389143
0.38188
0.382487
0.392356
0.382332
0.387205
0.392774
0.380274
0.392928
0.384999
0.482195
0.373293
0.380419
0.381689
0.380697
0.383187
0.382084
0.397116
0.38232
0.390134
0.385187
0.379082
0.382836
0.376024
0.386024
0.386427
0.386169
0.394111
0.387477
0.37956
0.388722
0.385094
0.393038
0.380722
0.382512
0.376599
0.380769
0.397222
0.38504
0.427408
0.377798
0.413921
0.379703
0.387356
0.384335
0.378175
0.379201
0.373227
0.390916
0.38617
0.667729
0.500508
0.398238
0.39089
0.393936
0.395076
0.388654
0.380876
0.39269
0.384082
0.396416
0.389326
0.385464
0.386543
0.379484
0.387271
0.388737
0.381805
0.44752
0.321615
0.390076
0.511076
0.393546
0.380751
0.438107
0.449086
0.386086
0.387285
0.385473
0.386192
0.467252
0.385164
0.378175
0.380342
0.385709
0.387635
0.392521
0.374919
0.444904
0.434053
0.432475
0.387577
0.414106
0.383381
0.389938
0.384907
0.387624
0.384616
0.384689
0.388422
0.387406
0.405601
0.384485
0.387724
0.385142
0.380354
0.38725
0.386612
0.393244
0.385897
0.384195
0.378663
0.382066
0.399146
0.383061
0.385718
0.447555
0.373176
0.405882
0.391833
0.389986
0.388147
0.392583
0.382274
0.39337
0.386597
0.392243
0.391604
0.382966
0.381263
0.391415
0.386183
0.383453
0.430092
0.388054
0.396426
0.376042
0.397791
0.373878
0.398352
0.377813
0.390884
0.38645
0.385299
0.389215
0.379376
0.379376
0.390497
0.381337
0.382276
0.389421
0.387733
0.380145
0.382937
0.379032
0.392319
0.381175
0.398636
0.390192
0.381096
0.392329
0.505789
0.392914
0.386247
0.379397
0.386841
0.416997
0.416759
0.380805
0.389658
0.37928
0.390544
0.390411
0.419886
0.393705
0.520277
0.397472
0.396432
0.407275
0.415953
0.382936
0.376751
0.382352
0.385944
0.396195
0.387067
0.615278
0.378986
0.384665
0.387425
0.411401
0.400038
0.402146
0.40752
0.402154
0.388162
0.384648
0.38854
0.381661
0.377548
0.389229
0.379772
0.379834
0.402377
0.391876
0.40676
0.385685
0.38003
0.378751
0.429786
0.393359
0.376039
0.386432
0.38533
0.401697
0.399275
0.460078
0.380966
0.28255
0.289865
0.381384
0.399737
0.379028
0.391399
0.381631
0.380646
0.475672
0.415625
0.388561
0.389605
0.406731
0.402919
0.383588
0.379943
0.412148
0.396445
0.39074
0.380923
0.386194
0.387421
0.38232
0.384895
0.384471
0.390926
0.38639
0.398764
0.382696
0.402243
0.393151
0.384813
0.410927
0.377828
0.382658
0.377804
0.379759
0.382305
0.391284
0.386717
0.397096
0.394835
0.386634
0.388051
0.735737
0.386555
0.392557
0.448746
0.454355
0.372397
0.381717
0.457742
0.385004
0.422
0.413546
0.385913
0.447856
0.394435
0.371602
0.386672
0.395025
0.386064
0.390994
0.379987
0.386805
0.383556
0.382057
0.387397
0.385807
0.384346
0.41296
0.549839
0.385864
0.393939
0.383024
0.387179
0.382257
0.384907
0.382791
0.397286
0.389734
0.390153
0.389363
0.381209
0.390446
0.414707
0.386909
0.562836
0.446863
0.388855
0.38998
0.388646
0.37729
0.577999
0.389359
0.477338
0.389284
0.392749
0.387402
0.37471
0.38164
0.386308
0.421562
0.400348
0.378591
0.391495
0.385733
0.392093
0.388229
0.375426
0.558233
0.387752
0.384362
0.387118
0.389929
0.381024
0.385914
0.379034
0.388983
0.373679
0.391477
0.3875
0.395376
0.373733
0.388939
0.380155
0.441028
0.480043
0.384517
0.428657
0.387137
0.381305
0.390162
0.376491
0.389503
0.396115
0.38082
0.378153
0.387168
0.519716
0.408409
0.379014
0.380301
0.383205
0.379059
0.37522
0.377054
0.385292
0.420775
0.381322
0.376922
0.385285
0.382401
0.374111
0.398569
0.384757
0.386033
0.386227
0.383232
0.392137
0.460549
0.380381
0.387657
0.404053
0.428143
0.322872
0.386558
0.389714
0.396689
0.395247
0.460453
0.335053
0.503262
0.386508
0.384699
0.389671
0.383072
0.454357
0.379238
0.379814
0.382245
0.374932
0.393955
0.382878
0.381413
0.381906
0.392897
0.399302
0.387085
0.389522
0.445239
0.444839
0.388122
0.403874
0.44246
0.483132
0.485107
0.400328
0.395594
0.380082
0.38099
0.373434
0.323894
0.386528
0.379027
0.376462
0.372681
0.375298
0.332128
0.379496
0.388254
0.380941
0.379486
0.383151
0.378005
0.381648
0.39459
0.375601
0.41876
0.37767
0.373445
0.383004
0.379529
0.390945
0.440231
0.413661
0.378956
0.406031
0.384429
0.375452
0.379859
0.390612
0.381028
0.440245
0.387153
0.382239
0.403905
0.409112
0.623127
0.390326
0.383898
0.411559
0.392929
0.3792
0.385363
0.385387
0.387473
0.485059
0.399083
0.571295
0.38754
0.409848
0.379181
0.392426
0.386904
0.380526
0.381105
0.38923
0.500183
0.431478
0.39068
0.426513
0.391
0.3795
0.393725
0.393899
0.391196
0.382735
0.339388
0.387113
0.392575
0.383377
0.391806
0.536271
0.384781
0.382773
0.474154
0.395179
0.378658
0.394209
0.39437
0.375398
0.416237
0.427343
0.381589
0.389531
0.379287
0.379393
0.374115
0.380701
0.390823
1.13276
0.382519
0.380661
0.39926
0.420309
0.40474
0.48899
0.381274
0.384228
0.387809
0.380425
0.392133
0.384987
0.391109
0.383039
0.403465
0.386176
0.38782
0.381779
0.376121
0.382539
0.449069
0.399266
0.409412
0.378682
0.405317
0.385807
0.384089
0.389876
0.379971
0.38904
0.417599
0.383269
0.401963
0.46594
0.394514
0.395601
0.389102
0.42224
0.378393
0.385727
0.397766
0.397187
0.504742
0.397439
0.37793
0.385761
0.401453
0.381979
0.37828
0.5371
0.390448
0.430079
0.388889
0.397515
0.394139
0.429104
0.394
0.448266
0.394724
0.389432
0.386298
0.505702
0.380737
0.389678
0.38568
0.391669
0.381603
0.383114
0.409509
0.39891
0.390981
0.376448
0.400442
0.493594
0.557588
0.450857
0.439614
0.446516
0.392068
0.380781
0.411898
0.381346
0.42728
0.380873
0.388189
0.481636
0.388995
0.390682
0.38609
0.420299
0.404106
0.38528
0.374698
0.390953
0.424818
0.382969
0.382741
0.378585
0.397454
0.376068
0.395476
0.382664
0.39635
0.395683
0.382104
0.385036
0.396866
0.384019
0.391288
0.40123
0.430994
0.395745
0.398461
0.384671
0.419803
0.382288
0.373115
0.373909
0.711333
0.397304
0.415144
0.330509
0.383934
0.388002
0.689446
0.363008
0.392748
0.409401
0.392021
0.381394
0.406322
0.381093
0.389824
0.384997
0.39917
0.38569
0.47731
0.619289
0.38182
0.688901
0.384017
0.493366
0.681665
0.377602
0.379361
0.384311
0.428708
0.380938
0.39173
0.394114
0.506653
0.380659
0.396989
0.381838
0.373873
0.37723
0.383611
0.414793
0.414203
0.383518
0.405989
0.389066
0.451336
0.393432
0.376128
0.400974
0.422757
0.382737
0.39819
0.555914
0.566563
0.433614
0.382332
0.391344
0.408457
0.460045
0.396425
0.442423
0.415695
0.387037
0.403604
0.413427
0.587455
0.394799
0.395166
0.377423
0.392108
0.398499
0.401611
0.432905
0.376982
0.388508
0.387284
0.381798
0.469727
0.724217
0.386985
0.488228
0.395391
0.37468
0.429197
0.386174
0.389626
0.395875
0.395806
0.390545
0.390957
0.496522
0.387036
0.585113
0.558446
0.430774
0.393601
0.382526
0.378594
0.382869
0.381489
0.470883
0.783694
0.382792
0.487536
0.472495
0.503955
0.421422
0.577187
0.456594
0.382194
0.382136
0.969014
0.377832
0.387253
0.386892
0.499157
0.528257
0.377027
0.390297
0.450766
0.406768
0.406366
0.479251
0.398162
0.449495
0.617416
0.383588
0.391928
0.481514
0.390424
0.657861
0.611182
0.382561
0.38565
0.384571
0.386986
0.388591
0.389887
0.38597
0.392641
0.384869
0.443419
0.393295
0.395863
0.4365
0.387197
0.599131
0.390752
0.386299
0.395912
0.385387
0.505547
0.380511
0.378869
0.375579
0.417628
0.377538
0.529041
0.38471
0.458676
0.387204
0.858301
0.476461
0.396534
0.399706
0.453768
0.397881
0.385474
0.388552
0.467927
0.537125
0.402768
0.472977
0.388492
0.428298
0.41702
0.388509
0.388132
0.454648
0.401989
0.378561
0.386865
0.375968
0.38662
0.426995
0.404672
0.383529
0.389091
0.385512
0.685654
0.383763
0.534727
0.399654
0.382259
0.385506
0.396616
0.400462
0.465913
0.410783
0.392419
0.407856
0.425547
0.376669
0.571713
0.412642
0.388337
0.579966
0.484408
0.386248
0.414749
0.389167
0.402625
0.543688
0.403253
0.667038
0.403925
0.388495
0.405432
0.39037
0.384268
0.385857
0.413519
0.410107
0.405716
0.381466
0.409321
0.383507
0.381782
0.406302
0.397257
0.38667
0.397433
0.385485
0.571408
0.425403
0.404996
0.387997
0.474978
0.382903
0.440707
0.341018
0.390129
0.392121
0.395087
0.401329
0.402109
0.438323
0.380667
0.524158
0.412164
0.38718
0.404454
0.384277
0.401186
0.387263
0.40827
0.458071
0.371167
0.537456
0.385351
0.501396
0.395934
0.396771
0.384134
0.400675
0.399707
0.400731
0.396001
0.393497
0.50307
0.390186
0.386301
0.516694
0.379529
0.38106
0.493388
0.394289
0.403968
0.529261
0.399729
0.420015
0.384077
0.578895
0.42681
0.39533
0.423945
0.412794
0.391249
0.429707
0.46808
0.53247
0.390466
0.38299
0.394458
0.390877
0.380724
0.390038
0.455841
0.379564
0.373979
0.394496
0.383856
0.392339
0.383054
0.391382
0.415354
0.384935
0.423452
0.390813
0.391384
0.398232
0.380479
0.391038
0.389009
0.396354
0.411121
0.377816
0.382448
0.383875
0.38921
0.382811
0.509085
0.370617
0.385946
0.38387
0.389437
0.445383
0.379116
0.38494
0.425963
0.521865
0.486056
0.387202
0.485152
0.459744
0.377602
0.341069
0.44431
0.342589
0.415837
0.398808
0.382633
0.409252
0.379359
0.400253
0.38291
0.379797
0.381632
0.376999
0.38457
0.446019
0.387525
0.395702
0.518809
0.394735
0.462081
0.40551
0.502366
0.373973
0.38493
0.3871
0.383003
0.385721
0.383885
0.380711
0.40582
0.415031
0.501607
0.391244
0.418593
0.38329
0.384685
0.392891
0.377796
0.471901
0.388259
0.449779
0.388503
0.444081
0.524932
0.381192
0.37807
0.379557
0.377545
0.380386
0.387123
0.384927
0.38953
0.388201
0.3877
0.406101
0.386749
0.411947
0.386668
0.389756
0.380594
0.38674
0.392726
0.39182
0.395123
0.387565
0.425769
0.380785
0.383049
0.389661
0.38401
0.379349
0.37758
0.382466
0.395287
0.398706
0.383578
0.390449
0.38611
0.373376
0.411222
0.427706
0.382373
0.384585
0.403807
0.375962
0.378038
0.389296
0.379913
0.383323
0.382352
0.385158
0.384106
0.389235
0.380848
0.407923
0.382287
0.385922
0.389426
0.517861
0.385204
0.558015
0.523821
0.552132
0.389383
0.386706
0.386068
0.381358
0.384063
0.480382
0.397396
0.380105
0.379849
0.382743
0.388325
0.420504
0.386153
0.376481
0.390066
0.382049
0.380403
0.386859
0.376357
0.377967
0.381089
0.384032
0.399416
0.398838
0.38201
0.382544
0.378105
0.38122
0.383769
0.379866
0.382407
0.38616
0.384191
0.388008
0.378813
0.376984
0.390059
0.391656
0.376583
0.379793
0.380817
0.382718
0.391213
0.380589
0.424695
0.383306
0.410636
0.395076
0.383542
0.363496
0.379881
0.384067
0.394011
0.380485
0.380648
0.382049
0.436255
0.397996
0.421734
0.373344
0.384344
0.385017
0.390234
0.382581
0.390686
0.387284
0.37775
0.377028
0.402661
0.429661
0.490065
0.381829
0.408182
0.398093
0.416062
0.385494
0.408681
0.385336
0.38435
0.392024
0.480466
0.383811
0.381976
0.382187
0.385256
0.392322
0.557935
0.399893
0.382871
0.400409
0.38301
0.39578
0.591774
0.524024
0.393986
0.380798
0.382604
0.382493
0.382316
0.385108
0.517714
0.46128
0.386446
0.380386
0.389321
0.393388
0.378978
0.398123
0.388801
0.389675
0.387872
0.38957
0.390325
0.380366
0.38582
0.388601
0.40209
0.382199
0.395255
0.427296
0.386334
0.392639
0.415865
0.420873
0.423487
0.37866
0.383903
0.393595
0.386706
0.397587
0.400558
0.553088
0.424183
0.383619
0.384257
0.378519
0.381324
0.379255
0.391157
0.386255
0.377586
0.392216
0.385366
0.447392
0.412108
0.512226
0.517353
0.388103
0.384374
0.381335
0.384122
0.387753
0.386541
0.391703
0.379535
0.387625
0.373681
0.333319
0.374916
0.392312
0.387098
0.673403
0.392066
0.392152
0.387685
0.438372
0.510545
0.380337
0.404777
0.400504
0.431
0.407727
0.405842
0.377697
0.380981
0.398918
0.540635
0.383741
0.387299
0.381785
0.391328
0.354049
0.330505
0.346102
0.389983
0.395647
0.391725
0.394349
0.398527
0.387712
0.38876
0.388489
0.324653
0.352798
0.375985
0.402575
0.392202
0.56916
0.383408
0.524532
0.382778
0.509365
0.381063
0.423903
0.391552
0.398822
0.385337
0.388507
0.383784
0.383057
0.384091
0.420138
0.407924
0.385853
0.384895
0.589951
0.338628
0.384194
0.426791
0.355393
0.424745
0.379318
0.380459
0.376829
0.450828
0.390462
0.405176
0.626771
0.380551
0.457463
0.755521
0.340271
0.405622
0.387938
0.3915
0.370324
0.384586
0.375601
0.424705
0.386121
0.379589
0.37486
0.376363
0.381516
0.387356
0.383752
0.407886
0.384891
0.378974
0.397073
0.391611
0.407488
0.381244
0.383373
0.381546
0.380881
0.392606
0.43071
0.372434
0.376187
0.420091
0.617509
0.396879
0.525559
0.398538
0.43456
0.405686
0.414469
0.385057
0.382051
0.398921
0.380295
0.381673
0.379751
0.376793
0.379849
0.38647
0.395377
0.378752
0.370641
0.390021
0.38793
0.381842
0.494167
0.388162
0.387091
0.379692
0.377328
0.419536
0.426606
0.391982
0.404092
0.379023
0.422219
0.421533
0.390219
0.382839
0.55157
0.388936
0.380877
0.373686
0.4016
0.382655
0.374588
0.388137
0.436331
0.381263
0.381322
0.397899
0.387608
0.38696
0.390865
0.387658
0.392333
0.387279
0.38484
0.381451
0.385268
0.395017
0.377936
0.379575
0.428922
0.38493
0.420884
0.380142
0.394377
0.391901
0.396851
0.386567
0.406403
0.505932
0.39499
0.383978
0.376659
0.386507
0.409794
0.396851
0.385411
0.54243
0.426214
0.39765
0.414803
0.386154
0.393427
0.446567
0.457367
0.54929
0.392246
0.388523
0.563195
0.397963
0.402493
0.392307
0.397966
0.431215
0.383375
0.391842
0.566917
0.384807
0.383973
0.381515
0.379715
0.396868
0.408516
0.540778
0.385846
0.37766
0.354974
0.45927
0.486557
0.409234
0.47375
0.387026
0.55482
0.385136
0.384712
0.477736
0.399777
0.388333
0.384096
0.44354
0.508981
0.392255
0.384345
0.336085
0.388082
0.379465
0.502775
0.387729
0.393002
0.386936
0.39163
0.376163
0.378171
0.586639
0.33633
0.415726
0.386752
0.388098
0.383194
0.392267
0.386808
0.384245
0.384274
0.384179
0.384897
0.38949
0.327321
0.321617
0.382347
0.397704
0.381143
0.395294
0.392233
0.381232
0.384106
0.389743
0.32958
0.402616
0.393277
0.389836
0.382211
0.393865
0.39034
0.381049
0.458056
0.386128
0.433774
0.398173
0.38587
0.384011
0.386296
0.507847
0.378902
0.376392
0.393922
0.384149
0.414291
0.387287
0.402592
0.393249
0.455858
0.384855
0.384342
0.389224
0.380641
0.394488
0.379941
0.41438
0.518574
0.383196
0.397536
0.39528
0.382454
0.446836
0.389696
0.390985
0.38792
0.391477
0.431063
0.410522
0.396144
0.514612
0.399046
0.393626
0.439451
0.417031
0.38821
0.421176
0.403338
0.383087
0.479601
0.541064
0.38468
0.511451
0.403092
0.388595
0.455579
0.39384
0.388103
0.379215
0.489283
0.402959
0.379284
0.442464
0.400649
0.382732
0.387969
0.380722
0.39708
0.42383
0.484141
0.383486
0.390965
0.430697
0.381605
0.388432
0.446087
0.385003
0.384968
0.418436
0.400747
0.594457
0.52301
0.461804
0.426738
0.389548
0.406193
0.379149
0.384924
0.422834
0.387527
0.374894
0.386854
0.384245
0.414619
0.413781
0.391565
0.423073
0.390219
0.442843
0.390457
0.558391
0.386261
0.3979
0.392953
0.380266
0.386991
0.388887
0.392619
0.387515
0.381861
0.470597
0.377438
0.383083
0.386594
0.389394
0.385777
0.392473
0.38638
0.404279
0.388964
0.400073
0.38821
0.411328
0.382748
0.479765
0.448615
0.402726
0.453255
0.399732
0.395866
0.280049
0.376673
0.429531
0.39401
0.401313
0.398123
0.489193
0.391153
0.566182
0.401157
0.391558
0.398567
0.498002
0.397794
0.329644
0.394317
0.336052
0.404598
0.420088
0.408426
0.381314
0.382252
0.400659
0.331685
0.384885
0.451027
0.390386
0.384897
0.384992
0.393707
0.433913
0.379765
0.515044
0.416328
0.388267
0.389955
0.394121
0.412914
0.438168
0.3859
0.385882
0.407429
0.484503
0.390075
0.382742
0.407566
0.442459
0.390237
0.390573
0.384007
0.387507
0.456455
0.395392
0.437189
0.53185
0.381536
0.389679
0.388755
0.393639
0.311404
0.387432
0.463006
0.388586
0.389145
0.526667
0.708397
0.374914
0.38497
0.3829
0.390503
0.431321
0.391906
0.498947
0.390975
0.391447
0.410486
0.388145
0.39466
0.384048
0.391114
0.384272
0.412416
0.406881
0.417972
0.41053
0.402448
0.386525
0.381913
0.45067
0.495617
0.423474
0.417545
0.38521
0.440121
0.418959
0.520823
0.440592
0.386957
0.385096
0.385281
0.398623
0.392433
0.424703
0.38811
0.400868
0.608717
0.388045
0.465336
0.384237
0.384974
0.379536
0.386293
0.386301
0.374794
0.395548
0.37939
0.375692
0.376886
0.392883
0.405623
0.446495
0.383938
0.458618
0.405621
0.396317
0.377481
0.384049
0.417139
0.387489
0.415475
0.382719
0.385835
0.390293
0.379975
0.380757
0.396303
0.389871
0.396614
0.3856
0.438779
0.397166
0.40606
0.381542
0.412044
0.402054
0.384947
0.382789
0.382174
0.384362
0.494443
0.374646
0.392877
0.337591
0.387083
0.385541
0.38709
0.388221
0.406325
0.408039
0.381729
0.386905
0.384284
0.398773
0.407516
0.382647
0.494236
0.383439
0.3963
0.386809
0.381145
0.426966
0.38507
0.385886
0.445051
0.393575
0.382967
0.395347
0.418408
0.384726
0.451182
0.382262
0.394744
0.421805
0.395496
0.386407
0.43288
0.39889
0.405026
0.420093
0.409493
0.43621
0.591213
0.387894
0.399389
0.392184
0.393484
0.393707
0.385091
0.391417
0.379231
0.387893
0.45999
0.387483
0.384331
0.425988
0.396807
0.521983
0.385435
0.385961
0.403341
0.375609
0.390627
0.388411
0.38607
0.395793
0.391236
0.383266
0.39246
0.333829
0.40115
0.391198
0.4815
0.386387
0.74356
0.499767
0.384597
0.389556
0.43233
0.385592
0.326931
0.409695
0.38453
0.42488
0.320182
0.394365
0.401754
0.412383
0.502243
0.470929
0.384246
0.379475
0.324983
0.663545
0.648397
0.448124
0.477054
0.445541
0.373738
0.524325
0.400193
0.410119
0.489737
0.417529
0.400722
0.401363
0.414837
0.45066
0.386462
0.384336
0.376569
0.389333
0.382575
0.378946
0.473998
0.384792
0.382167
0.472572
0.375149
0.380665
0.389231
0.38688
0.384787
0.397936
0.391397
0.39035
0.410671
0.588757
0.382847
0.388798
0.394056
0.386478
0.480803
0.40749
0.392887
0.386888
0.465789
0.378156
0.402787
0.387524
0.398767
0.384793
0.374352
0.378951
0.383651
0.388693
0.384099
0.40325
0.386902
0.400554
0.387386
0.392153
0.381293
0.387309
0.378364
0.394177
0.385245
0.399784
0.473162
0.417116
0.39316
0.402976
0.381421
0.386501
0.382535
0.376805
0.393436
0.379776
0.386297
0.405615
0.398527
0.379323
0.39579
0.428261
0.389411
0.384067
0.412866
0.388194
0.438533
0.397981
0.416465
0.6507
0.388199
0.405659
0.407334
0.46189
0.398035
0.388436
0.384527
0.386194
0.383143
0.38341
0.383013
0.394945
0.395363
0.381521
0.384628
0.387817
0.384748
0.40231
0.400296
0.402708
0.38012
0.38748
0.384707
0.498366
0.392659
0.375858
0.394775
0.48562
0.763748
0.392912
0.410171
0.386694
0.391519
0.38774
0.456152
0.413555
0.378499
0.383453
0.388532
0.383981
0.398355
0.391671
0.38572
0.377897
0.405691
0.390123
0.402427
0.406051
0.425732
0.415198
0.390787
0.394967
0.382211
0.377771
0.383344
0.38462
0.382459
0.512805
0.389154
0.387963
0.528598
0.388876
0.392803
0.331319
0.409278
0.386516
0.373885
0.392662
0.38433
0.483605
0.382315
0.417361
0.402283
0.43073
0.546293
0.562649
0.383599
0.391472
0.443377
0.381836
0.465433
0.456427
0.522803
0.39264
0.379886
0.41504
0.390644
0.486061
0.402255
0.377025
0.529865
0.46663
0.388589
0.385942
0.567482
0.382331
0.379228
0.376407
0.390989
0.380109
0.38186
0.436231
0.389954
0.56911
0.387415
0.394239
0.376299
0.608509
0.378522
0.548189
0.387934
0.391446
0.38497
0.423608
0.388726
0.393547
0.382221
0.430953
0.415331
0.41911
0.512591
0.381567
0.386748
0.467415
0.390794
0.386783
0.392742
0.387114
0.379842
0.393165
0.38761
0.502078
0.417489
0.393348
0.376537
0.399621
0.392017
0.388812
0.385046
0.385068
0.391027
0.385537
0.389531
0.384818
0.404725
0.386026
0.38291
0.386809
0.380821
0.378709
0.38222
0.382997
0.380174
0.386264
0.387846
0.388912
0.385133
0.334455
0.389272
0.40353
0.417443
0.379324
0.604589
0.389428
0.457391
0.40489
0.340974
0.384673
0.395344
0.381781
0.389663
0.385627
0.389987
0.408698
0.383771
0.389694
0.383752
0.566292
0.382611
0.398016
0.39736
0.827692
0.316521
0.390472
0.521856
0.377226
0.50868
0.427586
0.756416
0.321856
0.388051
0.391172
0.380161
0.381575
0.431952
0.405386
0.405571
0.385989
0.389083
0.472346
0.394014
0.388243
0.386997
0.382472
0.391135
0.385387
0.50398
0.392678
0.386069
0.386307
0.388148
0.383461
0.3772
0.385358
0.681039
0.698362
0.379775
0.426981
0.44635
0.38269
0.387548
0.378814
0.384638
0.378229
0.404977
0.387149
0.419144
0.38571
0.39287
0.388391
0.395364
0.39381
0.383412
0.387788
0.389529
0.385724
0.455449
0.393642
0.399264
0.495362
0.384295
0.446537
0.551755
0.382716
0.387378
0.40711
0.435755
0.388829
0.399652
0.460954
0.384661
0.40439
0.383917
0.401182
0.377344
0.383951
0.401049
0.473614
0.388348
0.393626
0.48889
0.39971
0.44231
0.462687
0.393193
0.54734
0.390675
0.399392
0.394701
0.385374
0.41819
0.393304
0.397028
0.382091
0.387429
0.480456
0.316137
0.388455
0.395425
0.421391
0.316948
0.404595
0.397018
0.383456
0.410718
0.382087
0.407192
0.384825
0.414444
0.381223
0.388566
0.380659
0.682309
0.386396
0.400552
0.384095
0.388299
0.392694
0.38885
0.379965
0.380157
0.404004
0.38665
0.452847
0.380756
0.453551
0.4083
0.394216
0.406165
0.390581
0.414831
0.385681
0.387628
0.382063
0.385397
0.508603
0.394445
0.434787
0.405028
0.394899
0.390366
0.394115
0.385938
0.387501
0.39636
0.402493
0.39527
0.385757
0.381649
0.389877
0.384419
0.402142
0.38072
0.399258
0.385498
0.418302
0.475894
0.382311
0.386841
0.380075
0.412069
0.375576
0.389701
0.374038
0.380692
0.381264
0.382254
0.381822
0.387428
0.384059
0.39215
0.424746
0.385682
0.466287
0.382898
0.377911
0.376854
0.395911
0.448653
0.38419
0.517198
0.38207
0.374607
0.57044
0.596834
0.381968
0.38143
0.458128
0.385936
0.402447
0.390945
0.400952
0.386409
0.415623
0.375991
0.396876
0.382292
0.388873
0.439293
0.386047
0.385973
0.388024
0.377468
0.403274
0.402796
0.391453
0.382014
0.381799
0.394757
0.394402
0.443456
0.397726
0.388419
0.392478
0.392995
0.410435
0.405183
0.43126
0.405516
0.393715
0.383772
0.388876
0.396752
0.383028
0.401687
0.397686
0.380191
0.819553
0.374103
0.390137
0.387349
0.390723
0.388469
0.465488
0.391458
0.417351
0.384339
0.563417
0.402077
0.388632
0.376634
0.461894
0.383368
0.457676
0.383625
0.40657
0.380403
0.389066
0.404107
0.444567
0.428634
0.388936
0.383335
0.391314
0.402249
0.387179
0.520166
0.418393
0.386806
0.408393
0.39198
0.424349
0.424698
0.403317
0.398784
0.438627
0.524483
0.393942
0.386367
0.45957
0.441874
0.393727
0.421033
0.386929
0.48174
0.399818
0.390972
0.389804
0.380752
0.389069
0.385413
0.383603
0.398451
0.385831
0.393154
0.392636
0.409332
0.395942
0.453393
0.38074
0.376421
0.380298
0.405179
0.428775
0.445136
0.389514
0.392216
0.43885
0.399069
0.394546
0.374595
0.383488
0.388897
0.374557
0.381093
0.392997
0.379512
0.440032
0.416321
0.425497
0.563987
0.419188
0.465655
0.404392
0.405932
0.382779
0.486135
0.388647
0.390507
0.382531
0.436251
0.393345
0.39014
0.412805
0.527128
0.398064
0.390732
0.380332
0.480574
0.578773
0.400993
0.529287
0.559291
0.469703
0.482066
0.459844
0.497593
0.410754
0.488329
0.550351
0.384672
0.396558
0.3997
0.410772
0.50403
0.392582
0.396965
0.403672
0.386379
0.389722
0.474022
0.430507
0.460273
0.384077
0.38632
0.377321
0.385953
0.389271
0.554934
0.381217
0.412512
0.432808
0.387585
0.462547
0.750006
0.386732
0.396329
0.395184
0.552505
0.392717
0.433612
0.545643
0.6987
0.405807
0.395913
0.439638
0.39006
0.381519
0.388949
0.384807
0.413847
0.486193
0.398125
0.382407
0.452036
0.426019
0.455859
0.386568
0.39026
0.511128
0.413644
0.330646
0.383244
0.385197
0.385642
0.317929
0.401903
0.400826
0.474582
0.323152
0.422255
0.413359
0.313767
0.414706
0.479825
0.416964
0.422637
0.416138
0.387048
0.473247
0.406471
0.389861
0.385197
0.385883
0.494989
0.527897
0.424843
0.3995
0.415759
0.39882
0.403871
0.325735
0.40662
0.397827
0.382251
0.402073
0.385971
0.328998
0.390757
0.415878
0.406434
0.475727
0.430061
0.595953
0.466823
0.505579
0.383518
0.404283
0.439421
0.345245
0.43529
0.395311
0.398316
0.387537
0.558712
0.42495
0.388455
0.719905
0.500518
0.392442
0.417428
0.443126
0.506724
0.418979
0.382795
0.429493
0.540727
0.397507
0.387183
0.386245
0.385081
0.405973
0.442639
0.472862
0.391064
0.42914
0.510725
0.467275
0.43677
0.45717
0.36683
0.552366
0.461876
0.42724
0.441737
0.443425
0.395505
0.42469
0.383638
0.389143
0.393546
0.392899
0.439232
0.412971
0.378348
0.390995
0.390902
0.387293
0.382401
0.469818
0.402893
0.399087
0.384989
0.412434
0.642538
0.326479
0.400078
0.377829
0.392024
0.403061
0.408372
0.379666
0.374107
0.399083
0.340062
0.396208
0.454774
0.389094
0.386043
0.388078
0.408229
0.493706
0.408403
0.389345
0.419058
0.387784
0.443185
0.418582
0.417396
0.429239
0.398752
0.390059
0.380745
0.382263
0.385822
0.401358
0.386943
0.376884
0.37544
0.398198
0.450434
0.37811
0.497408
0.385257
0.441626
0.391914
0.410957
0.389925
0.364685
0.389054
0.398044
0.398662
0.3754
0.392746
0.386226
0.425701
0.385772
0.388425
0.392015
0.490132
0.38318
0.402285
0.394988
0.490331
0.499169
0.410126
0.47807
0.3609
0.38953
0.399412
0.459242
0.392397
0.403779
0.41104
0.389043
0.408942
0.431564
0.403821
0.420695
0.407556
0.408741
0.422606
0.414555
0.390359
0.390112
0.402385
0.380672
0.393122
0.405996
0.387526
0.39462
0.444422
0.391286
0.336565
0.390111
0.52985
0.381578
0.38276
0.49088
0.399629
0.381722
0.385773
0.381044
0.436943
0.405817
0.496703
0.381951
0.468104
0.428654
0.443488
0.38806
0.421952
0.377226
0.384229
0.39562
0.402105
0.384171
0.418688
0.404225
0.38892
0.390719
0.385503
0.389957
0.424516
0.386397
0.378063
0.398823
0.41449
0.420639
0.38726
0.404011
0.384701
0.395234
0.393923
0.386316
0.392654
0.409799
0.393894
0.466899
0.379739
0.395797
0.37848
0.431578
0.388645
0.413473
0.391405
0.381049
0.38069
0.395642
0.397108
0.427238
0.414421
0.476014
0.412589
0.518448
0.401475
0.390893
0.393525
0.385111
0.384536
0.537769
0.484697
0.401905
0.401123
0.394527
0.388387
0.374952
0.392038
0.452319
0.416295
0.529597
0.410673
0.397749
0.381755
0.403333
0.388983
0.508356
0.386199
0.385245
0.38321
0.389429
0.504705
0.406415
0.381242
0.394617
0.407577
0.379399
0.331339
0.393669
0.369528
0.398483
0.533567
0.401021
0.547981
0.382176
0.387572
0.404361
0.384294
0.395734
0.391848
0.388776
0.378512
0.380217
0.402047
0.385728
0.444731
0.400243
0.559462
0.413145
0.382791
0.426384
0.386031
0.395832
0.366151
0.580875
0.611522
0.317588
0.383123
0.401046
0.522711
0.382633
0.404302
0.399493
0.395246
0.308287
0.382483
0.382591
0.376266
0.39594
0.417738
0.416971
0.459494
0.415142
0.385983
0.400725
0.464442
0.393416
0.38301
0.440207
0.509782
0.470073
0.404283
0.378754
0.379672
0.403187
0.371507
0.549093
0.390722
0.388043
0.388883
0.494313
0.377507
0.394552
0.426715
0.430843
0.38439
0.390056
0.385497
0.391735
0.389471
0.396651
0.395234
0.448074
0.423054
0.389425
0.456871
0.395744
0.467524
0.392465
0.588531
0.426721
0.38873
0.465447
0.396723
0.41736
0.397822
0.466273
0.409499
0.379839
0.394452
0.37678
0.390203
0.567323
0.383819
0.389568
0.394193
0.394921
0.372865
0.429459
0.3981
0.383647
0.41277
0.392536