/*--------------------------------*- C++ -*----------------------------------*\
| =========                 |                                                 |
| \\      /  F ield         | OpenFOAM: The Open Source CFD Toolbox           |
|  \\    /   O peration     | Version:  2506                                  |
|   \\  /    A nd           | Website:  www.openfoam.com                      |
|    \\/     M anipulation  |                                                 |
\*---------------------------------------------------------------------------*/
FoamFile
{
    version     2.0;
    format      ascii;
    arch        "LSB;label=32;scalar=64";
    class       volScalarField;
    location    "0.00482047";
    object      nut;
}
// * * * * * * * * * * * * * * * * * * * * * * * * * * * * * * * * * * * * * //

dimensions      [0 2 -1 0 0 0 0];

internalField   nonuniform List<scalar> 
47425
(
0.00723282
0.00294801
0.00630576
0.00336542
0.00366573
0.00427063
0.00541326
0.00466298
0.00390965
0.00127508
0.00299236
0.00750026
0.00667245
0.00579992
0.0038138
0.0012247
0.00713957
0.00343887
0.000307079
0.00219799
0.00486827
0.00699751
0.00400993
0.00707122
0.0074254
0.00690702
0.00611664
0.000308498
0.00458016
0.0030333
0.0071581
0.00754054
0.00422157
0.00693204
0.00735796
0.00668658
0.00752031
0.00180358
0.00283722
0.00414857
0.004245
0.00715512
0.00750933
0.000914253
0.000438643
0.0035098
0.00494953
0.00425832
0.00272852
0.00453531
0.000378896
0.00667586
0.00387295
0.000720336
0.00109176
0.00380107
0.0075256
0.0028578
0.00215161
0.00274764
0.000604721
0.000503002
0.00108261
0.00316293
0.00474147
0.00621346
0.00474133
0.00722301
0.000720254
0.0038207
0.00658745
0.00389028
0.00720379
0.00607908
0.00181597
0.0019208
0.0010017
0.00356799
0.000183934
0.00261712
0.000853348
0.00578925
0.00734406
0.00708663
0.00755987
0.00632741
0.00735674
0.007475
0.00725924
0.00123841
0.00752731
0.00498509
0.00709384
0.0039903
0.000844943
0.00235309
0.00579937
0.00728448
0.00323677
0.00250397
0.00695768
0.00107929
0.00449351
0.000842674
0.00511399
0.00737203
0.00636994
0.00677125
0.00756816
0.00750817
0.000808672
0.00701968
0.0071146
0.00299294
0.00690719
0.000210804
0.00703633
0.000586845
0.00271898
0.00657359
0.00710547
0.00283453
0.00700353
0.00478111
0.00201249
0.00696898
0.00535513
0.00377137
0.00439204
0.00747636
0.00739883
0.00204868
0.000806538
0.00181542
0.00419551
0.00435215
0.00683598
0.00686085
0.00476826
0.00556805
0.00552475
0.00285626
0.00383492
0.00687706
0.004372
0.00287087
0.00688255
0.00699956
0.00287005
0.00513434
0.00701212
0.000339997
0.00366969
0.000251058
0.00410709
0.00484563
0.00429535
0.000164662
0.00320086
0.00559943
0.00685784
0.00745698
0.00441219
0.0053215
0.00190004
0.00021715
0.00750785
0.000776387
0.0033285
0.00066263
0.000913475
0.00219593
0.00503882
0.00411515
0.00507113
0.00124144
0.000224526
0.00692473
0.0072072
0.00754861
0.000197011
0.00588917
0.00561175
0.00454597
0.00744091
0.00729083
0.00650364
0.00121407
0.00278042
0.00732493
0.00712123
0.00272919
0.00560509
0.00264679
0.00750159
0.00729917
0.00324391
0.00649143
0.00711351
0.0054774
0.00605091
0.0019417
0.00759449
0.00731999
0.0041078
0.00287721
0.00422376
0.00736193
0.000897769
0.0022254
0.00595871
0.00685811
0.00724153
0.00256344
0.0068028
0.00672638
0.00648914
0.00363974
0.0063532
0.00154873
0.00250536
0.00347415
0.00734036
0.00479969
0.0019649
0.0024186
0.00683457
0.00373232
0.00650049
0.00443601
0.00385472
0.00563501
0.00135514
0.00372224
0.00274825
0.00524075
0.00379854
0.00282978
0.0036052
0.0025195
0.00514455
0.00383963
0.00756032
0.00534816
0.00734118
0.00164883
0.0072775
0.00163718
0.00751004
0.00438628
0.00756046
0.00328693
0.00485229
0.0024196
0.00497828
0.00609142
0.00753403
0.00345999
0.00635325
0.00242076
0.00307826
0.00723609
0.00357541
0.00325766
0.00629947
0.00199932
0.00747185
0.00633552
0.00383996
0.00438042
0.00377217
0.00533962
0.00307342
0.00352123
0.00308956
0.002549
0.00297827
0.000421522
0.00501259
0.000507577
0.000801019
0.00542631
0.000534456
0.00237321
0.00483694
0.00635654
0.00420136
0.00683708
0.00102922
0.00687177
0.000442949
0.00458419
0.00212938
0.00539204
0.00738046
0.00329348
0.00492623
0.00316034
0.00646345
0.00474047
0.00278288
0.00519834
0.00265125
0.00738398
0.000401256
0.000759288
0.000342121
0.00752413
0.00740594
0.00723504
0.00415442
0.000419159
0.00568666
0.00365858
0.0018864
0.00493883
0.00435636
0.0030955
0.00508924
0.000917126
0.00213103
0.00746947
0.00477307
0.00746394
0.0016387
0.0074623
0.00639996
0.00688814
0.00740026
0.00388147
0.00663486
0.000436313
0.00616706
0.00656649
0.00297826
0.0041972
0.000391653
0.00747251
0.00751643
0.00305044
0.00711602
0.00590338
0.00750338
0.00746127
0.00739735
0.00400162
0.00283972
0.00718387
0.00660168
0.00152557
0.0057919
0.00517699
0.00673766
0.00745991
0.00488668
0.00366255
0.00541701
0.00749725
0.0036196
0.00452967
0.00126525
0.00540602
0.00167281
0.00433911
0.00412352
0.00744081
0.00288058
0.00400983
0.00575112
0.00719904
0.00287249
0.000295834
0.00668543
0.00739523
0.0019163
0.00742286
0.00733467
0.00226332
0.00291836
0.00750349
0.00536552
0.00735187
0.00757034
0.00556366
0.00152838
0.00455994
0.00496019
0.00325874
0.00511153
0.00543537
0.00735819
0.00625148
0.00401124
0.00327327
0.00635099
0.0050475
0.00708093
0.00500167
0.00315853
0.0074232
0.000902402
0.00753088
0.0017069
0.00156282
0.0035716
0.00295391
0.00744675
0.00312827
0.00748251
0.00318109
0.00713573
0.000642212
0.000561142
0.0072472
0.00487313
0.00474342
0.00348968
0.0044315
0.00532803
0.00316541
0.00355465
0.00356079
0.00506049
0.00537962
0.0066113
0.00736145
0.00650872
0.00666622
0.00710495
0.000879319
0.000310517
0.0052062
0.000383762
0.000316741
0.00190958
0.000365968
0.000655841
0.00615632
0.00475562
0.00691402
0.00680631
0.000639059
0.00218238
0.00736392
0.00739961
0.0068178
0.00668294
0.00246945
0.00596172
0.000947554
0.00084771
0.00117909
0.00519306
0.00123132
0.007041
0.0040647
0.00723616
0.00662265
0.00729403
0.00501486
0.00410584
0.00059983
0.00246291
0.00422484
0.00544038
0.00598535
0.00207708
0.00706217
0.00532608
0.00290814
0.00638166
0.00604476
0.00116163
0.00197413
0.00450814
0.00437138
0.00697823
0.00105095
0.00358656
0.00200904
0.00682406
0.00273556
0.00646264
0.00663793
0.00652729
0.00600981
0.00698502
0.00446346
0.00413149
0.00345262
0.00696433
0.00669099
0.0046867
0.00248214
0.000838086
0.00430294
0.00208491
0.00725243
0.00226317
0.00746589
0.00254167
0.00746306
0.00512941
0.00680777
0.00312943
0.00232679
0.00519663
0.00757894
0.00675231
0.00577576
0.00327455
0.00489677
0.00537902
0.00563711
0.00618242
0.00737686
0.003597
0.00203543
0.00332032
0.00385123
0.00508774
0.000695232
0.000429642
0.00374582
0.00454264
0.00670273
0.0046435
0.00162001
0.0014006
0.00384119
0.00570952
0.00172993
0.006136
0.00368917
0.00142143
0.00732844
0.000649028
0.00553654
0.00406914
0.00319387
0.00246882
0.0076274
0.00688013
0.0053956
0.0074203
0.00741216
0.0066438
0.000724155
0.00730015
0.000817612
0.0052361
0.00191303
0.00319786
0.00395254
0.00244173
0.00281479
0.00568064
0.00539597
0.00153
0.00743727
0.0073042
0.00362309
0.00733811
0.00749031
0.0033459
0.00487798
0.00482901
0.00604741
0.00527492
0.00749865
0.0012428
0.00544005
0.00676143
0.00171573
0.00435524
0.00738304
0.00301226
0.00190671
0.00755439
0.000373142
0.00037807
0.00706368
0.00440876
0.00740399
0.00741874
0.00126736
0.00167521
0.00103455
0.00482696
0.00288703
0.00419618
0.00193443
0.00288384
0.00155625
0.00703894
0.00123484
0.00235863
0.00692108
0.00554835
0.00618882
0.00351731
0.00351969
0.00304062
0.00665124
0.00340656
0.00287949
0.00547025
0.00549754
0.00403817
0.00418686
0.00732273
0.00228089
0.00454457
0.00476552
0.00329873
0.000944109
0.00616966
0.00241502
0.00714201
0.00183604
0.00393161
0.00717405
0.00438926
0.000190222
0.00426777
0.00528572
0.000517535
0.000667037
0.00752067
0.00482126
0.000122969
0.0011814
0.00087663
0.00172485
0.000562925
0.000574037
0.00299683
0.00747969
0.00538531
0.00416479
0.00093258
0.000740842
0.00747376
0.00309336
0.0066675
0.00603579
0.00727696
0.00374714
0.00695557
0.00176156
0.00033578
0.00328258
0.00404296
0.00467109
0.00716692
0.00166342
0.00715463
0.00647732
0.00260764
0.00391042
0.00707752
0.00122155
0.00553744
0.00693077
0.00148868
0.000881648
0.000415244
0.000852864
0.00388655
0.00726139
0.00527256
0.0075432
0.000737551
0.00495451
0.000500035
0.00376323
0.00602663
0.00646135
0.00586486
0.00186914
0.00673202
0.00176614
0.00286473
0.0071962
0.00189264
0.00495011
0.00243236
0.00647497
0.0044604
0.000419978
0.0065076
0.00125733
0.00657565
0.00366085
0.00607759
0.000808704
0.00505505
0.00640183
0.00748005
0.0037702
0.00655056
0.00271826
0.00608476
0.00387841
0.00573053
0.000891991
0.000510155
0.00402699
0.000849121
0.00636917
0.00395069
0.00378991
0.007515
0.00701041
0.00351032
0.00650303
0.00644324
0.00670093
0.000413295
0.00254749
0.00531695
0.00685976
0.0055192
0.00486296
0.00746271
0.00310674
0.00710803
0.00118355
0.00436117
0.00749794
0.00491936
0.00751504
0.00724979
0.00298877
0.00503393
0.00479579
0.00745476
0.00669602
0.00660311
0.00086642
0.00759262
0.00232864
0.00265035
0.00170764
0.00079446
0.00463516
0.00593154
0.00261212
0.0049701
0.000696755
0.000937827
0.000480571
0.0035679
0.00442703
0.00381066
0.000771191
0.000763027
0.00296688
0.00447323
0.00705352
0.00708329
0.00595351
0.00324176
0.00311927
0.0044366
0.00172293
0.00226398
0.00608034
0.000709526
0.000807137
0.000665824
0.00719426
0.000471116
0.00148957
0.000491313
0.000665984
0.00267691
0.00159494
0.0075167
0.00746521
0.00605037
0.000741114
0.00138085
0.00500663
0.00539017
0.00750302
0.00185888
0.000830407
0.00754564
0.00227659
0.0041629
0.0075579
0.00152197
0.00751024
0.00754847
0.00264975
0.00548751
0.00165592
0.00748036
0.00751124
0.00443654
0.0029918
0.00300512
0.000958683
0.00153695
0.00757464
0.000645594
0.00590712
0.00747647
0.00741487
0.00091831
0.00407116
0.000708095
0.00597112
0.00718081
0.0068677
0.00116713
0.000444998
0.00389919
0.00578856
0.00178389
0.00405219
0.00700531
0.00228108
0.00303042
0.000476025
0.00103588
0.00313676
0.000620523
0.00410984
0.00112511
0.00669815
0.00630269
0.00730529
0.0025623
0.00327817
0.00731335
0.000850648
0.00107908
0.00515732
0.00230093
0.00647527
0.00504772
0.00342457
0.00594235
0.00535613
0.00528696
0.000844193
0.00455743
0.00502659
0.00208948
0.00177352
0.000338234
0.00175742
0.00420843
0.000474387
0.00708583
0.00749111
0.00409096
0.00453586
0.00561743
0.00158524
0.00113308
0.00574734
0.00471982
0.00711928
0.00123339
0.00397281
0.00431535
0.00390976
0.000787375
0.00500224
0.00716373
0.00578716
0.00145101
0.00145579
0.000408794
0.00120566
0.00462749
0.0006901
0.00171062
0.00480046
0.00738784
0.00418015
0.00128253
0.00177551
0.00447679
0.0063071
0.00454811
0.00749899
0.00350596
0.000749341
0.00231794
0.00231462
0.0074592
0.00194445
0.00102567
0.00349016
0.00465206
0.00651301
0.000656828
0.00122301
0.00537091
0.00173653
0.000635929
0.00454145
0.00713064
0.00672141
0.000926507
0.00725578
0.00263834
0.00669445
0.00105223
0.00039388
0.00586083
0.00583015
0.00433556
0.00579089
0.00447689
0.00369176
0.000506728
0.00607613
0.000629898
0.00406829
0.00276092
0.00449684
0.00120092
0.00234652
0.00119762
0.00167432
0.00166287
0.00399818
0.0003945
0.00579707
0.00379926
0.00666867
0.00652317
0.00708381
0.00565402
0.00145354
0.00308341
0.00292554
0.00744941
0.00360158
0.000575255
0.000644762
0.00069922
0.00152271
0.000484039
0.00206405
0.00118737
0.00127162
0.00588448
0.00116089
0.00262678
0.00122374
0.00105899
0.00644116
0.00613441
0.00385631
0.00411639
0.00187925
0.00127639
0.00580749
0.00444676
0.00120392
0.00603463
0.00368796
0.00611396
0.00733671
0.00367307
0.00286501
0.00340138
0.00436928
0.00454046
0.000741407
0.00643972
0.00318161
0.00286471
0.00677317
0.00300129
0.000969458
0.00565477
0.00281339
0.00581765
0.00108058
0.001257
0.00355021
0.00529776
0.000210871
0.000220821
0.00135263
0.000748813
0.00352678
0.00598645
0.000464566
0.00159373
0.00528502
0.00125834
0.00285325
0.00332356
0.000943063
0.00318739
0.00702286
0.00328756
0.00229822
0.00397935
0.000558626
0.000262082
0.00477966
0.000584863
0.00310857
0.000621696
0.000217348
0.00732206
0.00247304
0.00326151
0.00101027
0.00209322
0.00530182
0.00318298
0.000385079
0.00739254
0.0028893
0.00383636
0.00290229
0.0075313
0.00533442
0.00180033
0.00133396
0.00128282
0.00212835
0.0063097
0.000916691
0.00705363
0.00752793
0.00214777
0.00112956
0.00445775
0.00572848
0.00043143
0.000902715
0.00104071
0.00378903
0.00573931
0.00189754
0.000964581
0.00359044
0.000637345
0.00148976
0.0068718
0.002735
0.00152591
0.00037956
0.0031866
0.00240695
0.00675393
0.00680084
0.00156594
0.00213893
0.00224865
0.00644756
0.00238746
0.00605885
0.00612511
0.00160939
0.000541788
0.00700656
0.000349588
0.00547546
0.00651238
0.000929744
0.00519516
0.00343759
0.00417491
0.00616243
0.00195259
0.00691821
0.00114373
0.00652383
0.000236616
0.000359383
0.00110225
0.00196038
0.00727309
0.00453849
0.00358655
0.00737958
0.00051939
0.000474439
0.00213434
0.00111807
0.00058373
0.000511156
0.00181306
0.000644252
0.000490052
0.00458694
0.00746744
0.000406831
0.00583677
0.00702061
0.00622567
0.000572806
0.000312733
0.00641593
0.0054723
0.00143304
0.00196292
0.00177129
0.000415759
0.0028208
0.000728809
0.000605533
0.00353538
0.0069694
0.00049012
0.00587912
0.000790582
0.000140125
0.00749614
0.00524451
0.00387776
0.00694137
0.00206034
0.00490455
0.00726085
0.000881675
0.00296424
0.000819578
0.00197138
0.00530799
0.000860473
0.0073332
0.000241256
0.00645945
0.00323642
0.00362433
0.0058514
0.00077419
0.00630609
0.00320661
0.00293069
0.00173865
0.00548072
0.000859121
0.00211621
0.000631976
0.00693596
0.000671174
0.000544819
0.0054712
0.00556807
0.000808644
0.00231706
0.00433746
0.00680996
0.000790183
0.000484443
0.00245597
0.000396156
0.00258749
0.00102264
0.00118727
0.00296665
0.0037016
0.000423393
0.00181816
0.00748128
0.00324682
0.00502465
0.000543835
0.00146478
0.000807803
0.00714257
0.00525132
0.00599637
0.000661663
0.00556255
0.000344506
0.0024524
0.00677161
0.00528466
0.00300864
0.00235676
0.000713799
0.00212715
0.00362984
0.00123917
0.000881145
0.00550166
0.000698244
0.00146947
0.00330907
0.000345178
0.000711215
0.000584485
0.00145713
0.00416072
0.00166372
0.000496205
0.00219464
0.000964445
0.00292783
0.00675091
0.00165685
0.00572484
0.00372093
0.00383162
0.00116723
0.00190808
0.00158238
0.00653963
0.00173293
0.00451263
0.00717097
0.00127769
0.00195616
0.00244424
0.00549798
0.00497483
0.000237293
0.000560649
0.00195171
0.00218863
0.00121203
0.00351926
0.000817294
0.000667064
0.00171482
0.00420309
0.0047435
0.00341989
0.00297593
0.00101872
0.0071052
0.00120241
0.00146969
0.00716855
0.00176566
0.00345852
0.00341248
0.00296153
0.00163591
0.000867434
0.0074607
0.000377721
0.00183993
0.000575872
0.00269544
0.00649806
0.00181481
0.00313746
0.00161457
0.00391165
0.00579818
0.00585527
0.000292573
0.00635165
0.00653836
0.000534165
0.00753227
0.00609242
0.000464544
0.00442326
0.00197411
0.000987489
0.00230178
0.000909144
0.00620057
0.000133944
0.0011665
0.00162988
0.00125506
0.00137149
0.00566687
0.000795537
0.00104808
0.000884427
0.00676386
0.00383847
0.00344885
0.00398144
0.00452523
0.00134056
0.0003358
0.00192119
0.00730012
0.00460844
0.00690701
0.00408399
0.00165414
0.00671217
0.00495866
0.00309507
0.00107376
0.00728036
0.000850797
0.0045517
0.0028076
0.00544149
0.00141938
0.00274327
0.00362122
0.00744484
0.00169383
0.0040566
0.00691771
0.00391556
0.000791003
0.00461134
0.00705025
0.00397753
0.00562061
0.000934651
0.00690951
0.00731172
0.00050072
0.000969748
0.000612476
0.00705639
0.000602252
0.000392456
0.00749756
0.000368594
0.000672981
0.000247202
0.00163001
0.00608236
0.0018167
0.00158405
0.00756541
0.00170071
0.00182639
0.00314526
0.00377695
0.00626875
0.0014099
0.000909675
0.00367157
0.00356238
0.000490239
0.00561845
0.000137106
0.00224856
0.001095
0.00748393
0.000986334
0.00118965
0.00723878
0.00559165
0.00228379
0.00757287
0.00103844
0.00208305
0.000283216
0.00631766
0.00173313
0.00435312
0.00352886
0.00527403
0.00717022
0.00144077
0.0059108
0.00149646
0.00342605
0.00121645
0.000151244
0.00528055
0.00757115
0.000238123
0.0036038
0.000141969
0.00629113
0.00389198
0.00392774
0.00439952
0.0069923
0.00690197
0.00669987
0.00288854
0.00660872
0.00219646
0.00273485
0.00677834
0.00745856
0.00300919
0.00145527
0.00473979
0.00107087
0.00739573
0.00640201
0.00126845
0.002226
0.00655082
0.00736546
0.00158575
0.00235318
0.00276339
0.00558531
0.00655962
0.00539446
0.00425561
0.00125845
0.00149102
0.00607675
0.00129623
0.00199631
0.0056149
0.00733513
0.0059376
0.00613773
0.00101018
0.0022705
0.00104118
0.00296644
0.00358078
0.00654037
0.00152311
0.00713062
0.0035191
0.00386784
0.00135362
0.00134459
0.000838684
0.000829162
0.000686558
0.00455675
0.00658284
0.00459752
0.0070831
0.00642662
0.00077041
0.00564954
0.00745122
0.00525448
0.00398897
0.00473189
0.00166498
0.00535176
0.0025379
0.00505462
0.000992194
0.00743944
0.00322454
0.00504217
0.00403184
0.00455335
0.00144912
0.00543842
0.00486386
0.00608348
0.00510974
0.00487115
0.00292311
0.00236544
0.00653726
0.00150553
0.00502691
0.000972412
0.00164038
0.00742838
0.00745902
0.00452905
0.00374268
0.00727891
0.00155528
0.00743637
0.00745886
0.00643306
0.00528256
0.00149161
0.0045434
0.00331464
0.00316564
0.00593209
0.000797812
0.00514138
0.00399188
0.00253773
0.00719219
0.00415318
0.00280397
0.000185609
0.00114874
0.00116747
0.00749277
0.00497168
0.00519496
0.00742981
0.00561142
0.00289981
0.00440681
0.00617124
0.00754142
0.00581907
0.000773821
0.00135306
0.00310286
0.00230222
0.00365204
0.00219545
0.0017522
0.00197963
0.00251936
0.00613447
0.00541178
0.00072196
0.00698941
0.0042624
0.00111756
0.00235343
0.00392768
0.000227865
0.00215071
0.00124412
0.003888
0.00343691
0.00345713
0.000194592
0.000175687
0.00308482
0.00589905
0.0071593
0.00410118
0.000971495
0.00658561
0.000170607
0.00121879
0.00584477
0.000616246
0.00251894
0.00248459
0.00740738
0.00231983
0.0056598
0.00580018
0.00694191
0.00435848
0.00576293
0.00482791
0.00303219
0.00397601
0.00288953
0.00633885
0.00336121
0.00135956
0.00432758
0.00553894
0.00214254
0.00163295
0.00120853
0.00182549
0.000973103
0.00626521
0.000736658
0.000918835
0.00661219
0.000331747
0.00140474
0.000510162
0.00403527
0.0039481
0.00404137
0.00215109
0.0024007
0.00753411
0.00745682
0.00593581
0.0063202
0.000835222
0.00153714
0.000565141
0.000569196
0.00452275
0.00101877
0.00745279
0.00569409
0.00429633
0.00521791
0.00429015
0.00706069
0.00645487
0.00168013
0.000851417
0.0075117
0.00696273
0.00642077
0.00148414
0.00549457
0.0075706
0.00678979
0.000983356
0.00071115
0.00543346
0.000837128
0.00313531
0.00182436
0.000857324
0.00246737
0.00740256
0.00755203
0.00308586
0.000714977
0.00348133
0.0011338
0.00509688
0.00534739
0.000717931
0.000257639
0.000381344
0.00180787
0.00279969
0.00383464
0.0053311
0.00390915
0.00661375
0.000691163
0.00111983
0.000797243
0.000238583
0.00211379
0.00225724
0.00430278
0.000594932
0.00714565
0.000167106
0.00319771
0.000660397
0.00187031
0.001762
0.00566389
0.0026081
0.000384113
0.00175158
0.00749269
0.00602964
0.00396536
0.000913574
0.00142517
0.00412754
0.00662964
0.000318799
0.000571798
0.00666405
0.0013687
0.000772238
0.00111052
0.00710737
0.00735455
0.00112122
0.000576767
0.00266595
0.00725242
0.000962206
0.00738061
0.00103795
0.000563865
0.000628323
0.00208269
0.00450175
0.00207317
0.00750756
0.0062919
0.00508951
0.00209905
0.00678136
0.00613483
0.00703274
0.00470711
0.00620204
0.00435642
0.00672505
0.00379541
0.00744504
0.00751805
0.00241798
0.00303669
0.00211294
0.00408151
0.00104654
0.00412106
0.00393777
0.00341369
0.000965041
0.00726065
0.00444644
0.00187343
0.000189939
0.0058138
0.000862934
0.00432461
0.000911498
0.00193705
0.00114151
0.00702629
0.00597408
0.00636508
0.00469401
0.00707036
0.00475487
0.00426706
0.00551227
0.00668945
0.00643201
0.00737471
0.00665553
0.00189565
0.00663545
0.00246048
0.000492483
0.00385299
0.00531303
0.00626932
0.00378815
0.00116393
0.00104348
0.00420557
0.00258444
0.00410542
0.000990845
0.00208373
0.00339142
0.00122002
0.000221035
0.00151241
0.000848946
0.00459125
0.00178061
0.00121847
0.00578358
0.00411627
0.000862999
0.00480077
0.00506836
0.00257781
0.00686026
0.0023562
0.00262982
0.00330612
0.00296366
0.0019358
0.0038342
0.00732573
0.00740263
0.00257061
0.00338619
0.00216764
0.00133715
0.00620335
0.000931354
0.00333544
0.00338419
0.000278595
0.0027193
0.00751893
0.00212826
0.00047543
0.0053969
0.00246196
0.00752458
0.00287616
0.00115368
0.00612329
0.00749166
0.000428483
0.0016346
0.00201052
0.00176656
0.00552114
0.00494672
0.000909123
0.000360151
0.000567263
0.00665511
0.0062906
0.000269892
0.00481215
0.00260076
0.00438958
0.00262746
0.000868245
0.0073508
0.00309823
0.00064046
0.00392178
0.00688445
0.00558236
0.00442615
0.00429277
0.00121472
0.000220153
0.0059662
0.00446845
0.000670489
0.000494628
0.000443677
0.00229402
0.000594685
0.00340582
0.000380866
0.000940507
0.000613515
0.000858698
0.00379547
0.00643469
0.00165182
0.000731995
0.000254667
0.00739461
0.00746377
0.000782201
0.00661699
0.00275326
0.000409989
0.00636475
0.00393095
0.00677826
0.00613881
0.0057105
0.00738657
0.000279591
0.000825543
0.00171217
0.0024412
0.00235982
0.00659644
0.00281738
0.00651899
0.00281236
0.00662817
0.00726835
0.00665772
0.00576934
0.000889761
0.000834203
0.00731895
0.00220075
0.00688445
0.00381491
0.00489205
0.00147466
0.0041383
0.00636887
0.000804654
0.00138667
0.00594382
0.0021986
0.00348924
0.00140093
0.00547332
0.00488674
0.000829138
0.00208781
0.0010035
0.00354123
0.00178887
0.00360258
0.00649091
0.000388729
0.00751492
0.00739681
0.00280083
0.00273756
0.00130053
0.00426396
0.0020835
0.00377245
0.000587553
0.00386222
0.00344182
0.000961016
0.00743764
0.00457194
0.00591702
0.00188706
0.000292336
0.00541425
0.000619051
0.00515502
0.00346446
0.00104029
0.00631527
0.00517069
0.00683775
0.00599212
0.00123996
0.00150173
0.00175968
0.000454159
0.00323866
0.00323949
0.000267424
0.000929725
0.00369556
0.00137007
0.0015997
0.00561766
0.000595358
0.000294727
0.00264724
0.000676708
0.00136709
0.00290459
0.000683174
0.00245778
0.00439462
0.00375875
0.000634573
0.00150802
0.00752121
0.000866746
0.0036494
0.00118819
0.00660372
0.000926503
0.0040434
0.000968492
0.000613853
0.00552717
0.00450217
0.000134505
0.00753039
0.00452023
0.000823434
0.00666112
0.00294225
0.00157436
0.00219008
0.000284333
0.00108289
0.000102605
0.00190096
0.00100457
0.00142516
0.007388
0.00502537
0.0010778
0.00582888
0.00446339
0.00261057
0.00531272
0.00139235
0.000792902
0.00652731
0.00167871
0.00714001
0.000728719
0.00572576
0.000349515
0.0039049
0.00324486
0.00693005
0.00283345
0.00261116
0.00642512
0.00631555
0.00346459
0.00754285
0.000893837
0.00678737
0.00357191
0.00677761
0.00454028
0.00397006
0.00320233
0.00115084
0.00317819
0.00403276
0.00600519
0.00522204
0.00158348
0.0016047
0.000535747
0.000615496
0.00280613
0.000772469
0.00450055
0.0031569
0.00037609
0.00166873
0.00111409
0.00315753
0.00388231
0.00474064
0.000697895
0.00610359
0.000824428
0.00198824
0.00651434
0.00436178
0.00080438
0.005167
0.00082736
0.00469649
0.000835492
0.00214716
0.00092304
0.0025066
0.00233231
0.00228704
0.00203538
0.000879557
0.00335844
0.000880512
0.00702069
0.000778592
0.00687931
0.00660544
0.000854809
0.00521399
0.000538133
0.00126091
0.00569139
0.00175476
0.00493005
0.00137863
0.00106323
0.00696561
0.00676576
0.00170707
0.000584955
0.00632748
0.00280392
0.00160674
0.000934988
0.00447192
0.00623855
0.00129888
0.00671109
0.000647271
0.00713047
0.000838876
0.000231945
0.00481271
0.00456432
0.00676491
0.00443926
0.000623322
0.00119584
0.000589455
0.00593331
0.00472715
0.000147239
0.000579279
0.00722883
0.0029422
0.00532535
0.00715129
0.00124222
0.00510574
0.000467323
0.00428317
0.00407638
0.00225919
0.00694792
0.0061618
0.00688008
0.00622483
0.0017247
0.00224367
0.00296495
0.00151245
0.00124838
0.00329165
0.00710792
0.00265036
0.0016565
0.000757945
0.000824869
0.00144004
0.000416934
0.000900624
0.000993308
0.000530862
0.000728539
0.0052239
0.00127073
0.00152252
0.0014518
0.00609758
0.00151833
0.00325487
0.00187125
0.00034347
0.00064338
0.000737673
0.000850172
0.00713421
0.00417066
0.00700926
0.00706885
0.00704107
0.00292523
0.00560483
0.00412209
0.00742533
0.00348774
0.00135308
0.000747
0.00688597
0.000532899
0.00700788
0.00409363
0.00752179
0.00344703
0.00108993
0.00156881
0.00113411
0.00140124
0.0056832
0.00568353
0.0051188
0.00734301
0.00316414
0.00553858
0.00286697
0.00659304
0.000768519
0.00351462
0.00163753
0.00116336
0.00106519
0.00320516
0.00512562
0.00565301
0.0015442
0.000846941
0.000612843
0.0075153
0.00645041
0.000954599
0.00245447
0.000584668
0.00551996
0.00245794
0.00256043
0.00154101
0.00713106
0.0068628
0.0067666
0.00269151
0.00149674
0.00669836
0.000135299
0.00727377
0.00416724
0.0064266
0.00744485
0.00147276
0.00509678
0.00482667
0.000896758
0.00309758
0.00110811
0.00211232
0.00158735
0.00746071
0.000853778
0.00749351
0.0073297
0.00104061
0.00570074
0.0028921
0.000821877
0.00712843
0.00234053
0.00108931
0.00185825
0.000798398
0.00049634
0.0033501
0.00238546
0.00296458
0.00613546
0.00238395
0.00252388
0.00468242
0.00618797
0.000851398
0.000893803
0.00127018
0.00147296
0.0015444
0.00113923
0.00103118
0.00361487
0.00210824
0.00173592
0.00559971
0.00699462
0.00535963
0.00676195
0.00339964
0.00450907
0.000705834
0.00469018
0.000495124
0.00462568
0.00739272
0.000552773
0.00290494
0.000463442
0.000605938
0.00734819
0.0053345
0.0010274
0.0024891
0.000761735
0.00145439
0.00188034
0.00139965
0.000753615
0.00378191
0.00255125
0.00154657
0.000449141
0.000745499
0.00266228
0.00219515
0.000705948
0.00091744
0.000162552
0.000777145
0.00069672
0.00101986
0.00156896
0.000465484
0.00477078
0.00197534
0.000607622
0.000855938
0.00236363
0.00147472
0.00366539
0.000407919
0.000846484
0.00373025
0.00572969
0.0044001
0.0041977
0.00605663
0.000658596
0.00138093
0.00286846
0.000592112
0.00449432
0.0026777
0.00382731
0.00661978
0.00122601
0.00476861
0.00176574
0.00543238
0.00230741
0.000306439
0.00686876
0.00696643
0.00315379
0.00551887
0.000648123
0.00229633
0.00617652
0.00702529
0.000483276
0.00743628
0.00337195
0.00645091
0.00256057
0.00493563
0.00517188
0.00402316
0.00693185
0.0002551
0.00442615
0.00222079
0.00683991
0.00706233
0.00724943
0.00549399
0.00347864
0.00362354
0.00747762
0.00548013
0.00479687
0.00303906
0.000693541
0.00120905
0.00402713
0.00192277
0.00458044
0.000962716
0.00303422
0.00455956
0.00653073
0.00117048
0.00415674
0.00237232
0.00198126
0.0024094
0.00463202
0.00103695
0.00408713
0.0015417
0.00118757
0.00637106
0.00103697
0.00369293
0.000967069
0.000223222
0.00129611
0.0024183
0.00165143
0.000422163
0.00348068
0.00713686
0.00593319
0.00696364
0.00690798
0.00428908
0.00734653
0.00749307
0.00248385
0.00477475
0.00713415
0.00455358
0.00716316
0.00370403
0.0027367
0.00158506
0.0035247
0.00267762
0.00616795
0.000611411
0.00352157
0.00729717
0.00509883
0.000573567
0.000255185
0.00103768
0.00192518
0.00513384
0.00485319
0.00651963
0.00051985
0.00170773
0.00618364
0.00411611
0.00688017
0.00544951
0.00273196
0.00678356
0.00347955
0.00455438
0.00123611
0.00108802
0.00232556
0.00107352
0.000268626
0.00184354
0.00193262
0.00597343
0.00564887
0.00425598
0.00154724
0.00715574
0.00646037
0.000309162
0.00716213
0.00100722
0.000459836
0.0016751
0.00305448
0.000627928
0.00204948
0.0031695
0.00435452
0.00711211
0.00273953
0.000707988
0.00432085
0.00168786
0.00208196
0.00172479
0.000505311
0.000510241
0.00437987
0.00451492
0.000926539
0.00669458
0.000604771
0.000616991
0.000562851
0.00184637
0.0073408
0.000885001
0.00685475
0.000377235
0.0029959
0.00408904
0.000524711
0.00108044
0.00307918
0.00347043
0.000396513
0.00734806
0.00738782
0.00700053
0.00695931
0.000958982
0.0071324
0.00158993
0.00651284
0.000237204
0.00398271
0.00293603
0.00648442
0.000210524
0.00496759
0.000323698
0.00534632
0.00630262
0.00453725
0.00104337
0.00424804
0.00426552
0.00571501
0.000566646
0.00219043
0.00166319
0.000828419
0.00388692
0.00679568
0.00141443
0.00620131
0.00341734
0.00378248
0.00705269
0.00397357
0.00583944
0.00722289
0.000332397
0.00133052
0.00472506
0.00725335
0.00203095
0.00529471
0.00598223
0.00673865
0.00480426
0.00042332
0.00470631
0.00663979
0.00528959
0.00289068
0.00650206
0.006796
0.00463832
0.00406005
0.0063141
0.00692212
0.0071486
0.00323362
0.00684764
0.00122968
0.00257819
0.00590796
0.000809537
0.00674468
0.00287903
0.00184737
0.00191392
0.000544206
0.00442886
0.00105991
0.00192513
0.000738311
0.00377674
0.00378529
0.00122054
0.00690042
0.0041874
0.00183702
0.00203457
0.00697205
0.00534856
0.00633143
0.000249906
0.00725282
0.00620334
0.00351265
0.000263298
0.000736137
0.00704865
0.000168074
0.000334968
0.000540521
0.00100449
0.000800053
0.000777375
0.00614462
0.00234746
0.00195442
0.00745783
0.00121561
0.000461175
0.00215562
0.00614191
0.00452339
0.000517526
0.0061295
0.0001762
0.0073794
0.002098
0.00706097
0.00136949
0.000431066
0.00693978
0.00129727
0.00279208
0.00629316
0.00245965
0.0074086
0.000788893
0.000317293
0.000273925
0.00131358
0.00159561
0.00085884
0.00660447
0.00667902
0.00663852
0.00445564
0.00744895
0.00242881
0.0074119
0.00102927
0.00367351
0.00548348
0.00698907
0.00289701
0.00397299
0.00568868
0.00392081
0.00745201
0.00404577
0.000662368
0.00583475
0.00157636
0.000726289
0.00656397
0.000228449
0.000346315
0.00091278
0.00290778
0.00185251
0.00129696
0.0066155
0.00223311
0.000838364
0.00410554
0.00192594
0.00701991
0.00183214
0.00606899
0.00356953
0.00360924
0.000450423
0.000887035
0.00455252
0.000715998
0.0017782
0.00157263
0.000630615
0.00334554
0.000876479
0.00628266
0.00237166
0.00273665
0.00657396
0.00106001
0.00336573
0.0048023
0.00741905
0.00223383
0.000687007
0.000701584
0.00664441
0.00439254
0.000869456
0.000758351
0.00202337
0.00562905
0.00316951
0.00133849
0.00233262
0.00177245
0.007312
0.00136605
0.00438761
0.00661336
0.00357005
0.000311024
0.00598758
0.00183297
0.00315484
0.00410303
0.00282451
0.00282058
0.00745515
0.00585758
0.00201666
0.00147655
0.000652888
0.00674939
0.00100996
0.00211288
0.00632605
0.00187554
0.00192401
0.00135683
0.00289588
0.00652518
0.00719835
0.00593101
0.000407916