/*--------------------------------*- C++ -*----------------------------------*\
| =========                 |                                                 |
| \\      /  F ield         | OpenFOAM: The Open Source CFD Toolbox           |
|  \\    /   O peration     | Version:  2506                                  |
|   \\  /    A nd           | Website:  www.openfoam.com                      |
|    \\/     M anipulation  |                                                 |
\*---------------------------------------------------------------------------*/
FoamFile
{
    version     2.0;
    format      ascii;
    arch        "LSB;label=32;scalar=64";
    class       volScalarField;
    location    "0.00482047";
    object      omega;
}
// * * * * * * * * * * * * * * * * * * * * * * * * * * * * * * * * * * * * * //

dimensions      [0 0 -1 0 0 0 0];

internalField   nonuniform List<scalar> 
47425
(
51.991
70.1591
54.5974
115.715
65.1351
60.1909
69.7154
82.7839
55.8745
91.2348
126.454
51.4578
58.5166
59.9741
67.9721
94.5755
53.2328
74.3759
691.851
81.9935
58.6645
51.2466
94.3762
53.5241
51.252
52.3022
59.7974
584.89
56.821
56.3294
56.0218
50.4071
57.0181
55.5305
51.4958
56.855
50.5134
77.9438
69.3813
63.0102
73.8126
50.6052
51.0618
146.127
1362.32
109.622
76.4724
67.2392
65.6282
51.7662
363.777
57.5527
54.2015
192.608
114.94
101.072
50.0738
62.2581
63.3888
61.3675
320.547
1394.83
301.454
56.3
60.4531
53.7253
59.3126
52.5414
349.416
54.8062
59.1425
54.4334
53.4914
63.1248
174.286
57.9648
359.3
70.3259
1065.67
74.7367
211.497
55.4181
52.4855
54.2285
50.8536
60.4672
51.6469
50.1125
52.5791
100.647
51.777
76.203
51.7551
95.4107
147.635
164.453
50.8626
50.2201
61.1106
80.9974
53.8678
85.874
52.058
92.4447
50.8957
53.2715
52.7931
55.7448
49.7462
52.1153
139.446
53.0791
54.3805
128.259
57.4516
758.704
56.5169
151.097
83.7091
59.1844
53.3619
58.7515
54.4951
63.6769
95.167
55.4226
70.4192
52.6623
85.4406
51.6849
51.9373
103.638
106.081
125.317
53.476
68.8581
56.6933
55.9957
59.195
68.4865
69.693
134.976
56.5366
56.1312
54.4672
56.0069
55.7298
53.9182
131.692
74.35
54.9774
373.125
58.2569
602.963
53.7671
78.8304
55.3837
702.636
96.1335
67.6473
56.567
50.7882
53.0631
52.1079
119.833
653.921
49.7166
185.869
91.8074
521.796
200.403
90.0248
63.797
53.2329
75.1865
72.4573
608.636
54.8521
53.5486
49.6514
786.494
51.2369
54.9624
54.3763
51.3394
51.6161
51.4056
70.9269
121.084
51.7536
55.577
57.1182
72.9229
81.4171
49.9176
52.4069
68.2989
57.4482
54.1083
55.4798
63.4201
111.688
50.7904
52.4349
55.8078
133.143
54.3883
52.2856
90.4651
65.9861
54.086
56.6286
53.4157
58.5135
56.5978
58.2779
60.4364
77.7366
55.3115
96.5313
78.4484
65.2298
51.9934
67.8681
165.343
72.2785
50.8051
106.514
59.887
62.514
57.6615
65.2
108.722
50.7123
138.778
71.388
85.6825
120.52
74.5746
149.425
54.6164
55.7994
50.501
68.2928
52.663
75.9771
51.3642
81.5022
50.0057
63.7307
50.7673
70.3264
53.121
57.0172
72.9527
51.2961
50.9352
114.246
60.0879
60.5022
125.899
53.6826
55.2058
117.045
62.1391
93.6801
50.1686
61.8356
53.9325
64.5096
59.7604
71.565
82.1218
56.3263
72.866
153.713
72.165
141.967
79.3401
166.482
294.201
50.9684
311.887
126.413
61.1167
60.1423
90.0621
55.0293
92.6488
57.4018
440.828
56.7743
56.4483
51.7705
51.7921
90.976
78.7169
58.8443
54.25
60.1885
93.4717
53.5308
91.8245
51.5311
510.749
798.307
499.085
49.6337
50.2414
54.7031
90.1043
499.409
67.7052
103.094
78.8231
77.9011
87.5476
124.378
57.5213
191.646
74.6335
51.0012
52.0202
50.0954
86.5631
50.0353
61.3634
52.143
51.3715
64.8004
58.6822
291.466
55.8393
57.5718
129.341
52.2713
319.164
50.9772
49.6566
56.4905
56.3718
55.025
50.4137
50.8733
51.3506
58.4511
62.51
54.1982
57.8396
88.698
55.3063
53.4657
56.0672
51.6966
53.1119
58.8167
70.847
52.2318
53.4777
84.676
64.9079
57.4418
84.3954
68.5569
54.7607
51.383
134.419
57.3846
60.9569
54.5807
134.03
543.288
55.8368
51.4411
199.18
51.2871
52.0898
96.3051
79.0961
50.9523
65.9421
52.3931
50.0747
68.8101
89.406
84.6555
75.4197
53.6885
55.4005
71.288
51.5833
55.1905
69.2015
56.7028
59.947
51.9306
53.185
76.1284
65.9665
51.8698
194.135
50.1666
75.9488
74.835
108.454
107.013
50.5547
121.218
49.88
86.5967
53.445
1039.73
201.338
54.9506
59.7657
63.943
65.703
64.8973
71.4853
59.0439
83.4988
69.5409
53.0674
71.6528
55.3794
51.5501
59.5004
58.3144
53.7379
109.159
1035.74
53.1029
241.455
728.701
92.5493
804.385
463.824
52.1197
57.0361
55.7524
56.5579
447.227
93.9008
51.3551
51.4003
56.5739
57.1284
70.6973
62.8877
179.963
350.228
95.8127
66.4289
74.044
54.4498
55.6688
53.1922
58.53
52.7303
76.7099
76.7347
134.367
71.4217
52.7065
57.3169
52.9395
82.5688
54.8345
56.7046
63.8564
60.4697
63.5585
110.175
128.15
62.5475
87.6294
53.1952
162.988
104.049
67.7073
52.3673
142.562
56.0253
59.1424
50.9852
60.5048
55.3466
57.7171
58.5568
110.921
54.7451
58.4989
53.1322
154.485
90.2622
52.9015
61.9553
51.8505
62.7246
50.0781
59.8968
50.6244
60.3839
55.789
101.606
56.6026
50.6745
50.0566
57.8316
66.0236
116.741
54.4352
51.9074
51.9254
51.5287
51.3813
56.9875
74.1172
64.4658
57.9914
74.9049
103.131
299.099
62.3486
60.1772
56.6034
54.9203
79.8095
78.5571
80.9477
55.2471
84.3059
63.648
53.3818
83.7085
53.7229
319.408
60.8966
58.9669
64.2442
79.6056
50.2054
54.7593
57.7084
52.0119
53.452
53.2757
749.816
51.9148
151.745
52.5951
72.6547
58.2546
61.4647
70.4616
69.4741
68.3308
51.2572
253.947
51.3173
51.6891
53.8046
51.7533
50.7101
70.2986
62.2152
63.4053
53.9061
58.2265
50.5093
103.629
54.723
55.6153
225.23
62.1841
54.4081
132.55
214.939
50.4298
757.218
766.697
53.9922
55.6993
51.1924
52.7581
87.2285
93.4531
168.261
57.2088
134.588
55.6707
69.1465
69.0584
86.9103
53.9773
168.082
57.9838
56.4566
66.5155
62.4018
57.6819
108.623
126.584
51.3831
86.8161
134.187
64.0471
69.6122
68.2888
60.3383
52.5505
73.9849
83.1382
55.0499
114.53
106.634
52.2778
75.9884
54.1468
59.5895
63.9882
53.8935
52.2506
1357.2
53.8956
62.4501
458.712
510.998
49.5165
79.1736
1283.84
177.356
80.8512
84.186
120.88
219.987
56.8986
49.6816
61.3604
65.6844
114.387
115.116
50.8428
120.762
57.5261
63.2986
53.2361
74.0747
55.2574
73.7164
440.262
117.549
59.6689
81.9989
54.0231
110.596
53.7983
59.0972
72.4876
59.1198
55.1256
188.647
68.8421
56.3351
79.4918
192.763
481.232
116.778
85.4011
53.7059
73.7111
50.0173
580.681
62.6394
169.797
74.6212
65.1689
59.9568
63.8907
63.5605
57.3837
79.0985
66.402
51.1001
206.852
55.9617
56.2974
59.9584
84.1687
586.646
59.5845
204.972
58.8715
54.4297
50.6273
147.866
57.3517
60.6714
49.9567
60.4026
59.1552
70.2614
61.4211
65.0402
53.5326
104.107
165.499
56.8308
86.5471
57.4924
96.5159
60.3551
50.0986
55.5607
58.072
54.7765
58.6899
51.9163
249.65
82.7323
71.2841
55.4394
51.7621
77.9482
50.2793
121.366
54.2052
85.9745
87.4356
50.2701
65.0655
50.8847
51.603
62.6183
51.6033
80.4941
51.8095
51.6465
59.3867
134.355
50.0988
166.474
73.9604
102.861
406.405
73.2178
54.9442
59.6173
63.0277
130.846
357.265
225.449
56.8095
53.5424
57.0799
122.964
117.872
127.824
84.9081
52.9999
52.9319
66.172
118.108
56.2523
86.0808
228.04
59.9346
59.4741
155.761
105.962
109.468
53.9489
501.99
230.021
171.587
174.449
90.0113
124.953
50.5651
51.0354
61.7209
437.036
190.992
60.5988
69.8423
49.6708
201.895
399.958
50.2934
170.542
76.1356
50.2105
169.425
50.3319
50.5596
61.206
68.4465
77.2506
50.4882
49.7181
52.6689
70.8675
69.2219
97.8253
79.3992
50.0296
265.824
52.3924
50.2179
51.2293
207.044
81.595
119.609
64.8376
53.2306
58.8122
67.6249
875.314
61.9906
66.3201
74.8267
66.5275
54.1303
121.424
105.632
129.722
171.037
65.5143
510.024
55.626
69.3826
51.122
62.2632
52.9622
148.509
116.255
53.2218
207.01
99.1813
59.9309
106.228
60.3836
50.9758
67.1423
66.2867
66.3287
72.3921
402.026
60.0117
60.9661
183.479
220.92
543.895
218.947
90.9539
165.436
55.7703
50.5477
62.8237
70.3315
66.8273
80.1409
84.5147
66.3941
55.79
53.276
111.47
94.1689
80.5972
56.1363
1438.66
66.3217
53.1372
68.9907
92.9591
69.6851
205.74
94.9886
66.8753
98.3982
94.5478
55.1263
52.1109
56.1435
97.7955
153.29
85.7502
61.4894
83.9423
50.1562
109.111
110.122
89.7306
73.4302
50.767
67.3728
132.925
97.4893
67.8459
58.3404
106.683
79.9541
71.3602
61.874
147.491
59.4971
55.479
57.8899
85.5237
52.1507
146.201
53.5672
226.183
305.204
60.0074
64.8234
85.5861
60.8593
67.7419
102.466
384.275
63.4107
389.631
54.2733
64.3027
60.3276
91.8516
65.7589
112.77
235.752
234.192
56.1494
267.443
65.6776
60.1528
57.8347
60.0428
53.8698
67.7596
70.4318
61.9317
56.9963
50.5339
62.3045
188.706
593.643
117.539
110.96
454.775
189.95
94.7504
69.2881
56.1416
85.21
144.996
189.024
211.674
56.8697
57.2171
57.2229
59.6187
64.8306
102.657
64.5198
55.8856
87.5421
52.13
70.5689
50.5909
54.1734
102.385
60.9035
112.503
59.2376
58.0318
163.208
51.4957
63.6804
64.2344
57.7703
68.3621
92.8532
69.9842
63.9119
53.9951
107.657
185.148
105.097
70.5786
1462.67
777.992
78.8245
441.377
108.863
57.1447
1484.07
227.773
59.7416
71.4217
101.328
88.7664
269.324
119.563
55.5079
117.107
64.049
52.4421
159.474
753.623
79.8843
1177.88
123.535
188.898
1583.85
51.5704
80.5805
117.832
92.5294
97.8072
57.9237
60.3791
669.947
51.4924
92.7276
57.2463
128.82
50.0884
53.1328
75.0481
75.3913
86.9017
67.3808
61.6615
125.897
55.7772
49.9644
64.9233
82.118
67.809
59.357
842.676
340.495
97.3116
88.8366
60.905
71.2215
153.57
65.488
101.395
77.8
56.3225
78.7985
73.9023
1021.88
61.5047
58.3664
55.882
57.6558
61.034
69.151
114.501
58.4689
56.3255
54.4324
56.6922
164.074
1336.72
55.2319
194.598
66.4486
57.5335
95.4522
53.2224
66.6637
64.0709
63.8242
200.014
56.5114
321.636
50.6814
709.49
750.215
93.4297
200.778
52.5946
66.6285
106.751
51.6952
170.953
1651.83
108.382
216.108
161.589
283.48
91.8963
628.343
350.895
83.3224
51.1736
2381.86
64.733
55.1594
62.1446
237.488
1203.04
58.7641
58.3289
203.564
73.3096
229.418
580.017
100.274
120.065
702.597
108.5
56.2355
417.258
55.2592
832.122
969.705
51.0344
59.4184
71.5203
55.7507
126.064
74.7786
53.1577
126.722
91.3108
103.979
57.7701
55.5505
104.114
52.8006
646.952
60.4931
84.0627
66.0167
52.8626
470.639
60.3403
118.153
128.154
78.9731
68.8847
242.272
181.792
126.42
55.8257
1278.81
159.67
72.4767
71.7855
118.023
62.3944
75.7657
57.0564
225.269
366.81
71.9288
549.13
150.143
89.0411
113.668
130.959
104.855
539.737
62.4387
50.6011
119.152
74.8248
149.788
81.1211
487.959
53.6963
56.933
64.291
813.412
62.5774
333.915
66.3122
56.4502
53.908
67.431
65.8479
136.077
96.4897
59.598
68.405
86.7629
68.4645
792.791
78.992
65.2577
646.475
179.609
123.492
71.2733
67.2516
62.4774
577.799
66.8643
607.858
66.5114
57.547
64.1264
58.5987
95.856
58.217
71.1896
73.5766
65.3504
54.3486
67.2869
66.3179
53.2399
66.8256
203.08
158.196
66.6717
53.35
654.119
206.576
69.0076
177.278
161.8
52.0801
98.1011
511.222
227.504
57.8408
64.5939
66.3603
72.0761
107.577
52.2011
435.921
75.2797
54.011
69.3374
111.11
71.1635
130.765
67.975
157.733
49.7496
318.828
111.263
553.087
146.89
61.0599
122.176
72.0534
62.1158
65.1265
68.2975
67.2039
571.952
61.4307
59.0823
492.138
50.3871
62.5465
310.607
63.9491
73.6417
264.803
128.626
77.0558
61.9422
762.153
82.3031
211.477
84.0557
70.5271
61.5578
92.2924
159.055
286.993
57.7283
81.1602
58.4741
81.0556
77.7202
132.252
263.891
96.658
51.2292
63.1048
53.69
57.6987
88.529
54.352
59.3828
124.37
83.6239
53.6805
133.902
66.5041
66.4535
53.9244
133.499
63.4901
58.2042
50.7487
107.001
81.9897
56.2629
97.7666
403.341
80.3707
54.7421
52.5992
51.4811
125.095
53.119
52.647
504.052
264.766
176.996
54.8725
382.355
139.768
50.3633
759.122
110.789
761.246
97.7916
64.1729
85.7278
69.0286
50.1439
86.3869
84.5077
94.4796
101.042
60.1394
107.457
117.949
74.7508
67.5121
264.621
70.2569
1297.53
71.8912
458.783
49.9701
122.536
188.049
52.9099
68.9817
168.091
50.2731
198.269
106.086
835.247
61.9286
100.433
52.4409
109.011
64.1457
52.6897
327.535
56.2153
144.877
53.7398
365.063
518.61
72.1342
49.9356
271.159
74.6244
271.67
55.3891
98.9027
61.3869
61.7753
55.4467
58.8384
57.7249
116.212
58.5088
177.447
88.9797
57.0553
52.6544
130.208
214.256
81.7683
96.129
51.4872
57.6164
122.987
85.1424
57.9086
51.2635
156.318
114.716
58.6471
58.7191
59.5232
71.5752
87.7373
71.101
118.176
62.924
93.83
64.7644
66.9579
51.538
58.8875
50.6622
175.768
168.399
200.068
105.262
69.632
58.2304
66.7823
53.612
52.2453
58.1214
354.19
129.497
548.628
377.871
503.609
56.2121
58.7446
54.4226
53.8406
51.9699
209.19
70.3414
51.0125
72.2904
95.9502
59.3191
91.8025
55.9098
148.344
61.979
104.547
51.1333
65.6489
74.6419
93.7455
60.8404
120.061
73.4434
70.2534
60.469
59.3098
77.6212
130.416
162.24
51.5897
86.1376
76.8186
99.6577
169.6
50.9954
50.5406
86.1239
56.4245
51.7361
78.6535
51.2101
51.3105
60.8129
72.0463
97.0019
65.575
75.4988
55.8731
57.7338
455.616
73.8869
87.8435
57.0998
52.9025
91.6524
87.6073
716.247
110.826
89.9352
49.8272
53.4631
74.1135
52.5228
51.4368
109.804
87.647
50.8242
49.9943
69.1969
91.581
362.191
123.057
78.8352
95.8951
77.363
109.078
69.694
152.95
62.6542
65.4019
665.502
54.9132
70.6699
92.6154
89.3569
54.0298
795.39
63.094
98.2153
56.7888
111.44
62.6189
829.06
811.364
60.81
51.2128
51.424
93.2641
98.8103
54.8794
945.86
198.812
54.4873
143.927
154.558
57.0955
51.1622
65.3213
52.1862
58.1983
55.8741
63.1468
58.6217
78.7848
70.0382
53.5852
67.2513
60.2947
59.2359
92.9334
68.4262
63.6187
81.1124
134.502
97.055
105.72
133.957
62.5096
134.449
128.343
60.5788
461.746
98.6735
132.2
60.4799
95.8736
94.3551
93.2394
133.463
51.2675
50.6363
66.0761
60.9738
112.409
70.0044
237.915
419.689
54.3188
132.33
51.1667
51.1889
81.0494
56.9734
61.6486
51.1402
50.997
222.412
391.487
49.911
52.3382
59.56
453.734
58.5601
51.7994
57.0982
105.576
717.916
56.4589
219.402
68.2461
97.2797
269.81
72.805
51.0224
50.4475
69.1528
756.157
52.4166
87.329
74.9055
51.6766
493.152
887.78
907.586
215.713
141.318
54.9392
56.8557
65.4173
58.622
371.019
282.32
407.22
482.483
177.873
65.5482
54.5363
676.529
53.6561
703.95
96.6128
693.785
82.534
92.792
53.1067
60.0642
170.265
170.967
51.2212
61.8928
78.7608
78.2603
69.5849
76.3951
58.0566
696.787
592.216
57.6518
102.586
460.212
97.6821
53.3697
51.731
336.088
202.325
146.463
55.8677
651.389
51.561
440.737
1241.87
541.554
83.698
54.238
56.9209
49.3268
61.124
73.799
92.2273
56.9386
61.8744
53.3021
79.9563
55.3634
52.7665
51.5629
75.8441
51.6977
50.4086
79.1197
55.6217
76.1986
93.4077
156.497
92.5845
51.6792
56.931
96.3376
51.2948
84.6041
86.399
1058.18
68.2649
257.98
66.0699
97.3069
68.0266
72.548
54.8024
51.1088
62.6734
81.017
51.7694
79.8658
88.3026
68.9098
57.7731
61.4702
51.3582
55.6891
113.658
58.4633
101.154
195.602
74.893
72.857
60.5635
99.6075
76.7032
91.4546
55.8564
68.1496
92.3226
98.0291
125.92
65.2756
109.926
798.657
244.575
186.173
81.391
64.7869
116.142
64.7675
54.4513
96.4439
79.4171
75.2358
62.5366
56.5004
164.23
97.201
117.255
79.0698
200.062
63.309
52.07
52.0447
59.7318
57.3726
84.0581
87.1824
54.9145
81.4486
112.274
67.4564
680.999
60.6897
51.4125
100.662
247.348
73.1883
155.964
50.0571
134.383
69.692
64.8101
51.4453
412.06
83.8706
60.0707
111.88
53
60.9365
117.121
723.264
649.888
52.9984
61.7625
956.337
54.6593
68.7627
64.09
151.464
229.258
52.1542
78.5975
824.223
93.9068
55.774
54.4453
85.7891
63.3577
70.837
354.163
55.7001
84.5171
529.425
128.791
384.013
75.6581
264.989
54.7789
820.656
107.532
107.477
259.209
69.106
60.35
232.53
218.236
268.59
53.0461
51.4947
429.666
58.6494
87.4476
296.634
60.9181
58.5331
57.0848
63.7956
65.8722
51.1971
670.928
407.404
80.5027
158.427
164.461
57.7223
79.5037
59.3356
102.353
55.4132
52.8564
57.8121
59.5272
367.875
385.538
52.2407
61.2249
52.96
68.5861
61.5171
106.835
85.1795
61.195
409.593
64.6463
66.1656
177.311
109.54
244.919
56.7316
77.9762
152.371
137.75
90.8565
67.1315
133.507
106.593
52.8741
645.697
50.42
50.8857
59.4834
87.9506
73.6155
90.828
75.423
90.9929
128.446
69.2341
111.668
103.184
51.1777
60.0465
51.1552
87.4528
1104.9
70.7755
261.272
63.6245
56.7061
109.682
61.7069
58.7613
56.7322
65.005
347.642
74.4928
60.6786
237.741
76.1222
62.4171
1643.27
264.065
53.4718
76.4586
63.95
64.1463
183.53
339.305
145.314
542.679
65.4012
54.264
120.409
57.0194
54.8848
90.2746
177.87
233.554
50.4286
100.894
60.2702
144.95
58.7501
144.569
75.7462
83.6797
169.052
57.9499
69.7472
600.009
50.6754
54.2842
119.131
57.7985
130.841
77.7938
60.7754
852.554
384.362
656.663
180.17
121.452
66.898
51.3196
54.2089
81.5129
51.8036
83.9931
148.187
55.09
71.7375
442.971
55.3824
89.1423
54.6524
108.033
59.3504
610.607
98.9169
70.5764
56.7027
134.206
148.207
55.2534
62.1671
88.6744
50.6255
164.955
55.6089
107.249
57.0398
55.8305
93.3769
57.9502
130.978
70.3715
54.0972
66.6212
54.4555
70.8473
238.517
157.049
118.064
92.8332
413.41
88.8184
65.2741
744.632
225.724
101.542
59.9987
72.3268
83.9809
193.891
64.0857
373.994
62.5552
60.1071
70.2071
225.857
67.6582
398.429
65.6955
402.221
69.0136
80.3186
162.94
163.492
167.138
61.9152
377.104
114.602
134.527
55.6051
214.118
55.9637
59.6034
90.5544
72.8358
276.209
76.2846
58.0079
163.86
63.7367
87.2623
113.806
55.2135
57.0345
70.1693
443.941
61.6478
115.031
71.5435
102.634
55.9872
53.1792
95.3301
57.7414
147.7
55.451
100.783
312.478
57.0507
56.8251
57.4663
61.2605
499.588
138.943
147.66
65.4922
58.2695
1003.38
1222.89
51.8637
130.845
52.8131
54.6059
195.021
62.8362
331.781
59.3525
55.3513
76.2825
55.8649
64.0495
54.4143
62.8312
138.544
79.3431
137.23
118.723
67.5977
65.124
53.1996
144.099
272.061
569.264
81.9586
157.45
188.514
282.719
76.6471
347.415
102.478
55.1911
128.966
89.5192
274.572
64.3587
88.1172
98.654
63.329
893.005
109.48
205.132
108.947
53.9617
91.0015
55.1118
54.6483
53.2298
62.9089
67.6898
91.1412
50.7567
101.519
159.715
110.341
55.7565
130.583
57.8806
62.8095
50.185
70.0517
76.2016
145.764
74.2335
99.4703
63.7905
59.8659
74.2312
51.853
63.343
59.4743
58.1615
58.4858
100.135
64.0259
66.2017
129.245
72.5606
61.7406
75.1025
67.7143
93.4503
129.722
183.417
49.8511
60.9072
353.647
157.705
157.401
55.0199
157.946
70.0268
84.7882
53.5304
56.3771
56.7914
66.313
67.8043
57.1255
551.465
52.7154
95.0989
53.5457
51.1957
103.305
75.5517
57.6616
108.055
57.1977
86.7615
61.0556
78.6282
51.5669
111.714
51.0124
53.8554
82.868
62.4377
133.608
92.2777
55.9577
78.123
79.1767
74.8706
96.0395
522.221
55.23
69.0663
132.29
64.1329
60.4126
128.338
56.7917
50.6794
109.462
135.057
127.935
86.9153
114.906
112.837
301.919
54.1997
183.072
66.1117
67.0764
55.8468
60.1292
57.0945
62.5121
76.1973
165.651
60.2217
448.32
73.3256
52.9166
264.756
133.01
1604.43
203.235
52.339
73.0257
93.8037
123.383
429.192
68.0689
204.5
85.6825
424.862
64.3242
132.252
70.6165
211.036
137.902
128.194
172.87
460.349
723.256
1272.66
168.753
154.496
169.94
238.207
275.205
58.2354
103.145
187.115
82.7995
169.536
63.3559
103.933
484.158
128.573
103.032
65.7224
52.6544
91.1391
51.4293
146.722
131.116
86.1116
156.21
60.3276
142.161
59.9283
58.443
117.08
64.9803
220.111
53.9842
69.4128
672.106
55.7374
55.8103
63.9891
54.0453
202.353
67.6668
63.6097
55.0707
146.617
50.8528
67.0092
57.0688
65.9673
77.9624
72.3823
51.86
55.3461
287.752
55.6744
62.5415
56.5655
56.7171
53.4368
55.2024
67.6598
88.5341
50.5995
62.6837
80.3119
63.9642
158.278
79.8236
59.3966
62.4873
72.9183
141.905
110.727
82.6406
60.2438
120.071
80.4377
65.4912
59.6134
80.0462
63.8715
85.7698
67.4739
132.429
70.6246
60.9308
99.3215
76.7468
430.646
983.479
131.612
63.5983
70.0299
139.215
67.581
54.4268
51.8146
55.4586
55.4638
69.8722
52.1353
52.7081
57.5373
79.9038
53.9136
54.1152
53.7121
61.8458
68.9324
62.9408
107.845
54.6923
62.372
202.657
58.8436
51.5073
62.9145
390.581
1763.25
102.264
85.0259
56.7287
61.397
59.4727
163.992
74.5377
61.2098
93.159
56.4713
70.4616
61.1402
57.7383
101.949
60.1519
65.4563
202.015
74.2135
66.6122
1584.85
78.1781
202.205
66.1207
67.6615
88.7624
116.854
53.7498
59.2008
305.806
54.335
204.888
437.582
111.768
128.599
527.638
74.0068
61.2347
85.8614
55.2103
124.066
190.974
87.5279
78.402
61.9215
106.938
761.834
528.296
87.5823
56.7769
101.335
57.0366
145.293
131.382
407.692
58.3221
51.4578
468.971
56.5681
185.64
68.0833
92.2037
485.746
219.983
53.782
52.1394
478.66
52.0316
51.3315
53.7684
56.1822
85.4473
53.5388
117.568
59.8746
494.73
97.2743
59.3848
58.0313
615.011
76.1982
443.745
58.5434
59.9091
74.8626
80.7391
55.0939
59.3997
53.8992
401.187
78.2822
80.4238
299.254
98.1669
56.9108
247.411
63.0181
113.182
63.4924
54.8888
95.5921
67.3292
51.6197
236.459
77.2849
62.8406
51.9122
66.5516
59.8871
59.771
57.1399
54.6268
159.923
58.3059
58.6661
72.7502
82.4714
59.3697
56.3434
56.507
93.7972
50.0493
55.2172
53.5765
117.569
56.4084
142.572
150.847
65.1887
413.143
57.7154
68.3866
159.27
198.192
592.773
76.0016
123.481
68.0175
461.829
96.2428
104.442
95.881
56.4695
79.1671
212.293
95.5183
55.0442
55.2989
53.2544
441.616
52.7533
64.1616
66.8755
2137.45
429.976
55.3968
1209.27
375.089
287.174
90.896
945.457
414.03
63.1529
166.636
93.3151
51.1644
89.6418
879.029
71.4287
51.6956
56.4589
429.184
64.2815
860.299
52.4428
130.463
55.394
128.959
291.364
56.5836
119.267
102.095
54.492
104.796
50.9139
128.382
1275.74
1358.89
289.115
87.4685
119.181
52.6358
54.2027
52.0846
86.3261
50.7761
67.3345
52.2334
77.2397
91.2983
55.774
55.5711
76.3543
56.0136
67.3991
98.9051
52.2718
95.3401
121.122
61.3608
61.3442
682.045
58.5461
660.013
444.019
132.428
133.221
69.1743
103.424
58.7754
64.2726
146.627
52.8476
69.5181
54.6897
62.4274
62.1757
107.564
72.4951
165.485
114.725
60.7394
267.755
63.1291
130.903
141.319
70.5237
329.019
62.183
61.8517
60.7132
58.6213
74.1731
58.0799
72.6734
51.5013
173.437
171.014
450.605
58.4635
67.2113
80.0161
417.944
67.5937
69.1464
120.983
71.6252
163.801
67.647
52.6292
72.1018
86.8862
58.7547
83.4904
1607.13
57.1148
62.1408
121.748
56.5487
112.819
137.862
50.9668
59.0109
66.9139
170.02
394.496
56.4134
119.229
71.2766
62.3163
64.7913
187.927
75.3599
105.397
59.4049
53.0764
55.3038
345.929
59.202
94.2196
70.9158
61.3708
58.0207
74.4281
51.7508
130.908
56.5514
64.8546
166.532
105.484
59.9168
165.391
87.0978
71.079
63.2379
119.278
50.978
75.6821
146.975
109.184
57.0839
51.6902
69.7869
50.7085
52.9761
73.2509
50.928
108.932
79.9297
52.2912
53.3963
105.176
57.0638
86.8116
54.4875
603.621
51.2759
84.915
65.9427
58.0176
581.913
148.769
499.803
51.4538
56.1547
467.677
609.639
94.4396
86.8755
125.538
129.462
62.3731
57.781
70.7585
149.205
76.531
127.011
57.5394
135.72
88.6321
99.9401
53.1537
91.517
51.8941
58.4539
315.071
68.0807
64.9813
51.8108
108.851
81.949
80.8071
112.902
56.8638
54.2044
58.1392
82.2153
69.6334
72.7129
93.467
63.3535
58.9261
52.4486
56.3394
63.1024
52.1566
68.549
69.4614
55.0833
2055.07
70.0535
58.4795
72.0186
51.9696
85.1093
133.48
59.2731
74.1569
75.6585
336.081
68.1322
59.9559
88.4551
1344.23
96.7387
127.727
123.95
67.7031
50.4548
60.0062
67.1841
658.607
90.6136
73.06
59.2307
54.5297
72.7566
55.4266
288.932
97.3432
113.715
68.6389
64.2303
85.9793
80.8035
69.3634
68.3969
100.09
278.851
56.0553
137.757
133.112
105.434
60.3893
80.3642
58.007
176.98
61.4996
58.0888
73.3729
50.4857
56.2933
75.4388
51.9205
59.9691
51.5638
70.2955
53.8136
69.3008
63.5639
121.358
70.225
110.229
54.8405
457.963
95.9986
105.06
70.4872
55.0228
104.598
61.9086
60.5186
56.7876
55.4457
57.3108
109.835
51.1576
60.8546
51.413
141.836
78.8033
87.1746
458.464
91.1796
136.013
69.5021
67.5853
53.2333
178.386
84.4804
56.0662
52.0458
98.2613
67.2162
59.0116
71.3514
867.755
75.5094
59.9994
60.4851
328.772
712.363
67.4938
365.078
383.577
139.035
168.149
126.483
244.748
71.2097
180.329
589.153
61.6483
57.5726
59.6316
78.4152
276.839
58.5907
56.3499
67.2316
150.973
154.926
649.203
89.7842
438.774
101.788
55.9669
82.5228
55.3261
59.7898
515.784
51.2006
133.755
146.571
54.6964
138.89
1866.78
56.1277
68.9207
66.2702
360.449
155.528
98.1301
614.656
1242.92
75.7586
213.355
99.6339
131.601
77.3493
54.9389
153.866
206.525
341.309
64.1532
111.039
114.596
84.4116
147.002
53.7779
58.8981
600.164
81.2059
454.429
51.3482
162.91
57.4612
445.763
63.1822
67.0538
151.7
392.4
80.5277
79.0788
432.319
75.3487
534.264
75.1065
79.3183
182.885
54.4422
160.179
61.8611
54.0419
53.0181
62.7371
320.479
389.389
80.8977
61.6127
75.8251
75.4621
64.1352
461.945
68.919
63.1531
57.9021
64.7696
155.045
569.084
55.926
74.4633
66.8691
148.377
89.3572
545.719
522.681
282.616
105.929
64.2306
154.243
383.687
96.1332
59.3329
61.4614
53.0314
638.347
98.2858
213.777
1460.14
206.975
80.2006
76.3123
555.733
238.159
76.7428
90.7367
89.3617
285.911
63.4807
53.8908
91.1415
61.4912
544.743
242.307
156.019
56.2052
86.854
215.884
140.16
96.7072
639.23
242.745
565.663
138.823
133.809
228.272
107.424
59.952
87.3502
59.096
54.297
68.1077
68.0401
99.8496
70.1683
74.4201
178.906
178.866
121.4
53.6827
155.899
69.7059
64.0432
129.47
292.218
930.153
577.6
67.6919
91.6069
61.4371
64.8577
266.271
126.1
261.927
65.4957
440.945
157.49
122.169
55.3163
51.9236
57.9985
70.9679
368.788
71.786
61.1188
96.7763
58.0365
466.267
108.19
81.1678
128.939
65.4034
53.2674
50.5941
52.0388
101.892
63.0201
78.094
115.197
57.427
55.7574
128.463
413.38
318.072
52.684
102.846
56.8817
70.2653
57.8123
520.608
58.759
63.8892
63.7386
69.1481
54.8437
55.3342
91.5534
53.5761
60.8928
60.2102
193.054
52.6809
63.9177
63.1864
230.094
234.922
72.6581
319.661
601.032
59.6304
58.495
134.865
62.604
62.7345
70.0225
69.3656
72.8721
96.0781
64.9838
78.382
780.901
328.5
83.161
420.138
56.8323
55.6207
66.8549
50.8927
54.9735
69.7116
53.8366
63.9039
129.663
62.6907
402.108
54.3948
274.851
59.0376
50.6929
478.625
83.4755
74.4122
452.61
76.2672
551.006
64.9812
285.332
51.2163
151.088
89.5542
116.914
53.0535
80.898
62.2003
423.881
58.7425
53.795
51.7433
75.4956
68.7118
56.6351
62.6939
92.9573
54.4339
94.8341
53.6426
57.7089
106.734
78.0709
84.5139
57.6332
61.4806
53.9037
53.3987
60.6766
53.3168
52.2713
72.0687
53.3331
157.46
109.272
58.7879
99.3192
89.3444
60.1242
73.2678
56.5474
117.182
134.269
58.6013
55.4115
85.7399
71.1318
158.757
173.158
384.12
61.3052
56.1037
57.9059
55.5708
65.4588
597.744
180.876
63.8018
64.0449
58.7674
54.1241
49.9343
68.3172
119.493
88.6272
361.792
76.3567
61.7796
67.8384
64.8345
51.7246
254.634
69.974
56.08
116.82
59.4268
666.214
69.9701
51.8722
60.8627
71.8171
104.178
511.806
55.6768
268.425
59.6243
569.149
68.237
442.658
60.9151
53.2997
66.3413
106.034
59.6636
56.9998
84.5154
50.2094
50.5838
63.5666
61.3944
130.797
61.7673
650.024
70.8793
55.1465
95.6063
172.433
57.9903
251.292
729.859
680.231
553.308
182.121
61.8362
342.426
325.504
64.744
63.1895
58.4618
702.093
93.0813
86.3789
50.1194
61.1819
79.8971
292.534
134.661
75.6558
52.0635
63.7067
132.983
56.5902
54.5976
237.272
300.246
194.452
569.585
63.4158
50.9045
63.0554
60.5045
904.969
55.2623
52.2991
53.0836
256.345
50.2324
57.6741
81.8362
88.5473
52.659
67.2998
53.1576
112.913
58.0662
125.641
59.1609
139.156
85.6257
115.31
125.038
116.249
146.898
57.8179
550.35
86.241
200.095
169.848
165.918
75.1676
61.5071
152.756
74.2395
50.6962
58.4231
50.5686
90.1953
494.018
118.188
52.6269
80.7345
60.9856
49.6017
86.0775
63.4015
137.276
73.4013
60.7615
99.0156
59.1303
65.1511
67.1283
200.299
67.3691
88.7614
77.1228
108.867
380.263
171.32
189.755
656.345
125.506
60.3054
60.644
51.2676
108.429
598.567
73.356
746.597
87.9666
56.6795
120.185
410.205
60.2759
58.996
58.6481
61.3957
52.8714
83.6232
57.0322
69.6798
62.8196
51.7642
100.672
50.5622
102.242
57.6989
61.1169
317.496
60.5151
118.139
61.142
53.4802
53.5337
78.9347
123.884
96.0503
85.5455
60.1624
56.932
62.3143
60.0811
229.432
55.8334
60.6508
103.782
135.359
230.725
55.5584
79.0064
98.6404
130.99
58.2115
111.03
55.2412
105.62
68.6823
55.3187
117.348
69.1537
51.2821
133.66
63.1477
52.9129
55.0617
133.488
82.1475
82.1532
59.326
110.593
82.5058
56.5589
87.3594
274.216
60.883
56.6436
91.7878
467.886
58.5808
67.3021
115.457
60.2617
119.926
54.1635
378.785
76.636
63.9605
72.349
53.3084
103.119
54.1023
388.622
51.0265
62.7808
337.479
66.4289
97.7355
180.924
66.163
55.2565
217.773
54.0624
52.0021
66.3274
91.6077
62.1891
177.717
55.2557
364.809
88.5262
51.2669
81.0774
121.266
557.586
178.948
71.7027
52.3967
101.475
275.088
412.023
97.5052
125.504
783.745
173.37
84.5977
132.323
77.6173
95.6301
61.532
468.997
797.377
153.517
153.082
97.5298
635.427
410.258
439.232
286.974
133.043
58.8106
57.286
153.016
73.9086
449.107
300.658
63.1112
317.353
109.669
50.9331
53.7429
56.993
109.994
77.6484
91.7882
73.4287
111.997
182.756
729.707
57.4056
112.218
565.046
479.006
182.094
160.555
66.1688
669.544
51.7997
65.022
274.318
149.592
53.9848
231.847
251.014
63.8774
81.0728
62.8187
73.5502
51.4575
82.6872
154.852
72.2383
428.685
49.8992
58.4629
78.5681
350.191
140.88
122.126
158.273
89.462
122.693
62.6111
216.43
93.1006
64.6269
88.4916
716.789
100.412
59.1428
109.489
160.913
65.9015
65.6497
114.305
55.3157
57.452
71.8539
80.2053
66.1974
60.0206
69.7376
55.419
51.2528
53.5484
93.4184
57.3521
161.205
412.706
517.018
63.8945
71.0798
67.8414
61.4748
93.0969
496.938
63.7929
146.013
67.1961
70.5096
56.6101
61.1126
51.5898
149.765
50.1762
56.8165
168.714
61.0477
59.1601
58.5647
53.9638
212.238
65.7456
420.59
187.317
171.221
448.637
140.272
226.178
63.8067
65.3386
132.621
64.941
205.205
65.8384
75.9308
69.2395
64.3357
64.0218
56.022
63.5725
59.9553
52.2338
81.4982
171.024
51.2203
723.95
114.535
175.139
92.5222
75.8305
1415.45
58.3014
266.829
1143.77
60.5024
160.426
70.0717
70.9187
574.049
791.137
179.978
139.09
60.7782
128.149
100.055
407.246
56.771
59.0319
131.8
846.367
58.9874
65.6431
58.4063
67.7102
385.731
61.8137
534.033
273.939
489.74
539.637
59.838
71.5034
67.622
510.941
351.1
248.117
105.402
57.7813
208.191
61.6809
160.261
64.166
61.0542
54.5113
64.6041
60.5065
1672.55
60.7006
76.1782
66.9282
56.7067
63.0916
736.633
63.2011
147.028
268.686
62.8026
72.1645
114.511
50.8675
56.1744
732.626
473.035
106.401
130.56
75.0475
57.6569
188.332
61.0491
78.8493
71.8421
56.7912
167.548
83.5222
96.6685
302.013
61.1349
63.0255
66.2759
61.2768
59.0247
102.227
63.1346
289.033
58.3686
133.272
63.4196
90.4447
64.5178
63.2375
332.624
116.974
158.524
52.4857
1574.85
52.8252
51.0992
58.8242
65.6417
65.2806
386.039
66.0518
52.9111
458.751
69.7331
56.8245
61.5353
648.045
52.4252
78.8251
713.609
61.1595
651.632
351.489
66.2538
63.2614
127.355
136.045
567.05
70.7603
248.244
64.2027
56.1469
131.261
67.3807
64.1308
57.6147
323.2
189.723
291.885
135.799
72.5891
76.4983
55.552
65.6056