/*--------------------------------*- C++ -*----------------------------------*\
| =========                 |                                                 |
| \\      /  F ield         | OpenFOAM: The Open Source CFD Toolbox           |
|  \\    /   O peration     | Version:  2506                                  |
|   \\  /    A nd           | Website:  www.openfoam.com                      |
|    \\/     M anipulation  |                                                 |
\*---------------------------------------------------------------------------*/
FoamFile
{
    version     2.0;
    format      ascii;
    arch        "LSB;label=32;scalar=64";
    class       volScalarField;
    location    "0.00482047";
    object      p;
}
// * * * * * * * * * * * * * * * * * * * * * * * * * * * * * * * * * * * * * //

dimensions      [0 2 -2 0 0 0 0];

internalField   nonuniform List<scalar> 
47425
(
120.433
119.515
4.56694
175.612
163.668
5.82302
164.307
2.8706
283.475
162.003
2.06812
242.406
165.589
2.28751
170.861
227.804
5.9964
208.318
73.9464
155.541
184.926
221.499
4.16886
83.9975
222.924
78.8563
6.73152
146.776
5.94624
26.5
202.938
238.569
267.092
34.4377
7.03271
4.34319
214.091
271.46
191.487
114.04
111.471
149.524
154.009
286.282
163.772
99.8082
11.7282
263.577
105.479
44.1061
235.205
163.686
23.4027
159.336
90.445
200.864
126.719
7.63804
162.06
9.58554
158.152
160.032
148.625
201.493
270.334
179.578
251.778
157.187
154.443
203.059
178.989
71.1558
176.674
185.366
156.377
291.932
149.238
31.6537
117.284
163.148
153.759
202.591
206.368
256.941
120.141
129.826
162.622
113.495
162.954
160.766
209.447
171.944
47.0203
130.567
137.599
130.16
35.0296
140.814
122.789
235.238
259.313
207.709
202.968
227.425
204.099
161.318
126.757
124.022
123.503
232.691
146.019
236.787
159.678
144.722
162.853
220.685
162.943
235.648
191.718
164.709
142.697
272.285
257.935
172.873
231.532
162.845
127.821
278.315
99.1705
61.3287
205.287
146.088
238.647
192.721
148.723
173.54
179.696
162.998
222.139
169.274
258.406
163.428
187.212
162.084
210.064
280.631
161.532
261.311
189.741
256.057
161.654
228.498
267.544
180.479
203.492
99.8591
184.66
62.7757
112.094
20.0645
167.538
82.8986
64.5584
205.086
147.435
104.662
258.716
153.714
74.2004
141.534
155.183
53.5783
259.014
202.024
118.358
192.662
217.572
2.65617
10.7099
36.2896
211.49
103.855
8.5459
21.5243
30.5168
260.341
210.191
234.169
33.1202
118.939
252.803
28.5678
165.634
270.718
43.0853
171.353
262.382
82.0668
170.537
144.223
37.6632
156.074
127.984
168.773
189.732
172.851
10.8206
170.328
242.535
271.993
129.892
169.714
248.121
92.2103
156.731
169.767
165.411
160.258
204.073
245.047
163.13
165.416
157.842
178.709
176.02
163.355
46.2236
166.665
168.91
168.483
173.029
15.1013
149.109
276.091
13.3835
218.687
161.444
39.9987
162.215
12.3498
15.7629
42.0714
46.2397
168.22
192.802
283.38
130.548
276.936
71.404
6.15721
89.7856
163.743
7.84914
275.847
27.2282
14.0627
215.843
29.7152
185.298
273.045
27.756
273.216
207.039
216.329
164.915
139.628
11.5937
165.609
23.823
209.868
215.828
162.427
161.575
211.378
163.034
223.627
162.858
209.622
162.121
217.77
161.086
119.782
158.07
53.7393
60.7097
171.974
56.6253
3.07309
117.169
163.847
241.036
201.344
283.052
12.5981
4.88928
182.12
171.339
193.348
231.41
169.078
126.967
83.49
19.9854
8.08201
101.229
77.059
222.304
37.9191
71.8265
200.991
197.177
237.458
5.53865
2.49768
165.55
130.69
44.9757
41.7931
9.6091
146.448
166.154
224.054
228.174
3.16065
124.846
3.67812
218.978
105.957
44.3396
14.8481
165.448
129.321
188.991
11.4937
258.429
6.54421
123.472
238.646
58.0267
73.1876
205.979
206.6
107.195
217.275
49.298
1.154
9.70355
203.496
3.68814
29.0794
209.631
192.567
219.581
219.401
220.621
175.526
45.1723
207.088
214.291
269.469
186.574
165.488
79.9561
3.30632
196.664
151.71
9.97684
267.884
229.255
193.363
4.25115
153.761
158.473
192.962
289.303
194.624
154.454
241.254
277.657
214.568
265.073
194.426
93.4539
269.178
93.6651
274.385
10.3035
211.62
257.028
9.36691
187.158
188.103
7.58367
189.571
37.8331
188.897
237.537
10.263
165.906
30.5856
163.165
36.4106
162.115
30.0382
175.486
21.332
25.6063
13.3207
5.49591
19.5363
189.079
60.2815
245.634
86.0632
187.56
186.988
183.118
80.4754
2.25652
41.0029
12.1848
60.6913
114.863
181.268
7.32341
8.5559
166.251
173.952
176.18
201.321
92.7417
147.669
211.114
100.263
115.745
82.0194
160.313
75.6113
180.705
180.694
177.929
87.4424
110.713
78.7441
45.5492
177.4
179.502
109.806
113.944
163.587
100.037
165.525
265.671
204.122
161.279
88.4224
178.434
166.66
177.827
261.426
266.16
276.385
191.31
276.839
68.1781
221.26
16.1808
173.675
62.1653
45.1838
257.059
257.277
250.441
201.54
237.731
110.074
175.19
164.104
246.162
170.129
256.951
158.942
164.079
193.708
75.0378
192.062
258.69
249.823
190.815
55.0103
158.829
192.405
116.39
189.326
207.39
76.5664
194.179
250.716
196.596
108.662
33.4039
91.8482
6.96539
179.276
2.31782
9.62872
72.1685
101.632
176.464
6.1775
3.9292
208.086
1.41791
113.975
118.273
85.8033
7.67332
28.3229
241.69
189.144
275.131
284.126
234.591
15.1914
2.66698
227.256
280.644
163.328
160.375
37.7158
97.3996
98.0363
165.242
245.777
159.218
270.837
83.1559
211.135
193.918
11.1831
163.876
31.8568
116.208
39.4724
125.022
4.77186
68.566
110.763
23.9946
9.66956
20.8989
163.224
69.6365
11.9282
164.036
166.557
17.9539
25.4132
111.318
39.8037
156.459
15.6567
39.8571
39.5657
168.476
165.266
198.769
122.136
103.872
6.04402
160.411
208.613
116.558
109.503
10.0276
25.0413
109.327
152.196
226.813
110.216
109.865
11.5309
263.078
7.94923
207.643
242.797
10.2348
156.405
212.883
4.6532
51.6432
164.335
169.292
258.158
192.184
135.388
161.026
180.591
50.023
152.406
188.206
51.8766
50.7033
237.798
197.74
267.609
159.123
254.215
161.967
186.808
185.537
160.661
228.037
46.3088
182.244
211.394
48.0689
270.325
164.975
213.474
252.538
164.286
117.502
39.0294
186.084
164.897
155.702
152.526
26.256
127.247
152.839
2.92643
188.387
165.873
277.385
155.74
9.08124
19.6017
259.656
156.161
275.379
278.938
56.1352
22.5966
77.9261
3.29021
66.3812
85.3215
176.891
164.517
130.668
176.555
189.268
7.38831
201.028
246.357
261.753
258.314
269.838
255.208
205.043
172.886
258.608
192.333
164.435
9.25825
130.234
161.064
0.526484
204.665
182.983
15.6576
110.179
13.1487
154.317
44.6614
165.437
167.986
66.5186
243.336
195.049
210.674
27.2002
50.0992
145.983
162.704
287.091
165.742
148.03
132.163
168.402
148.27
166.364
274.83
104.437
193.518
143.177
166.784
265.341
204.35
166.873
20.031
148.11
3.70385
65.8818
217.149
216.782
193.949
202.929
14.227
0.590564
182.987
138.29
152.99
14.2344
95.3869
5.04925
89.3697
220.734
165.139
3.80368
257.134
78.8948
84.0337
119.357
2.03824
170.547
162.962
113.154
28.3651
5.36217
83.2709
214.714
10.5617
157.232
71.432
59.8338
89.5308
202.439
224.986
82.8221
107.549
166.364
159.097
108.574
142.851
158.966
190.084
177.44
231.394
104.234
244.496
160.996
170.78
161.364
30.0052
244.188
185.986
161.04
100.912
25.2139
164.626
131.197
93.5965
82.8004
116.631
211.147
261.789
276.477
232.671
228.654
163.81
151.35
164.421
236.021
234.649
270.323
51.8945
209.731
37.3225
197.13
112.416
187.312
188.282
195.419
38.5716
110.968
110.415
11.3037
187.713
66.1565
39.3447
192.73
35.2522
212.871
8.44231
58.6318
218.69
19.6169
4.72048
4.9639
37.813
37.2696
240.121
165.468
12.1545
190.6
62.5798
209.298
201.851
167.469
36.0685
96.8699
167.003
191.32
180.443
211.152
113.843
11.4935
5.32711
164.913
90.3195
261.834
175.308
5.15874
277.55
136.759
165.096
122.458
274.456
211.313
7.24182
167.565
203.456
166.747
2.41878
205.863
125.777
161
168.122
106.61
166.029
143.397
-1.02515
167.647
5.90423
166.489
99.3866
0.736087
167.751
97.9344
97.8116
149.499
97.1131
126.789
190.748
208.157
213.613
164.468
166.004
100.554
167.054
230.447
160.84
198.744
111.732
142.61
95.3899
105.179
163.037
65.1314
165.785
161.343
165.13
166.178
162.41
170.892
118.627
274.079
286.241
99.4344
160.968
202.589
203.215
277.271
110.869
168.838
139.713
119.382
43.9494
118.421
216.853
265.86
166.527
18.7545
190.146
277.257
263.357
260.032
248.059
280.964
160.419
165.372
198.714
202.067
196.541
190.951
176.679
221.787
148.84
159.171
159.493
168.291
99.3281
161.342
153.647
269.907
198.661
271.468
134.768
122.28
161.026
154.385
191.581
172.465
189.307
149.728
123.951
148.858
130.282
134.849
162.254
161.714
132.111
195.947
38.3663
182.284
161.509
71.6736
184.033
162.382
163.12
159.309
205.239
239.449
77.1823
220.043
163.102
143.355
27.2726
85.9518
197.376
42.8981
236.295
46.6035
41.9272
117.316
193.135
179.3
26.4352
278.759
207.103
241.271
70.3836
189.898
169.096
205.276
229.981
223.255
265.941
71.3199
172.701
166.663
210.398
195.633
77.5405
219.762
54.8814
56.634
186.611
172.126
146.587
166.169
174.441
197.608
156.065
63.8434
59.7325
59.222
56.3576
149.228
165.07
114.294
153.598
175.655
152.905
114.833
175.945
185.954
86.3986
138.363
155.185
186.448
165.368
89.9713
192.437
168.414
223.352
81.1292
167.561
165.62
92.3119
241.183
49.7184
114.501
224.263
176.339
157.166
223.696
170.123
197.501
166.262
153.393
161.436
173.044
169.177
138.687
192.866
164.006
164.211
227.839
197.283
165.87
157.434
193.535
132.197
163.344
162.207
261.916
189.516
127.632
142.975
161.37
226.551
165.13
165.204
157.906
213.383
192.878
163.706
170.44
161.627
164.149
163.934
180.169
194.516
250.935
196.985
191.173
224.865
154.962
242.155
274.65
203.814
141.819
133.671
162.88
193.605
220.33
165.256
228.629
136.01
188.917
227.734
169.339
174.752
224.823
194.525
145.218
220.272
151.453
89.6955
159.457
220.022
163.895
221.398
131.066
119.403
169.426
160.661
144.073
117.973
149.359
246.592
164.421
79.9048
160.632
5.75506
124.499
160.954
151.319
200.766
3.35471
150.686
156.177
4.21831
181.976
155.281
160.625
157.141
233.32
39.2905
161.1
79.9986
148.868
202.258
160.766
197.977
94.3895
151.805
199.068
42.1201
41.338
177.154
39.3593
174.056
175.546
47.6366
192.699
223.477
188.626
209.416
154.12
158.089
200.169
167.533
171.533
165.962
197.35
125.662
86.4234
128.757
84.2619
162.292
89.4155
141.794
84.3533
194.228
177.13
75.5965
238.027
107.771
163.076
223.152
181.732
270.951
167.66
159.74
38.0744
161.36
237.518
273.301
169.429
134.814
168.462
178.478
153.246
161.483
134.211
164.963
261.291
277.153
153.805
154.012
171.935
188.54
267.205
59.2194
260.854
146.251
168.925
249.112
267.957
163.486
177.373
238.621
163.665
185.512
215.376
214.725
211.565
98.3028
158.784
164.219
56.7003
248.754
278.164
153.884
267.995
206.153
132.34
182.932
88.6505
159.56
167.928
203.212
167.662
267.26
261.123
199.058
163.299
166.901
11.7094
209.805
15.0339
160.865
199.033
169.113
167.241
162.641
212.222
120.984
148.439
182.05
154.922
131.842
15.488
229.981
125.09
165.337
211.142
163.978
165.482
165.22
162.301
201.82
142.263
166.914
191.586
185.219
57.1345
165.123
168.273
208.411
135.249
124.604
189.691
64.9867
140.536
-4.04048
13.645
163.923
163.767
206.364
166.127
164.498
165.888
88.8975
5.24902
168.695
132.223
73.3672
155.528
241.26
175.786
161.833
152.753
12.8316
178.313
1.94283
32.9417
120.256
146.229
124.47
206.325
180.396
167.72
158.586
150.261
164.95
48.7474
263.117
98.514
45.7767
181.874
231.994
256.649
243.824
174.672
46.3835
195.15
243.218
207.16
250.914
44.8897
188.499
202.25
228.137
163.536
110.652
200.7
213.384
172.363
273.425
43.1382
78.8289
231.83
196.6
266.554
96.8676
234.59
203.261
96.6255
27.3475
157.238
229.883
232.612
103.225
156.921
242.997
198.747
98.1768
195.644
124.482
97.646
179.32
89.8142
113.07
112.44
242.063
205.068
215.832
99.6975
85.2258
102.441
190.29
207.529
77.026
169.934
78.3043
166.945
248.185
253.92
143
166.699
119.943
91.9126
229.096
7.4797
216.224
123.311
259.149
89.9301
154.967
162.804
153.947
167.532
166.555
104.003
179.396
157.554
117.68
139.431
159.828
144.75
119.884
135.16
104.315
144.927
9.89875
126.508
26.3898
126.119
243.706
166.722
86.445
149.434
178.098
162.597
165.624
161.886
165.938
252.5
105.578
251.275
74.0846
246.113
145.822
218.438
155.058
156.926
106.589
213.201
47.494
216.394
210.244
16.2105
115.402
277.588
115.047
165.486
110.792
112.074
160.943
150.729
170.158
126.803
154.854
117.067
51.4339
38.0834
40.8264
13.1807
111.526
279.036
260.044
79.4623
71.1089
224.932
119.824
88.2333
105.503
141.908
157.137
139.1
151.008
146.147
194.54
15.9643
152.743
7.04252
83.7785
146.856
171.584
71.8982
64.9853
153.499
159.822
111.21
157.52
0.399286
165.543
64.2407
55.483
24.9599
49.4396
23.7274
29.705
50.6722
171.136
163.856
3.5051
256.316
149.955
172.974
174.704
48.1825
93.4125
171.127
133.985
9.13539
103.036
82.1299
172.08
8.47638
107.8
63.4164
54.6779
108.118
164.109
7.19336
125.611
61.4344
167.663
141.391
0.430129
132.142
5.41544
150.751
12.4936
69.4745
76.4447
143.78
239.156
150.015
160.164
79.5513
6.25329
112.848
70.6508
46.8093
143.735
34.1876
70.6486
16.6167
160.997
167.846
150.299
201.281
165.345
143.496
111.411
144.702
164.226
11.8235
8.37018
7.37278
132.523
14.7205
131.671
5.00144
24.2672
130.432
51.9454
9.13741
112.916
262.011
1.43327
173.053
197.95
212.366
8.65011
197.015
12.6908
92.6081
43.8491
16.4276
134.83
154.13
10.8826
81.7228
150.982
8.41688
153.754
164.563
6.99403
73.6324
185.126
6.30897
163.544
4.94398
143.468
200.746
175.774
8.43664
275.855
164.032
267.181
160.089
163.04
117.115
163.919
60.3519
281.496
164.686
278.673
165.13
200.56
155.196
162.815
283.663
160.315
268.731
54.2764
121.997
104.102
70.2829
55.0326
265.429
264.495
224.116
228.824
249.241
82.3797
211.354
276.15
198.7
206.288
275.8
42.7845
6.33025
45.6312
6.14774
103.132
98.8726
60.1457
129.412
165.795
144.408
176.34
83.6317
163.313
157.152
132.484
69.8796
144.023
160.322
163.299
154.59
165.27
33.0492
59.8502
269.923
132.799
22.4502
281.997
48.366
23.0807
113.575
110.138
102.406
176.86
144.027
206.342
188.882
183.951
170.353
102.014
111.014
110.183
244.965
109.89
217.825
238.603
150.402
265.466
133.999
267.11
137.329
254.248
161.375
143.113
160.485
291.228
279.834
148.83
264.97
262.649
213.762
182.92
279.73
256.256
125.572
118.527
169.07
162.968
119.577
163.582
97.3442
214.681
121.29
162.945
157.394
225.868
97.2521
186.586
148.443
48.9178
120.892
166.763
213.354
187.694
212.048
243.362
123.611
158.506
163.806
163.816
121.645
19.1471
15.1855
96.8772
35.327
163.182
33.4326
26.0688
58.2859
147.432
165.318
78.3663
7.98963
13.6658
126.082
160.309
161.48
64.3412
201.476
158.717
52.4406
173.835
125.929
173.079
166.069
164.377
214.647
180.363
199.162
164.97
2.71563
8.00104
149.739
2.71713
3.16614
175.496
14.4063
129.39
119.211
186.269
171.051
135.744
232.785
4.54156
215.336
5.99188
2.7563
223.112
152.303
208.682
9.77996
145.555
162.854
98.357
154.823
125.454
197.9
172.687
26.7728
20.04
165.826
237.049
21.7521
197.489
239.868
133.013
148.979
165.493
165.425
75.7925
59.8179
143.255
261.554
256.932
185.255
253.967
199.232
184.983
182.602
158.251
158.947
186.334
172.065
255.729
255.579
247.297
184.452
142.4
152.671
141.068
157.438
176.867
211.486
151.886
214.335
171.528
201.296
156.766
232.594
212.396
164.968
149.838
187.403
152.922
63.4105
120.738
155.054
166.955
73.1671
139.279
166.62
165.541
155.602
76.661
144.993
194.843
86.1239
224.565
168.864
142.848
232.164
174.341
189.871
161.478
195.041
218.61
123.243
191.803
244.563
167.627
240.548
213.292
115.288
277.477
288.691
140.036
165.813
165.275
118.599
163.164
163.746
126.067
125.435
119.236
166.153
192.854
243.08
167.18
179.614
168.423
164.16
195.165
187.525
157.674
120.631
162.359
107.147
64.7343
165.774
138.58
165.475
158.692
120.117
145.539
167.329
166.74
107.305
105.743
158.077
188.07
153.054
166.888
165.053
201.568
206.149
166.568
104.696
189.82
168.019
103.703
169.378
154.794
161.293
157.733
156.68
163.619
238.093
162.962
158.126
166.644
159.604
77.0237
71.8019
76.5009
174.479
39.343
190.578
60.3483
160.196
245.779
204.215
207.016
254.885
239.573
73.0851
164.753
159.321
166.386
47.5068
159.985
152.04
167.647
6.92115
157.228
12.9128
60.8539
162.868
166.848
143.033
163.936
192.27
226.101
165.945
146.056
159.435
149.469
161.094
158.585
217.315
243.536
177.866
220.068
250.922
127.28
197.008
189.145
233.154
217.104
196.081
248.179
248.366
128.349
111.97
238.769
186.415
254.321
172.155
242.768
159.047
194.717
244.944
254.527
270.994
225.846
204.875
187.25
163.793
173.384
216.887
149.434
205.062
158.943
137.794
134.392
164.397
282.355
220.008
211.384
184.491
194.831
212.847
200.27
138.011
124.493
225.844
157.569
194.78
161.772
179.824
192.149
166.67
118.073
122.252
166.841
193.551
180.661
125.708
193.973
172.607
125.757
93.686
140.963
180.067
76.5492
169.351
193.647
64.1707
202.356
71.5499
166.116
207.521
186.244
200.789
219.131
103.75
243.297
225.095
161.074
136.109
103.558
161.982
103.927
103.105
164.484
164.637
158.815
103.544
246.032
165.767
148.968
183.796
177.197
157.528
148.699
171.464
114.764
165.929
116.233
169.593
222.482
151.824
164.322
106.037
208.425
105.466
122.998
117.262
207.695
194.165
115.88
162.614
229.252
185.336
140.069
161.013
246.252
125.597
173.256
163.574
160.052
175.593
167.229
197.729
166.013
167.241
126.998
164.602
226.91
168.028
188.201
118.315
182.14
159.674
193.563
187.891
159.268
123.894
185.786
179.811
178.332
251.025
185.008
152.643
171.833
172.447
50.9889
66.3213
204.929
213.871
207.365
205.112
164.735
166.918
244.435
169.608
206.095
163.275
166.613
171.846
211.173
166.776
206.902
164.631
97.5113
152.204
217.693
161.99
200.693
213.568
139.675
124.019
212.398
124.829
218.649
136.24
218.988
135.054
207.003
162.541
171.058
23.1353
178.027
168.113
154.784
172.172
193.24
94.9467
280.357
159.295
272.02
159.797
224.22
160.007
159.784
28.5555
165.652
184.833
171.738
211.294
157.966
123.655
215.967
242.099
222.764
264.427
183.712
223.643
245.158
211.518
152.694
211.714
128.361
149.051
167.561
82.4285
24.1437
161.885
168.545
159.837
166.315
217.885
183.052
211.257
77.9481
187.976
215.439
80.2384
70.0981
39.8174
85.9919
246.819
38.2772
163.134
114.533
268.458
285.593
197.622
275.696
166.171
158.095
179.041
167.227
166.483
165.35
217.105
21.858
141.682
158.855
158.162
172.545
207.923
162.496
266.275
263.101
167.004
280.425
127.503
187.273
159.614
209.045
240.243
159.53
160.89
218.829
186.964
162.513
215.272
192.625
164.552
220.581
162.998
223.024
105.947
183.572
268.943
158.989
167.009
181.155
84.8517
158.797
30.8319
273.939
155.754
192.049
109.276
164.894
146.961
147.412
262.838
276.152
204.399
187.214
160.072
171.438
161.178
170.471
250.947
130.067
165.959
246.338
163.506
152.374
245.28
262.389
50.3956
237.792
158.473
176.648
213.371
267.371
106.907
215.783
109.58
181.209
107.307
165.968
151.665
220.779
183.115
246.444
74.7306
106.977
118.909
68.7852
26.596
157.55
152.015
155.954
120.116
244.675
193.503
230.901
231.485
204.682
152.108
188.795
152.077
233.451
86.0959
232.451
10.4001
95.0198
88.4525
71.6138
245.026
87.2179
76.5332
200.96
97.5302
95.002
213.86
170.608
86.508
168.719
93.0184
196.932
212.528
143.527
169.132
179.414
159.973
155.471
151.155
155.474
163.382
160.076
226.65
206.958
173.878
170.975
183.482
178.091
89.0291
225.171
205.154
55.2808
91.8624
187.945
171.35
181.024
196.122
151.932
206.789
205.739
230.601
167.149
234.007
191.369
232.476
211.707
187.895
208.647
242.464
158.937
234.916
109.241
173.013
117.74
185.687
4.09552
193.467
218.571
166.581
210.881
8.51628
201.655
213.494
165.961
215.097
161.901
150.208
82.8302
159.64
8.98331
164.047
213.611
164.644
168.652
214.491
179.602
176.426
8.21078
198.737
217.35
211.289
188.232
178.69
228.38
194.143
6.10397
155.214
216.941
-2.0345
201.153
167.057
221.083
215.03
225.797
166.197
147.81
38.4131
286.248
276.478
172.19
168.907
166.495
161.125
216.068
116.076
143.519
174.627
45.7394
197.217
160.497
51.9755
43.8614
215.93
42.9437
165.989
202.931
160.755
163.865
46.8816
167.031
229.203
2.76749
77.265
209.196
199.99
166.074
204.497
192.616
127.484
60.3767
72.5137
121.889
168.344
227.26
77.7378
189.623
223.547
249.968
80.737
174.511
161.317
153.986
110.998
127.355
71.682
198.586
233.83
11.4225
194.083
193.572
144.491
276.875
189.257
156.816
196.395
197.425
168.28
200.235
146.821
148.83
208.204
206.349
121.47
211.629
207.696
180.874
201.876
233.941
160.566
158.637
167.262
199.474
222.644
198.004
225.924
190.408
5.67305
226.475
3.2861
175.699
162.95
219.86
257.021
165.465
185.184
242.608
164.157
161.152
139.492
178.187
171.856
147.005
165.188
215.321
167.025
161.166
4.08768
166.148
242.32
191.284
187.951
10.3127
28.7029
164.88
163.044
168.5
178.347
152.045
21.2026
149.391
168.959
237.371
156.153
233.586
156.066
156.492
203.129
245.592
262.835
177.449
155.334
161.171
190.915
153.86
174.889
111.652
177.237
171.797
113.374
112.306
116.814
213.041
146.929
198.071
117.534
111.045
105.182
107.553
179.961
176.286
164.417
116.028
180.128
174.032
196.558
176.324
197.217
168.813
170.298
34.4829
102.847
207.914
210.478
141.764
152.165
157.635
132.02
103.99
164.997
102.914
140.018
151.975
153.86
52.0426
169.127
164.536
197.995
233.324
174.011
65.166
152.364
189.109
163.003
159.625
147.695
176.04
144.228
145.473
179.297
192.107
157.779
87.9018
91.8557
90.0105
156.574
209.359
156.492
194.278
76.4452
216.307
191.287
184.017
206.804
200.962
209.458
122.759
184.789
187.252
141.323
177.571
169.218
205.134
238.687
207.926
221.724
179.387
200.42
131.611
166.216
153.649
217.156
227.427
214.775
185.952
155.485
166.838
189.542
154.809
194.766
181.837
167.098
194.731
213.783
165.57
166.233
150.137
277.184
175.735
141.494
179.84
149.522
146.732
270.258
143.96
166.406
210.494
172.63
256.924
187.295
196.637
169.662
251.515
106.188
175.126
106.542
172.533
169.646
203.848
105.113
164.623
143.74
162.736
202.268
105.675
193.318
158.506
159.988
65.6441
176.719
262.894
31.5794
168.932
184.563
139.274
176.97
252.768
194.854
154.977
246.783
160.22
246.518
127.662
263.102
145.374
163.986
162.414
186.005
171.357
165.543
241.234
174.445
152.069
172.207
241.11
14.2027
220.025
166.451
13.4518
172.202
26.5193
244.535
212.724
280.115
178.556
13.1878
273.713
169.55
16.135
68.9749
164.958
178.754
28.8851
214.992
153.44
126.461
22.1839
161.441
60.3951
161.056
35.0776
33.2505
129.518
38.8573
132.676
127.27
6.33239
72.8108
252.476
158.829
150.78
290.343
234.92
211.33
259.108
1.02567
270.864
227.103
4.26236
225.121
161.63
20.4514
189.937
216.482
70.0868
4.46159
238.311
270.582
208.038
164.991
169.006
11.1803
176.692
3.11893
85.1101
176.555
59.7296
236.556
85.7636
58.4384
51.4352
224.324
155.66
165.114
161.557
141.569
149.865
48.6798
191.064
160.896
207.645
199.367
175.095
48.4309
228.799
170.175
228.347
207.229
194.866
243.036
36.2312
174.319
172.227
165.763
166.344
243.011
38.7392
138.179
132.81
86.6233
221.147
90.4758
237.052
168.858
228.622
95.897
149.6
170.481
167.898
86.1983
149.396
90.5481
217.895
212.39
217.503
132.272
165.755
183.36
154.528
206.571
276.738
212.325
164.293
164.362
193.271
130.325
159.974
290.986
219.132
267.719
165.077
228.938
182.312
165.467
227.598
214.232
178.646
169.087
151.561
226.322
189.239
227.163
167.15
153.585
209.165
165.607
2.94736
22.5492
7.67411
159.516
218.731
158.475
163.602
158.421
209.398
223.986
166.605
219.319
7.35441
3.83379
162.091
242.43
168.599
236.514
216.269
185.516
207.453
186.651
199.975
2.99628
6.11766
8.48755
0.378708
205.857
169.351
200.469
157.435
175.128
161.881
196.429
163.198
235.297
182.491
180.695
11.5689
228.906
7.27528
205.027
172.324
188.755
165.114
179.268
217.634
221.485
165.959
12.4614
153.344
155.409
124.483
171.764
238.795
213.51
242.126
244.037
234.551
130.973
179.674
234.953
141.442
2.41709
185.626
5.39603
162.844
145.609
174.948
176.592
175.906
7.85327
235.508
157.176
224.589
154.185
242.695
177.625
200.778
180.795
163
69.9748
153.796
160.033
165.634
234.944
118.593
37.2337
243.034
165.614
165.644
195.548
240.336
172.487
208.674
62.2578
159.814
155.289
221.459
150.721
184.551
210.407
184.78
147.527
142.655
185.302
150.422
238.975
181.491
151.252
166.083
166.326
127.824
165.576
107.919
126.906
107.929
27.8827
108.377
188.182
164.967
240.513
105.953
204.958
159.535
105.281
169.201
147.046
219.743
217.287
156.74
193.635
198.02
198.81
192.785
197.379
171.813
98.3051
-88.1579
150.891
200.99
206.041
153.521
209.95
117.821
171.801
187.256
180.307
154.422
278.477
116.223
198.365
216.38
217.656
248.179
216.596
161.298
139.957
235.064
273.616
220.438
146.494
101.556
232.388
208.14
177.264
207.677
198.93
149.532
109.939
54.2435
205.372
192.906
221.729
146.761
232.095
214.382
248.203
223.448
122.436
185.063
179.753
256.646
169.755
123.391
79.2217
230.252
161.291
154.229
131.82
230.893
225.793
226.412
146.79
87.573
230.291
158.878
140.118
230.863
180.21
174.711
263.614
141.079
163.378
165.593
228.249
160.363
105.857
164.901
164.72
173.712
160.495
190.959
158.211
163.975
158.314
144.116
117.298
107.03
168.027
173.988
167.214
157.8
156.286
163.568
120.445
179.668
120.765
113.334
227.784
204.945
209.625
9.56342
191.527
131.331
165.085
171.746
131.686
2.46699
147.224
153.492
164.441
153.468
178.908
214.986
237.195
199.853
233.819
224.059
10.4709
2.46842
4.98567
207.319
153.219
114.533
137.643
198.47
222.903
206.109
214.075
184.119
109.272
173.635
196.235
186.908
153.664
203.172
192.133
172.867
215.351
169.745
171.816
180.102
199.076
218.486
158.722
242.934
120.304
201.851
94.5238
117.868
171.173
183.181
223.127
172.931
158.908
168.994
210.851
163.503
107.512
202.617
230.777
247.904
106.897
154.881
140.473
196.562
175.097
170.72
208.262
199.636
165.605
185.651
191.745
151.071
166.694
97.4305
159.589
83.199
9.74383
209.178
85.0504
167.478
6.69136
247.516
183.466
235.834
176.427
54.3648
203.983
186.421
218.726
242.071
201.974
219.715
9.18841
150.319
277.757
205.93
158.137
193.704
155.343
179.506
163.94
287.191
185.398
166.741
186.107
203.031
171.239
176.576
160.553
3.05449
196.625
11.749
213.442
8.26441
162.243
203.202
166.073
201.143
138.283
3.24989
215.954
166.781
221.778
12.3361
172.401
2.80394
2.49261
171.454
181.972
201.334
220.516
204.054
122.317
143.212
234.846
209.977
204.436
191.156
1.1743
6.92655
127.213
233.187
203.229
199.731
1.66606
202.023
15.6747
8.00674
168.211
163.216
151.382
130.952
191.835
138.43
163.361
209.224
217.295
221.84
162.602
229.254
172.355
116.314
167.547
25.6082
186.012
176.042
161.834
122.356
198.207
121.593
208.161
121.1
159.074
157.066
29.7147
208.476
188.946
270.724
215.852
266.055
172.24
203.5
201.023
190.431
263.997
152.916
186.087
196.269
226.781
235.281
166.582
280.99
272.713
108.664
116.215
162.682
111.785
113.566
191.303
239.312
46.8464
165.757
197.949
204.315
112.492
49.3057
49.1497
205.967
164.528
115.795
153.749
219.86
184.251
100.541
188.459
111.848
210.771
197.299
142.532
111.601
82.5873
249.042
218.482
202.387
189.841
220.323
121.559
200.533
199.343
207.464
131.147
206.801
207.589
230.058
220.947
197.223
164.874
207.256
173.82
55.3428
51.5599
210.87
160.285
163.473
44.4885
241.94
51.5027
107.57
207.073
209.198
225.129
95.3437
144.128
105.29
217.899
165.819
157.149
163.802
203.902
178.538
215.263
137.874
203.772
145.765
202.667
147.185
172.913
21.1143
221.086
187.371
185.489
163.449
186.428
145.351
187.003
179.06
159.392
147.604
168.1
183.078
221.175
118.625
246.793
137.959
244.776
242.086
115.538
181.557
183.166
86.1594
110.562
100.407
197.568
108.448
146.533
186.745
137.573
109.726
184.415
184.01
191.91
193.209
85.8032
140.217
175.266
129.026
162.047
137.261
142.119
140.628
129.629
155.665
183.817
141.936
146.358
119
170.433
160.916
206.569
165.535
285.893
281.668
5.73669
15.5204
171.223
169.764
185.11
19.1587
181.926
187.189
16.7804
239.723
14.4872
155.796
6.85492
4.79112
161.116
1.38073
102.645
152.273
233.731
183.637
153.508
151.134
163.19
154.903
156.044
179.31
19.0473
185.601
104.04
-0.92038
179.071
204.623
217.813
177.776
189.262
193.505
148.289
162.544
0.720353
232.041
138.604
165.645
167.768
237.705
172.741
173.032
213.588
128.493
185.232
8.45067
6.81264
8.87771
3.47322
7.32957
125.966
209.187
7.72214
142.732
186.112
5.55062
175.725
178.877
200.869
147.25
188.712
212.278
162.443
179.706
190.94
247.961
208.308
35.9163
225.465
205.949
204.668
30.0879
234.825
65.3749
191.988
206.613
28.339
147.808
15.1455
69.5853
66.2467
49.2032
205.837
108.991
100.654
171.158
99.7775
262.035
212.834
238.277
274.712
236.316
266.801
112.913
42.7666
93.1969
82.113
176.003
179.111
211.425
280.868
269.638
250.532
178.449
162.847
137.822
20.1077
149.584
182.18
177.612
33.8121
201.167
193.956
175.791
188.858
270.545
158.073
266.934
265.435
196.767
234.158
281.411
191.805
217.586
145.958
204.738
277.089
218.503
278.437
206.077
249.025
243.365
165.611
170.778
189.474
228.222
205.726
272.376
175.354
228.729
145.798
101.792
180.515
205.038
236.704
222.917
200.602
184.204
154.814
207.856
176.028
144.643
199.923
87.8149
128.574
119.933
143.859
192.846
134.474
284.469
162.897
197.398
204.781
203.577
160.07
188.854
236.579
227.995
262.038
231.2
209.472
207.469
283.237
263.81
203.682
275.657
185.376
143.423
189.219
167.07
173.82
217.784
165.426
250.069
174.447
173.713
187.221
157.421
165.995
166.189
156.788
149.962
97.5613
178.745
161.177
176.67
186.453
166.013
153.296
149.242
162.36
48.4879
154.354
81.047
145.483
182.033
243.174
165.581
166.32
216.094
173.579
154.525
166.052
219.166
163.317
165.524
165.117
210.709
215.701
186.582
214.318
180.772
151.362
208.487
147.718
195.576
150.904
234.796
161.032
49.7479
195.321
174.327
55.1896
165.636
250.649
193.354
197.527
249.032
104.298
161.242
222.937
219.176
156.887
216.579
156.772
194.875
208.961
151.25
109.195
185.223
163.769
207.706
166.206
125.136
173.765
109.179
158.191
182.443
123.997
170.677
162.199
175.014
119.135
85.9028
162.799
149.411
160.65
118.311
161.887
240.376
167.789
162.585
62.78
187.564
170.349
151.567
166.968
165.66
137.591
164.605
166.14
109.243
165.557
86.4685
32.3883
164.688
110.427
163.891
215.773
159.583
108.887
158.706
131.195
242.919
166.506
164.814
142.458
166.427
163.182
165.129
163.888
151.177
149.4
159.741
121.459
165.462
165.891
165.418
165.496
167.445
239.164
221.64
157.723
200.051
225.382
162.458
153.217
211.797
252.456
129.841
183.025
132.817
235.038
155.057
254.074
244.364
207.341
179.258
165.929
158.24
165.24
152.582
130.382
186.903
201.74
207.989
152.041
142.349
160.856
190.928
161.311
154.789
134.317
165.598
165.29
244.289
246.56
249.665
205.911
128.913
165.983
175.042
233.551
209.68
165.661
163.676
147.276
148.928
157.902
160.21