/*--------------------------------*- C++ -*----------------------------------*\
| =========                 |                                                 |
| \\      /  F ield         | OpenFOAM: The Open Source CFD Toolbox           |
|  \\    /   O peration     | Version:  2506                                  |
|   \\  /    A nd           | Website:  www.openfoam.com                      |
|    \\/     M anipulation  |                                                 |
\*---------------------------------------------------------------------------*/
FoamFile
{
    version     2.0;
    format      ascii;
    arch        "LSB;label=32;scalar=64";
    class       surfaceScalarField;
    location    "0.00482047";
    object      phi;
}
// * * * * * * * * * * * * * * * * * * * * * * * * * * * * * * * * * * * * * //

dimensions      [0 3 -1 0 0 0 0];

oriented        oriented;

internalField   nonuniform List<scalar> 
92401
(
0.146431
-0.0920007
-0.00821431
-0.046216
-0.0696931
0.060344
0.0445353
-0.0351863
0.0194451
-0.0378553
0.0426813
-0.0242712
0.00650844
-0.0115432
0.0117493
-0.00671454
0.00110349
-0.000506771
-0.00510655
0.00450983
0.0193395
0.0091323
-0.0250475
-0.00342432
0.00517635
-0.00425428
0.000181416
0.0325997
-0.0252764
0.0120162
0.0501914
-0.0406803
0.032457
-0.0419681
0.00104839
-0.000579626
-0.000873338
0.000404573
0.00490279
-0.0415899
0.0396171
0.0297025
0.0245238
-0.0938433
-0.0154795
0.00946506
1.58468e-05
0.00599858
-0.0323185
-0.0401391
-0.0154656
-0.0181775
0.0551525
-0.0215095
0.000152896
-0.0660777
0.0659248
-0.00374111
-0.00779637
0.00171742
0.00340858
0.00267037
-0.000974214
0.00132836
0.000602227
-0.000956374
-0.00444814
0.00934634
0.000904031
-0.00580223
0.0160023
-0.00557749
-0.00440479
-0.00601999
-0.0405811
0.00887992
0.0372412
-0.00553999
-0.0394022
0.0119994
-0.0560521
-0.0542274
-0.0015486
0.0551215
0.000654436
0.088309
-0.085421
0.0217872
-0.0246752
0.0511705
0.062265
-0.0750947
-0.0383409
-0.0321892
0.0499003
-0.0571133
-0.00252623
-0.00129477
0.00415875
-0.000337742
0.0305158
-0.0626404
-6.45783e-05
0.0596477
-0.0570331
-0.0322474
0.0296328
0.0124971
-0.0170667
0.000629511
0.00394009
-0.0340397
0.104757
0.0580318
-0.128749
-0.0841522
0.108667
0.0092121
-0.0337266
-0.131332
0.0354868
0.027619
0.0682266
0.0144221
-0.0635581
0.0407428
0.00839319
0.0590223
0.00775264
-0.0523528
-0.0438602
0.0106887
0.00160981
0.0315617
-0.0504188
-0.04069
0.0630608
0.028048
-0.0348347
0.0388303
-0.0134726
0.00947699
-0.0180641
-0.102793
0.0638676
0.0569898
-0.0862837
0.0867526
-0.000468909
0.0317097
0.00607118
-0.0783895
0.0406086
-0.000159111
0.0284316
-0.0332955
0.00502301
0.0272682
-0.0523844
0.0251162
0.000236356
0.000236108
-0.000184345
-0.000288119
0.000858395
-0.0618442
0.0609858
-0.0692207
0.0440655
0.0618534
-0.0366982
0.0894822
-0.0262502
-0.010983
-0.0522491
0.00138077
0.0725933
0.000553729
-0.0745278
-0.0455877
0.0710325
0.0379386
-0.0633834
0.000462868
0.000960068
-0.000271733
-0.0011512
-0.00204842
-0.00438905
0.00127449
0.00516298
-0.0384421
0.0870805
-0.045089
-0.00354945
0.000333559
-0.00106433
-0.000399335
0.0011301
-0.0561533
0.054889
0.00126431
0.074937
-0.00661924
-0.0180434
-0.0502743
-0.0953348
0.0894969
0.00437537
0.00146255
-0.054441
0.0250597
0.00792881
0.0214524
0.00209656
-0.0155252
0.00480828
0.00862035
-0.0123715
0.0258563
0.0358757
-0.0493606
0.00105325
-0.000656326
-6.33618e-05
-9.61257e-05
-9.51454e-05
0.00100592
-0.000814654
0.00103886
0.00038099
-0.00079139
-0.000628456
0.00434001
-0.0089429
0.00525321
-0.000650315
0.0710887
0.00547344
-0.0210695
-0.0554926
-0.0145355
-0.00426703
0.00977161
0.00903087
-0.0465778
-0.0475809
-0.0550539
0.149213
0.00288146
-0.0314149
-0.00474809
0.0332816
-0.000304488
0.000603702
0.000478861
-0.000778076
0.00584225
0.00425817
-0.0293174
0.0192169
0.0178138
-0.00652229
-0.00925706
-0.00203445
0.0416551
-0.0799741
-0.0253266
0.0636456
-0.0272034
-0.00318596
0.010136
0.0202533
0.0125068
0.00735098
0.0132123
-0.0330701
-0.00111372
-0.000624666
8.67542e-05
0.00165163
0.0230793
-0.00587966
0.0348629
-0.00144387
0.000928673
-0.00129349
0.00180868
0.0503728
-0.0370434
-0.0704801
0.0571507
0.000603916
-0.000336242
-0.000267674
-0.00102408
4.44435e-05
0.000464553
0.000515084
0.00123345
-0.000966752
0.00134405
-0.00161074
0.0221503
-0.0175452
-0.0649863
0.0603812
0.00136291
-0.0129117
0.00241815
0.00913062
0.0448248
0.0570235
0.0173773
-0.119226
-0.1163
0.0269015
0.128357
-0.0389582
-0.00238347
-0.0443312
0.00689359
0.0398211
0.0514344
-0.0289326
0.0260001
-0.0485019
0.0245268
-0.00574543
-0.150753
0.131972
0.00673926
0.0132334
-0.0255379
0.00556529
0.000701963
-0.000134005
-0.000741535
0.000173578
0.0365223
0.0143412
-0.00199493
-0.0488685
-0.00306347
0.0818802
-0.0833021
0.00448531
-0.0181935
0.0467868
-0.113074
0.0844808
0.0432245
0.00616145
-0.0517694
0.0435168
-0.00029234
-0.00228324
-0.0297034
0.0409275
-0.00894083
0.0691926
0.0180686
-0.0315446
-0.0557166
0.131521
-0.142552
-0.0294651
0.0404964
-0.0158295
-0.0463194
0.0598656
-0.0864969
0.00018117
0.0863158
-0.00139527
-0.0976755
0.162212
-0.0631416
-0.00227368
0.00339388
-0.000411942
-0.000708256
0.0889926
-0.152047
0.0311084
0.031946
0.00165799
-0.000177702
0.000653916
-0.0021342
-0.0818711
0.141258
-0.107447
0.0480595
0.0273329
0.00485748
-0.0399714
0.00778103
0.0856929
-0.0167403
-0.0757541
0.00680146
0.00720643
0.0282742
-0.0513101
0.0335639
0.0298013
-0.139142
0.0757771
0.0917713
0.108754
-0.0792917
-0.121233
0.000893433
-0.00136706
0.00196838
-0.00149475
-0.0937557
-0.0269852
0.111027
0.00971402
0.00284287
-0.00565276
0.0143018
-0.0114919
-0.0144903
-0.0349531
0.0575462
-0.0081028
-0.00383416
0.0159799
-0.0140327
0.0018869
0.000248405
-0.000586159
-0.00048339
0.000821143
0.0215896
-0.0244987
-0.000925074
-0.00172002
-0.000813745
0.00139429
0.00113947
-0.0577232
0.0655354
-0.00781224
-0.00216592
-0.0058254
-0.0021705
0.0101618
-0.03507
0.0263846
-0.00580487
0.0212372
-0.0511224
-0.054267
-0.052262
0.0446977
0.0956624
-0.088098
-0.00724198
-0.00149626
0.00439471
0.00434352
0.0474033
0.0132994
0.000396083
-0.0610987
0.000289354
-0.00826936
0.00678543
0.00119458
-0.0384309
-0.0552085
0.0127156
0.0809238
0.0648619
-0.0382703
0.0226098
-0.0492014
-0.00939615
0.0605251
-0.05887
0.00774106
-0.0601767
-0.0314932
0.00793617
0.0837338
0.017359
0.00435656
-0.0337513
0.0120357
0.0613241
-0.0578478
-0.00347627
0.00219802
0.00202344
-0.00119883
-0.00302263
0.0402828
-0.0421995
0.00191662
-0.0468137
-0.0446271
0.110551
-0.0191106
0.00100382
-0.00963531
0.00912232
-0.000490839
0.00320227
0.0056068
0.00228548
-0.0110945
0.00106061
0.00619599
-0.00696724
-0.0310642
-0.0545093
-0.0121634
0.0977369
0.0234268
-0.00643656
0.0179644
-0.0349546
-0.0890946
0.103013
-0.110905
0.0969866
0.0689006
-0.0470991
-0.0218015
0.0016286
-0.0356246
-0.00928233
0.0432783
0.00763195
-0.0061225
-0.00793669
0.00642725
0.044433
-0.0665197
-0.0623704
0.0844572
0.0769635
-0.0657756
0.0271516
-0.0383395
-0.0120293
-0.0073773
0.028777
-0.00937041
-0.062595
-0.0874461
0.0583363
0.0917047
-0.0428942
0.0547463
-0.0102236
0.099137
-0.0478812
-0.0512558
-0.00309427
0.0143347
-0.00360849
0.000951902
0.000640257
-0.000726823
-0.000865336
0.0482293
-0.0177908
-0.00468148
-0.025757
0.0037735
-0.00179153
-0.000667111
-0.00131486
0.00555877
-0.00958143
0.00873292
-0.00471025
0.0739477
-0.0445305
0.0248661
-0.0542833
0.00821174
-0.000224996
-0.00710652
-0.000880224
0.00179408
-0.000575979
-0.0012181
-0.0650506
0.0655956
-0.000544988
0.0144491
0.00598352
-0.098385
0.0779524
-0.0108051
0.0134084
-0.00943663
0.00683335
-0.07158
0.015586
0.0822699
-0.0262759
0.0183896
-0.0996525
0.0773197
0.00394318
-0.0500615
0.04229
-0.00856173
0.0163332
0.00888689
-0.00167939
-0.00297962
-0.00422788
-8.30541e-05
-0.00138765
0.0014707
0.0239202
0.179211
-0.248204
0.0450738
0.000270605
-0.000150877
-0.0265218
0.0635266
-0.0558884
0.0188837
-0.000117094
0.00543059
-0.00420269
-0.0011108
0.000644415
0.00176635
-0.00337752
-0.0758202
0.00618368
0.0696365
-0.0321911
0.109806
-0.0449485
-0.0326669
0.000170324
0.00116185
0.00952909
-0.0108613
0.00421636
0.0953675
-0.0995839
0.0023231
-0.00159725
-0.00101259
0.000286732
0.00130812
0.000598136
-0.000557297
-0.00134896
-0.0356378
-0.00224979
0.0294968
0.0222637
-0.064132
-0.0723248
-0.0169016
0.00486796
0.0843584
-0.000653625
0.00196174
-0.0974705
-0.0428974
0.112474
0.0278942
0.0243749
0.162706
-0.0800706
-0.0484257
-0.0342095
-0.0213428
0.11983
-0.0430396
-0.0554473
0.0414865
0.0253444
0.0429495
-0.10978
0.107049
-0.250134
0.109422
0.0336627
0.00153074
-0.0013711
-0.00153552
0.00137588
-0.012638
-0.0389939
0.0595194
-0.00788745
0.0260275
0.0392297
-0.025349
-0.0399082
-0.0370721
-0.0246408
-0.0180114
0.0797242
-0.0566645
-0.0159524
0.0599789
0.00113873
-0.0104687
0.00651152
0.0028184
0.0574369
-0.0278798
-0.0533561
0.023799
-0.0891097
0.104612
-0.0494415
0.0339388
0.015411
-0.0218977
0.00649326
-6.5292e-06
0.0562009
-0.0649781
0.0662141
-0.0584961
-0.00374363
-0.00779538
0.0700351
-0.00510905
-0.011846
0.00210229
0.0148528
-0.000548334
0.0549052
-0.0572684
0.00291159
0.133818
-0.0504747
-0.0035033
-0.07984
0.0616256
-0.00716138
-0.0492558
-0.00520842
0.0527715
-0.0191701
-0.0775566
0.0439552
-0.00901052
-0.00190573
0.0140449
-0.00312862
0.0050059
-0.0017053
-0.00473517
0.00143458
0.00240064
-0.043556
0.0386108
0.00254458
-0.00147839
-0.0855917
0.0029136
0.0186267
-0.0122262
-0.0596417
0.0398191
0.0198226
-0.0613135
-0.0158183
0.0108139
0.0663179
-0.0965437
0.000937026
0.102291
-0.00668469
0.00374028
0.022292
-0.0122057
-0.0138266
-0.0707322
0.145794
-0.0652919
-0.00976956
-0.00647066
0.0156118
0.0225517
-0.0316928
-0.0527001
0.0997346
0.0355678
-0.0826023
0.0264492
0.00212277
-0.0139802
-0.0145918
-0.0363955
0.0399429
-0.00114679
-0.00405205
0.00702176
-0.0103842
0.00741447
-0.00089615
-0.00383224
0.0102872
0.0347493
0.0385952
-0.0733445
0.000997084
-0.00167823
-2.12128e-06
0.000683264
0.0192621
0.00715431
-0.0174581
-0.00895829
0.0236989
0.00807942
-0.00268378
-0.0290946
-0.0514858
0.000460465
0.00717179
0.0438535
-0.000469289
-0.0430867
-0.000823684
0.000463728
0.00135704
-0.0494519
0.0356974
0.0496958
-0.0359413
-0.0427596
0.0283332
0.0190938
-0.00466744
0.00133736
-0.00297259
-0.00912459
0.0107598
-0.00748282
-0.00435758
-0.00344638
0.0152868
-0.040938
-0.00366717
0.00820974
0.073464
0.0396655
-0.0734025
-0.039727
-0.0431954
-0.000910039
0.0441054
0.0871501
-0.0479128
0.057863
0.0028273
-0.00823391
-0.0363187
0.0417253
0.0368621
0.010361
-0.0065347
-0.0406884
-0.000392099
0.000277016
0.000934288
-0.000819206
-0.0185405
-0.0425562
0.0610967
-0.000183682
-0.0012325
-0.00421395
0.030913
-0.0238718
0.00534764
0.0272994
-0.040881
0.0929199
-0.0868208
0.00250907
-0.00860822
-0.0247399
0.103069
-0.0189977
-0.0593317
-0.0298236
0.00572565
0.0161344
0.00796354
-0.0392594
0.0357137
0.0147362
-0.0111905
0.0298603
-0.0250414
-0.000368282
-0.00445068
0.020538
0.0721272
-0.121384
0.0287187
0.0730119
-0.0772687
-0.0235581
0.0278148
-0.138971
0.00182125
0.00207564
0.135074
0.0303943
0.0124569
-0.0397225
-0.00312868
0.0399425
-0.0583955
0.0193937
-0.00094071
0.00190533
-0.00103896
0.000141422
-0.00100779
-0.0133722
-0.00180946
0.0761861
-0.0404481
0.0182371
-0.053975
-0.0147555
0.0474951
0.00202238
-0.034762
0.00662244
0.0991727
-0.0952938
-0.0105013
0.0506828
-0.0994262
0.0562454
-0.00750199
-0.0536264
-0.000286048
0.039157
0.0151265
-0.00486917
0.00863367
-0.018891
-0.0278806
0.0495024
-0.0128306
-0.00879124
-0.0521019
-0.00152456
-0.0131892
-0.124283
0.175158
-0.0376857
0.0103906
0.0124315
-0.0646878
0.0418656
0.0480255
0.00655673
-0.0441915
-0.0113729
0.00600528
-0.00350601
0.00887364
-0.0594363
0.00475574
0.0546806
0.113113
0.0424467
-0.138187
-0.0173723
-0.00843023
0.000326255
-0.00326894
0.0181665
-0.114701
-0.0231942
0.119729
0.0107297
0.0715678
-0.069866
0.00204328
-0.0567149
-0.0100162
0.000449789
0.00176106
-0.00239453
0.00196344
-0.00172242
0.00020877
-0.0537802
0.0303968
0.0738032
-0.0504198
-0.00173303
0.000958809
0.000818665
-0.0350807
-0.00659933
0.0437233
0.000205888
-0.000177857
0.000311605
-0.000858328
-8.71493e-06
0.000555438
0.000221007
0.00194832
-0.00159706
0.00136424
-6.64491e-05
0.000299266
-9.92999e-05
0.00015093
0.00100162
0.102828
0.115779
-0.0721758
0.000176428
-0.00104195
0.000766222
-0.0515343
0.0549333
-0.00339905
-0.011339
0.07752
-0.068455
0.00227396
0.00200243
-0.0186295
0.00514639
0.0114807
-0.0624675
-0.000405809
-0.018128
0.00361238
0.0451097
-0.0305941
-0.0678651
-0.000591027
0.0684561
-0.00614167
-0.0149385
-0.0123424
0.0334225
0.0002558
-0.000286783
-0.000461902
0.000492884
-0.00376696
-0.00766007
0.00865995
0.00276708
0.0557722
0.0420667
-0.0164558
0.049866
0.0854378
-0.0367021
-0.0986017
-0.0129458
-0.0430375
-0.0223052
0.0242645
-0.0587673
0.0568081
-0.00861463
0.0262552
-0.00812096
-0.00951956
-0.0168469
-0.0125528
0.0152148
0.0141849
0.0975343
-0.0923348
0.0158184
-0.0210179
0.00101851
-0.00401034
-0.000164926
0.00315675
0.00338957
-0.0671315
0.0637419
-0.0694695
0.00124261
0.0642372
0.00398969
0.0367663
0.0392039
-0.0759702
0.0186563
-0.0590123
0.0274102
0.00233391
-0.00166559
0.00145021
-0.00211853
-0.00094534
-0.000861365
0.00337844
-0.00157174
-9.38786e-05
0.000482522
-0.00095354
0.000564896
0.06493
0.0546491
-0.0394241
-0.080155
0.00880631
-0.0897278
0.0785034
0.00241808
-0.0134879
-0.000266576
0.0267089
-0.0129544
0.0503454
-0.0492953
0.0196522
-0.0207023
-0.000429795
0.00120434
-0.000581724
-0.000192818
0.0199864
0.0489552
-0.0502853
-0.0469641
-0.00145027
0.000812617
0.00143099
-0.000793337
-0.000835268
0.0804631
-0.0796278
-0.0515775
-0.014678
-0.0234612
0.0897167
-0.0523086
0.000731101
0.0134136
0.0194657
0.0148857
-0.047765
0.000109245
-0.00250465
-6.45693e-05
0.00245997
-0.00155433
-0.000530956
0.000635007
-0.109848
-0.00665641
-0.0426968
0.159201
-0.00232931
0.00464283
0.133467
-0.135781
-0.0367455
0.0400447
-0.0643043
0.0610052
-0.0708357
0.0779174
-0.00708169
0.00319099
-0.0483823
-0.0303788
0.0639551
0.0219477
-0.00360622
-0.0822966
0.0487309
0.0890819
-0.155314
0.0175016
0.0436659
0.0147751
0.0310368
-0.0894779
0.103699
-0.112762
0.0458292
-0.00329124
0.0120043
-0.0108932
0.0021801
-0.00250102
0.000899394
-0.00110457
0.00270619
-0.00241557
-0.0055571
0.00139194
0.00658073
0.0601928
-0.00675234
-0.0189743
-0.0344662
-0.0588744
0.0303
0.0285745
-0.0897289
-0.00996995
0.0129714
-0.000104297
0.000461506
-0.00285823
-0.116093
0.0281996
0.00645684
0.0814363
0.00202623
-0.0515737
-0.010418
0.0599654
0.048416
0.0269635
-0.10761
0.0322304
0.0358436
-0.0422771
-0.0177873
0.0242208
0.0481491
-0.0619504
0.049645
0.0314901
-0.0542983
0.0462788
-0.0234706
0.0328475
-0.0365564
0.00192828
0.00178062
0.021509
-0.145293
0.0884368
0.0353476
0.00234648
-0.0604444
-0.0024462
0.0534312
0.00186025
-0.109732
-0.0341442
-0.00962471
0.00477049
0.0389985
-0.0487734
0.0444856
0.0477767
-0.0434888
-0.0435236
0.0826107
-0.0390871
0.0100228
-0.102387
0.0500868
-0.0150779
0.00787927
0.0230432
-0.0158446
-0.0911879
0.0958863
0.0372689
-0.0419674
0.0577325
0.0317696
-0.07785
-0.0116521
-0.0484165
0.144309
0.00616538
-0.102058
-0.000259621
0.00326545
0.00310342
-0.00610925
0.0503671
-0.0695785
0.0861338
-0.0669225
0.0085506
-0.0411314
-0.00875795
0.0413388
-0.0412983
0.0266112
0.100784
-0.0860969
-0.0510691
-0.0291523
0.056222
0.0239994
-0.0101785
-0.00201642
0.00718991
0.00500504
-0.00944514
0.0204986
-0.0164501
0.00539662
-0.00268303
0.0730508
-0.0703677
0.0150885
-0.0456643
-0.0181975
0.047586
-0.03129
-0.00212695
-0.014169
0.00118046
-0.0234389
-0.0203501
0.0426085
0.0363654
-0.0348103
-0.00155506
0.0596562
-0.0429277
0.0676448
-0.0843733
-0.100872
0.0978404
0.100566
0.000575315
-0.0106931
-0.00217572
0.0122935
0.0514538
-0.000239507
0.000496877
0.000227236
-0.000484606
0.0013203
0.0459962
-0.109457
0.0621407
-0.00846695
-6.24794e-05
0.00477297
0.00375646
0.0269347
0.0114171
-0.0383518
0.00107425
-0.00135027
-0.00819093
-0.0319216
-0.0360171
0.021125
0.0587907
-0.0018948
-0.0568958
0.07194
-0.0426671
-0.0491844
0.0199116
0.0020934
-0.0255718
-0.0203818
0.0659591
0.0450836
-0.0391028
-0.00775467
0.00940423
0.130138
-0.121307
0.0378288
-0.0466594
-0.0458039
0.0371249
0.0215742
-0.0128952
-0.0513572
0.0523149
-0.000957665
-0.0483829
0.0298472
0.00986134
-0.0482488
-0.00945097
0.0478385
0.00381671
0.161198
-0.167014
0.0019994
0.109231
0.015733
-0.0162977
0.0511757
0.00788466
-0.0524364
-0.006624
-0.0144019
0.00460563
0.0101694
-0.000373069
-0.00942178
-0.00490355
0.00471166
0.00961366
0.0664252
-0.0352775
-0.0549118
0.0237641
0.0295503
-0.0161631
0.0213054
-0.0346926
0.0262926
-0.0959911
0.0915057
-0.0218072
-0.00538253
-4.38096e-05
-0.0089756
-0.0945303
0.107899
-0.0226141
0.00924525
-0.0111125
0.0497351
0.0129835
-0.0516061
-0.00410065
0.000182905
0.00275335
0.00116439
0.0851511
-0.006069
0.0522976
-0.13138
2.72646e-05
-0.00071024
-4.62622e-06
0.000687601
-0.0661966
0.0627883
0.071666
-0.0682577
0.00301594
0.00082722
-0.00149807
-0.00234509
-0.0794601
0.0798895
-0.000429434
0.0628558
-0.0590085
-0.00384736
0.0607566
-0.000977402
-0.0597792
-0.0161292
0.128939
0.00198203
-0.114792
0.00964372
-0.0306429
0.0344128
-0.0242203
-0.000985801
-0.0565435
-0.0701991
0.012351
0.0645158
-0.00666759
-0.0126078
-0.00219654
0.00171119
-0.000687736
0.000298504
-0.00132195
0.00108411
-0.000425443
-0.000161983
-0.000496687
-0.0654682
0.00686129
0.000324875
0.0582821
0.000721598
-0.00509353
0.00133783
0.00303411
0.0112112
-0.014513
0.000265214
0.00303662
0.00807167
-0.00736964
0.0105092
0.0576887
-0.0113262
-0.0266142
-0.0197484
0.0381913
-0.00584262
-0.0363847
0.00403604
0.00016942
0.0683221
-8.36955e-05
-0.0684078
0.00777234
-0.0723584
0.0182202
0.0463659
-0.0414129
-0.0339682
0.043046
0.0323351
-0.0322754
0.0154476
-0.0878403
0.104668
-0.000849323
0.0142432
-0.00681471
-0.00657915
0.0512366
-0.0592268
0.0466555
-0.0386653
-0.0614963
-0.0118231
-0.00445492
0.000701785
-0.000411347
0.0040039
-0.00429434
-0.01107
-0.00242654
0.00127133
0.0122253
-0.0076071
-0.00870238
0.0104426
0.00586688
-2.49342e-05
-0.00216228
0.00121209
0.000975119
-5.04571e-05
9.29856e-05
-4.25285e-05
-0.00198744
-0.0666983
-0.0241077
0.0927934
-0.000121936
-0.000385094
-0.00123917
0.0017462
-8.53913e-05
6.35506e-05
-2.86164e-05
-0.00363131
-0.0642338
-0.000127093
-0.000119361
0.000339439
0.000735248
0.000175076
-0.000453019
-0.000457304
-0.0268246
0.057671
0.0797217
-0.110568
-0.00868013
-0.00216405
0.00687048
0.00397369
-0.0140963
-8.24291e-05
0.00549863
-0.00453147
0.00503041
0.0123038
-0.0128027
1.95145e-05
1.34396e-05
-0.000160047
-0.063718
0.0672009
-0.00348291
0.0321444
0.0455143
-0.0595271
-0.0181317
0.013403
-0.0757627
-0.021018
0.0833776
-0.0127189
0.00277561
0.00541178
-0.00470825
-0.00578452
-0.00222609
-0.0152234
0.0612237
0.0109133
-0.0569137
0.0685145
0.00320252
-0.0516471
-0.0200699
0.00024838
0.000436403
-0.000633243
-5.15402e-05
4.55571e-05
-0.000111434
-0.00279997
-0.00108839
-0.000942844
0.00483121
0.0636434
-0.0449001
0.0133905
-0.0321338
-0.000650102
-0.00273451
0.00151382
0.00187079
-0.0151703
0.0111305
-0.0041686
0.00820846
0.000258522
-0.105849
0.102154
0.00343616
0.00282419
0.000455552
-0.0100028
0.00672308
0.00949195
-0.00975062
0.00127624
-0.00101757
0.00970984
0.00331842
-0.0102041
0.0381473
0.0573234
-0.0318272
-0.0272252
0.0547573
0.0303258
-0.0578579
0.0288654
-0.0560906
-0.000166235
-0.00183043
-0.032838
0.0134854
-0.00995393
0.0781114
0.0242208
0.00694613
0.0731401
-0.0547634
0.0982034
-0.11658
-0.00123682
0.0921528
-0.090916
-0.00680641
-0.00640423
0.0126755
0.000535157
-0.0337858
-0.0852143
0.0268692
0.092131
0.0210805
0.0617198
-0.0229157
-0.0598846
-0.0228114
0.114197
-0.0532382
-0.0413222
0.0439924
0.0520871
-0.0564868
0.0581726
-0.00168585
-0.0368177
0.0361865
0.000631168
0.0418084
-0.0819168
0.0734161
-0.0333076
0.0652797
-0.0805031
-0.00851318
-0.00837452
0.0100813
0.00061009
0.000732397
-0.000462827
-0.00087966
-0.00832283
-0.0411796
-0.00698435
0.00123221
0.00139319
-0.00234035
-0.000285057
-0.0563841
0.0521081
0.0863493
-0.0820732
0.03421
-0.0319042
-0.00230576
0.00973038
0.0278804
-0.0125647
-0.0250461
0.00389898
-0.000666197
0.00257999
-0.00581278
-0.0626944
-0.000720236
0.020983
0.0424317
-0.00295535
0.0068087
4.56224e-05
0.0403564
-0.110865
0.104896
-0.0343872
0.0407959
0.0168826
-0.0583044
0.000625958
-0.00371006
0.00702463
0.00138618
-0.00470075
0.000965524
0.0600965
-0.061062
0.0357206
0.00636287
0.0143505
-0.056434
0.00386278
-0.00723101
0.00270204
-0.179861
0.0216446
0.169183
-0.0109666
0.0381815
-0.0102005
-0.0279811
-0.000886133
-0.00173475
-0.0013101
0.00393099
-0.0403114
0.0429782
0.128155
-0.130822
-0.00170458
0.000732932
-0.00220611
0.00317776
0.0880423
-0.00413338
-0.043113
0.000333213
-0.00109648
0.00211521
-0.00135195
-0.0200128
-0.113214
0.0154463
0.117781
0.00145449
0.0539229
-0.00176836
-0.053609
0.0467679
-0.0657124
0.0571227
-0.0381782
0.0323659
-0.0368027
0.0491237
-0.0446868
0.00893865
-0.00275606
0.00624403
-0.0124266
0.00293214
-0.0424088
0.0532225
-0.0564331
-0.0335921
0.101031
0.0171676
-0.0272292
-0.0909695
0.0465784
0.0202666
-0.138182
0.0713374
-0.00130635
-0.00823922
0.00620053
0.00334504
0.0283819
-0.0498635
-0.00356593
0.0281764
-0.0250709
0.00765822
-0.00595336
0.000274098
-0.00197896
-0.0902986
0.00388703
-0.00335788
0.0781999
-0.154022
0.0791798
-0.0262706
-0.0893114
0.0433832
0.0721988
-0.070803
0.0186041
0.000195364
0.0520035
-0.0454089
0.028392
0.0135926
-0.081347
0.0952085
-0.0138615
-0.0244618
-0.00936368
0.125728
-0.0919029
-0.00337494
-0.00415644
0.00593042
0.00160096
-0.0258488
0.0619622
0.0408502
-0.0714837
0.0288166
-0.00059906
-0.000396255
-0.00103619
0.0020315
0.0477015
-0.0497682
0.0554978
-0.0353275
-0.00703034
-0.0448959
-0.12141
0.0438755
0.0775343
-0.0444941
-0.0334784
0.0295896
0.00290063
-0.00202369
0.00043204
-0.00130898
0.00216026
-0.000286436
0.00102681
-0.0874742
0.00554306
0.0819312
0.0635697
0.0117541
-0.123641
0.0483169
-0.0732532
0.00365936
0.0695938
0.000766167
-0.00137033
0.00799325
-0.00738909
0.047699
0.162227
-0.230089
0.0201634
0.00141085
-0.00235501
0.00168044
-0.000736272
-0.0938127
0.0681309
0.0227447
0.00293707
0.00114764
0.00124666
-0.00254529
0.000150993
-0.000984879
0.00867246
-0.00743623
-0.000251353
0.00773083
0.00836308
-0.0162844
0.000190445
0.0394266
0.0114895
0.00273585
-0.00254849
0.00122349
-0.0957834
0.107569
0.00149006
-0.0132753
0.0119491
-0.0675609
-0.0223287
0.0779405
-0.00144678
-0.00125775
0.0893395
-0.0866349
-0.0400089
-0.0392369
0.0889296
-0.00968383
-0.0381791
0.0240052
0.0386571
-0.0244832
0.0496839
0.0214728
-0.0702179
-0.000938781
-0.0034973
0.0012394
0.00250434
-0.00024644
-0.122061
-0.0403458
0.0394267
0.122981
0.0496337
-0.0397724
-0.0312187
-0.0358069
-0.0322707
0.0992962
-0.0018114
0.00404293
1.78701e-05
-0.0022494
-0.0263236
-0.0858794
0.0282356
0.0839674
-0.0276939
-0.0278123
0.0201787
-0.00102657
-0.00280852
-0.00146284
0.00336928
-0.00344307
0.00153663
-0.00696408
0.00641677
0.0189912
-0.0733086
-0.0799046
0.134222
-0.000325682
0.000120616
5.63027e-05
0.000148764
0.0525861
-0.0556331
0.0452898
-0.0422428
-0.0146094
0.0406194
-0.00537829
-0.0206318
0.0856577
-0.0860813
-0.0194299
0.0198536
0.026322
0.0208073
-0.0618651
0.0147358
-0.131562
0.0748649
0.0180484
0.038649
-0.00471559
0.00235664
-5.26949e-05
0.00241164
-0.00742583
0.00876948
-0.000577478
-0.0148008
-0.00299052
0.0189056
-0.0011143
-0.0638711
-0.00314082
0.0165814
0.0504305
-0.00531199
0.101238
-0.00481559
-0.0911105
0.00486806
-0.0476625
0.0805541
-0.0377597
-0.00177464
0.00377392
-0.00152486
-0.000474416
-0.0156956
0.00123944
-0.0026852
0.0171414
-0.104905
-0.00167733
0.0134849
0.0930978
-9.15443e-05
-0.000103458
0.000110873
8.41293e-05
0.038789
0.0081811
0.0264939
-0.00637647
0.0454035
0.0562742
-0.0953012
-0.000123377
-7.31228e-05
0.000104955
-0.000583882
0.0022443
-0.00134331
-0.000317106
0.0191725
0.110894
-0.0491442
-0.0809222
-0.000113417
9.95819e-06
1.87259e-05
-0.000132142
0.0618974
0.0168794
-0.0904313
0.0116546
-0.159581
0.0830127
0.0808098
-0.00424175
-0.0174536
0.000196701
-0.0500348
0.0672917
0.0246167
-0.0148343
0.0187534
-0.0285358
-0.0679872
-0.0199598
0.087947
-0.0751226
0.0370195
0.0381031
-0.001769
-0.000314526
-0.000150408
0.00223393
-0.0406459
0.0420792
0.00930468
-0.0107379
0.0477328
-0.0547139
0.00698119
-0.0582164
0.0343937
0.0453579
-0.0215352
0.00387363
-0.00171698
-0.00213569
-2.09626e-05
-0.00300179
-0.00253752
0.000823729
-0.0425676
-0.046527
0.0464601
0.0149719
0.00267223
-0.0641043
0.000111991
-0.000754865
0.00162606
-0.000983182
-0.0148683
0.0175638
-0.00864955
0.00595406
0.00717735
0.0208035
-0.0394908
0.01151
-0.0215602
-0.0133659
-0.00776398
0.04269
-0.0738268
-0.0105934
0.0270406
0.0573797
-0.00136555
0.0149514
-0.00872959
-0.00485621
-0.0559509
0.00199127
0.0323995
-0.00101755
0.0283456
-0.138766
0.126089
-0.0156682
0.0284786
-0.0331501
-0.0530516
-0.029662
0.0585275
0.00203592
0.0377624
0.00217711
-0.0419755
-0.0603241
-0.0617066
0.122031
-0.0028547
-0.00065019
-0.00182842
0.00533331
0.00330134
-0.00458963
0.0015288
-0.000240506
0.0358623
-0.00555896
-0.0286891
-0.00161417
-0.00322009
-0.0017762
0.00214159
0.00177515
-0.00401818
0.063772
-0.061529
0.0743284
0.00217404
0.0277675
0.0084382
-0.00409974
-0.0321059
0.0576574
-0.00175624
-0.0559011
-0.0547593
0.115722
-0.0287691
0.058825
0.0225191
-0.0525749
-0.0149182
-0.0226892
0.0151828
0.0224247
0.00343232
0.00344034
0.000788451
-0.00766111
-0.0370602
-0.0365152
0.100693
-0.0271179
0.0431344
-0.0338751
-0.00103254
-0.00822666
-0.0518738
0.117269
-0.0507979
-0.0145975
-0.00186002
0.00206285
-0.000152305
-5.05253e-05
-0.000793516
0.0218493
-0.00370261
-0.0173532
0.00240568
0.00365552
0.000248311
-0.00630951
-0.000424877
-9.85933e-05
3.58083e-05
0.000487662
-5.68125e-06
3.65375e-05
-0.000455734
-0.00918005
0.0293199
0.0649909
-0.0851308
0.0807591
-0.0831028
0.0023437
0.000549405
-0.000535906
-1.34992e-05
-0.0134135
0.00110688
0.00212416
-0.00151286
-0.00171818
-0.0103906
-0.00757858
0.00671282
0.0112563
-0.0560894
0.0273203
0.00034452
0.000373836
-0.000835103
0.000116747
0.0324081
0.056538
-0.0395329
-0.0494132
0.016762
0.152294
-0.175691
0.00663509
0.0583213
0.0640177
-0.063514
0.00200388
-0.012461
-0.00129646
0.0117536
-0.0321893
-0.0310204
0.0632097
0.0319204
-0.0641097
-0.0531304
-0.0435597
-0.0678628
0.164553
0.0496467
-0.0569145
0.00726773
-0.0708918
0.133483
-0.0739172
0.0323106
-0.0297684
0.0848021
-0.00334849
-0.0682968
-0.0131568
0.0709122
-0.0700107
0.013716
-0.0146175
-0.000473107
-0.00569167
0.00743378
-0.001269
0.00104623
-0.00527676
0.00566621
-0.00143568
-0.000103067
-8.85195e-05
0.000849034
-0.000657448
0.0207509
0.022005
-0.0325983
-0.0101576
-0.00503557
-0.00547342
0.00582696
0.00468203
-0.00968511
0.030716
-0.0412831
0.0202522
0.000846944
-0.00808118
0.0111808
-0.00394661
0.0475316
-0.00263722
-0.0448943
0.0394671
0.0378266
-0.125684
0.0483903
-0.0993562
0.0583855
0.0804377
0.0343222
-0.101758
-0.0429323
0.106552
-0.0426385
-0.0209809
0.0020866
0.00876517
-0.0124749
0.00162311
0.0262767
-0.00424532
-0.0220313
-0.0298457
0.045299
-0.00354662
0.0191479
-0.0324482
0.00158638
0.000150566
0.000536727
-0.00227367
0.0115411
-0.036612
-0.000955357
0.000188472
-0.000765829
0.00153271
0.0026598
5.51427e-06
0.000643698
-0.00330901
0.00145277
0.000696166
-0.0769655
-0.0149424
0.00240394
-0.0109888
0.0235273
0.0191173
-0.0907788
0.0197832
0.0518784
-0.00361985
0.0584229
-0.0820636
0.0272605
0.000280671
-0.000499726
0.00228003
-0.00206097
0.083902
0.0123112
0.000130044
-0.0963433
-0.000893928
-0.000901723
0.00191659
-0.000120937
0.00679915
-0.00384987
-0.0708669
0.0679177
0.00599311
-0.00114399
-0.00428018
-0.000568938
0.00579526
0.00430202
-0.00339981
-0.00669748
-0.110287
0.0970005
-0.0867061
0.0999927
-0.0564636
0.108416
-0.0519522
0.0034762
-0.0447625
0.0104217
0.0308647
0.00334024
-0.0040317
0.00120425
-0.000512789
0.0472027
2.89894e-05
0.000263467
-0.134032
0.00387954
0.0753935
-0.0338121
-0.00114104
0.000920593
0.0289865
-0.0233774
-0.0065297
0.0762648
-0.0271234
0.0324756
0.00367676
-0.00450097
3.13504e-06
0.000821081
0.0345194
0.0225103
-0.0745123
0.0174826
-0.00117378
0.000740679
0.000865787
-0.00043269
-0.000487897
0.00132918
0.00495398
0.000707285
-0.00721162
0.0059324
0.00495597
0.0796624
0.0407891
-0.0387501
-0.0817013
-0.135594
0.148123
-0.0118516
-0.000677588
0.0304503
-0.0317209
0.00127055
-0.0351984
-0.00101266
0.00026574
-0.002943
-0.00182371
0.00826861
0.212523
-0.154975
-0.0658171
0.0304059
-0.0639973
-0.0164572
0.0500486
-0.00264386
0.0373444
-0.000290399
-0.086422
0.049368
-0.0211233
0.0084352
-0.0386474
0.048504
0.0469485
-0.0568051
-0.0696574
0.0858798
-0.145755
0.129533
-6.92251e-05
0.000205496
-0.00154081
0.00140454
0.000298298
0.00219158
-0.000812531
-0.00167734
0.046663
-0.0206699
0.0437842
-0.0697774
-0.00360729
0.000499933
0.00310777
-4.05631e-07
-0.0110231
0.0111844
-0.0388087
0.0105421
-0.0418312
0.00563503
-0.00312832
0.0177097
-0.0202164
-0.128298
0.0164889
0.120484
-0.00867536
0.0391854
-0.0256822
-0.0202393
0.0067361
0.0331338
-0.0571407
0.0129839
0.0036742
0.00666214
0.0528648
-0.0632012
0.0238446
-0.00646079
-0.0246264
0.00724262
-0.0811495
-0.0068348
0.0164043
0.00124741
-0.000925798
-2.3319e-05
0.000562352
0.00710198
0.00156303
-0.00922736
0.0179881
-0.0313321
0.0371886
0.0139889
-0.140361
-0.0223077
0.14868
-0.109368
-0.0175307
0.0228552
0.104044
0.0538498
-0.0340376
0.03227
-0.0520822
0.110822
-0.00754837
0.00461668
-0.10789
-0.0159438
-0.0364038
-0.00393508
-0.0149644
0.00730776
0.0115917
-0.00118713
0.000449341
4.99652e-05
0.000687819
0.012315
-0.0760082
0.0636932
0.102884
-0.00447062
-0.114543
-0.0236282
0.0557116
-0.0480272
0.0382553
-0.121087
0.013105
0.0697263
-0.00592802
-0.0129264
-0.0255355
0.0443899
0.00869998
0.0452809
0.0777422
-0.124548
0.00152514
0.0471673
-0.0839939
0.0927844
-0.0559578
-0.0975419
0.0955072
-0.00550563
0.00754026
0.00064892
0.00168467
-0.091884
0.0895504
-0.00130214
0.00366352
0.00579843
-0.00815981
8.08034e-05
-0.000841667
-0.000196838
0.000957701
0.087112
0.00258595
-0.0183898
-0.0713082
-0.000179287
0.000132495
0.00014415
-9.73586e-05
0.000554307
0.00313223
-0.00184312