/*--------------------------------*- C++ -*----------------------------------*\
| =========                 |                                                 |
| \\      /  F ield         | OpenFOAM: The Open Source CFD Toolbox           |
|  \\    /   O peration     | Version:  2506                                  |
|   \\  /    A nd           | Website:  www.openfoam.com                      |
|    \\/     M anipulation  |                                                 |
\*---------------------------------------------------------------------------*/
FoamFile
{
    version     2.0;
    format      ascii;
    arch        "LSB;label=32;scalar=64";
    class       volScalarField;
    location    "0.075283";
    object      k;
}
// * * * * * * * * * * * * * * * * * * * * * * * * * * * * * * * * * * * * * //

dimensions      [0 2 -2 0 0 0 0];

internalField   nonuniform List<scalar> 
3926
(
0.302124
0.299898
0.417178
0.617017
0.483939
0.781085
0.784139
0.910651
0.743537
0.827855
0.868075
0.315159
0.299808
0.314101
0.316188
0.299983
0.307031
0.307796
0.462737
0.295508
0.426927
0.527159
0.487088
0.30675
0.362732
0.472562
0.450947
0.593809
0.622782
0.317818
0.335271
0.384115
0.322913
0.332461
0.375116
0.319461
0.920848
0.373275
0.321161
0.296988
0.561252
0.994151
0.343823
0.299749
0.309715
0.973225
0.357268
0.442933
0.780122
0.363833
0.420888
0.887075
0.841633
0.813325
0.329314
0.366689
1.22031
0.693682
0.396443
0.704787
0.308669
0.608525
0.940396
0.379749
0.810206
0.740548
0.803274
0.622153
0.810514
0.797228
0.691233
0.305132
0.79142
0.289254
0.328012
0.43067
0.334757
0.65837
0.402711
0.313905
0.496181
0.372296
0.769776
1.27585
0.312561
0.349396
0.304899
0.336574
0.795671
0.320879
0.312646
0.386713
0.444677
0.346996
0.344821
0.931797
0.3239
0.37781
0.795933
0.42196
0.559992
0.366078
0.415719
0.377401
0.593751
0.526075
0.386381
0.339351
0.365128
0.328056
0.430284
0.378213
0.349526
0.373281
0.3053
0.7027
0.497228
0.30039
0.772625
0.869913
0.292687
0.292263
0.314789
0.42796
0.347816
0.389031
0.618411
0.350507
0.559524
0.404149
0.368874
0.373582
0.351693
0.36563
0.781402
0.774205
0.79547
0.753523
0.843555
0.447798
0.309945
0.309177
0.412428
0.454129
0.344677
0.597048
0.401665
0.500567
0.37644
0.395012
0.418637
0.438962
0.396734
0.474381
0.524919
0.551117
0.392592
0.591834
0.516953
0.562524
0.433349
0.348405
0.376743
0.70975
0.733309
0.37312
0.334595
0.302318
0.326993
0.50794
1.04738
0.343498
0.315065
0.313577
0.365653
0.428996
0.366183
0.761938
0.504547
0.380463
0.690194
0.300221
0.543091
0.307963
0.296289
0.401101
0.422666
0.343802
0.440511
0.409526
0.759528
0.369651
0.605657
0.34598
0.349121
0.314045
0.331127
0.337791
0.345871
0.824601
0.391762
0.844842
0.812999
0.354467
0.341951
0.50352
0.325612
0.738154
0.373461
0.292215
0.298321
0.334328
0.428888
0.311682
0.316263
0.546493
0.338644
0.41981
0.407189
0.456071
0.318392
0.436781
0.317807
0.91118
0.35975
0.773004
0.74686
0.39573
0.303882
0.374415
0.322568
0.613812
0.314896
0.329877
0.412146
0.415043
0.386922
0.518572
0.948821
0.411886
0.937318
0.340969
0.326825
0.758378
0.297203
0.389454
0.702952
0.386877
0.316009
0.900645
0.752889
0.675287
1.15454
0.527126
0.349369
0.567646
1.14854
0.398469
0.484228
0.852012
0.820053
0.779261
0.372783
0.74959
0.849668
0.366479
0.295896
0.421329
0.411678
0.858671
0.766096
0.878356
0.312835
0.423902
0.37214
0.464672
0.302682
0.401987
0.312968
0.302959
0.699019
0.896124
0.302071
0.341488
0.564328
0.782632
0.587803
0.674583
0.880989
0.524434
0.482819
0.300506
0.349297
0.632757
0.298507
0.468493
0.329876
0.394925
0.377583
0.68376
0.988099
0.520637
0.350044
0.434749
0.342837
0.573434
1.00595
0.401653
0.332113
0.767241
0.856728
0.5392
0.629312
0.313159
0.446137
0.380963
0.370661
0.288151
0.54752
0.392932
0.566879
0.307391
0.841725
0.534482
0.551849
0.371995
0.697993
0.488809
0.944966
0.334887
0.461718
0.332954
0.286347
0.302375
0.305165
0.298909
0.42533
0.704138
0.935926
0.547584
0.653927
0.582212
0.408772
0.302064
0.35756
0.309668
0.83846
0.670385
0.842675
0.464716
0.768782
0.435096
0.407559
0.526146
0.905617
1.0411
0.928723
0.807273
0.328304
0.308734
0.350619
0.296329
0.479237
0.443997
0.800767
0.47875
0.418987
0.331383
0.505131
0.313883
0.304833
0.302013
0.799485
0.332035
0.573421
0.366981
0.427334
0.345766
0.701193
0.397066
0.312137
0.447234
0.428539
0.486933
0.354205
0.330734
0.488651
0.574112
0.437394
0.382956
0.885643
0.336632
0.982055
0.426904
0.380254
0.402145
0.425017
0.30048
0.399026
0.286056
0.303177
0.316752
0.349376
0.327868
0.447694
0.453887
0.409992
0.303907
0.429029
0.311898
0.32325
0.817412
0.595808
0.485612
0.363943
0.363473
0.372831
0.887686
0.353699
0.292239
0.316442
0.318819
0.404459
0.456917
0.369593
0.313498
0.38563
0.30526
0.30907
0.309408
0.412511
0.302308
0.509798
0.371682
0.306726
0.316903
0.397762
0.295806
0.854399
0.32296
0.35478
0.898292
0.693306
0.293428
0.615486
0.881874
0.547178
0.801369
0.320039
0.297562
0.875332
0.393741
0.318958
0.821064
0.301713
0.568241
0.538441
0.390834
0.374968
0.316508
0.313995
0.52169
0.320078
0.339322
0.37603
0.323896
0.344481
0.81884
0.393019
0.314021
0.313531
0.312258
0.290529
0.291528
0.471926
0.457716
0.374333
0.459727
0.304095
0.509558
0.50723
0.425474
0.302801
0.355833
0.291684
0.343275
0.676801
0.502242
0.438509
0.878957
0.391386
0.490544
0.884092
0.883047
0.432568
0.494911
0.563732
0.413577
0.518337
0.725084
0.444539
0.676557
0.404736
0.445685
0.513098
0.954033
0.346588
0.453568
0.311281
0.713246
0.495058
0.943328
0.932069
0.430221
0.510173
0.659792
0.816756
0.490837
0.923116
0.849777
0.938617
0.825831
0.831374
0.617305
0.774826
0.427011
0.439967
0.806095
0.742569
0.438417
0.314756
0.318715
0.364193
0.296656
0.678277
0.722467
0.859295
0.900743
0.311992
0.311183
0.315548
0.713266
0.963546
0.90274
1.09246
0.77064
0.682791
0.320805
0.33086
0.318552
0.319723
0.41849
0.574841
0.306955
0.312386
0.633426
0.440563
0.546947
0.613097
0.40259
0.393397
0.457795
0.293431
0.306289
0.33739
0.354665
0.764055
0.711541
0.636828
1.17979
0.352829
0.342281
0.319662
0.313795
0.310861
0.591192
0.444364
0.407651
0.831446
0.306587
0.808623
0.373944
0.442907
0.338498
0.443579
0.523328
0.794605
0.33284
0.323489
0.327913
0.675972
0.328557
0.790532
0.986545
0.827251
0.311445
0.502306
0.790843
0.630893
0.662938
0.483396
0.361435
0.379873
0.34482
0.300601
0.29568
0.366019
0.541528
0.518193
0.745753
0.686509
0.447467
0.608666
0.340611
0.314143
0.32285
0.300619
0.30727
0.301441
0.300094
0.301385
0.469869
0.425467
0.365954
0.792773
0.700095
0.566436
0.347434
0.371968
0.30745
0.326735
0.368685
0.31386
0.323518
0.575096
0.31043
0.323851
0.526378
0.483461
0.723241
0.461517
0.316658
0.349843
0.424723
0.786746
0.380325
0.387591
0.425874
0.414674
0.46069
0.328031
0.407924
0.401286
0.393223
0.328223
0.478919
0.318712
0.320321
0.325247
0.52566
0.568502
0.316501
0.327399
0.324324
0.44733
0.419542
0.391714
0.875389
0.416907
0.333189
0.394063
0.302899
0.298916
0.382734
0.377914
0.387533
0.474102
0.395997
0.357119
0.440648
0.331774
0.352176
0.433475
0.694482
0.474301
0.347085
0.321851
0.31496
0.298065
0.296753
0.443937
0.404524
0.590512
0.455143
0.419749
0.309551
0.307175
0.305672
0.321625
0.319415
0.314836
0.322727
0.305795
0.332337
0.327443
0.32381
0.31786
0.399535
0.513349
0.302889
0.299495
0.311816
0.305235
0.326027
0.301022
0.345387
0.328253
0.442424
0.48356
0.471253
0.349629
0.351852
0.324179
0.337321
0.320003
0.318121
0.299361
0.301439
0.296567
0.397186
0.288659
0.329866
0.395671
0.342905
0.297452
0.41333
0.336071
0.312705
0.308277
0.314276
0.304073
0.303726
0.76926
0.31109
0.315404
0.327295
0.296922
0.297557
0.300243
0.29597
0.299812
0.29927
0.298957
0.2976
0.339648
0.329103
0.951465
0.425986
0.800653
0.355374
0.966617
0.350437
0.31521
0.364705
0.623185
0.392592
0.661623
0.581268
0.384794
0.905185
0.303849
1.01628
0.94777
0.302155
0.312435
0.564881
0.701016
0.30965
0.310766
0.405035
0.291943
0.650904
0.416425
0.394174
0.298559
0.314711
0.317907
0.328744
0.313019
0.299364
0.326879
0.294364
0.302518
0.527685
0.382977
0.328985
0.371229
0.302856
0.34313
0.4123
0.330748
0.327822
0.945523
0.321459
0.405334
0.826056
1.03406
0.397457
0.308155
0.384488
0.306905
0.639235
0.34094
0.290913
0.414137
0.306658
0.300154
0.328733
0.343991
0.335779
0.711267
0.548562
0.857403
0.314749
0.395944
0.354293
0.324227
0.997756
0.495277
1.3419
0.299699
0.296875
0.831187
0.624317
0.691303
0.397621
0.297907
0.316676
0.299433
0.86911
0.343139
0.290041
0.817038
0.358979
0.31602
0.317672
0.540131
0.303569
0.402557
0.4646
0.313159
0.886817
0.399621
0.330379
0.883565
0.602017
0.341298
0.797963
0.743791
0.328808
0.847765
0.314996
0.309219
0.338499
0.510788
0.365089
0.364845
0.315797
0.996285
0.845763
0.682596
0.453159
0.77729
0.435959
0.328514
0.400169
0.35303
0.35203
0.595571
0.492569
0.717159
0.324434
0.320727
0.461384
0.381391
0.439185
0.794351
0.387667
0.394257
0.303651
0.310835
0.290799
0.325011
0.296201
0.693539
0.297659
0.664321
0.347882
0.299015
0.413397
0.515238
0.617754
0.482048
0.4058
0.548083
0.307311
0.317422
0.330905
0.987562
0.312849
0.385223
0.936276
0.29953
0.292403
0.296416
0.397673
1.02426
0.5872
0.694438
0.444497
0.318531
0.317155
0.317323
0.5683
0.295502
0.330242
0.693281
0.58507
0.625093
0.47607
0.451302
0.419416
0.898785
0.697212
0.314392
0.347557
0.454006
0.303576
1.23043
0.918351
0.315272
0.301043
0.295784
0.306866
0.316394
0.307068
0.361237
0.351555
0.483659
0.766058
0.684289
0.493125
0.317054
0.419316
0.830894
0.632312
0.837858
0.627874
0.373643
0.311995
0.479212
0.557099
0.791779
0.397755
0.372124
0.450262
0.400205
0.691125
0.337231
0.689844
0.846534
0.461759
0.452589
0.318859
0.412489
0.305261
0.803969
0.527595
0.410459
0.377147
0.353023
0.347926
0.391473
0.377012
0.50564
0.336832
0.289043
0.321023
0.304778
0.768092
0.414034
0.849758
1.08274
0.774234
0.626619
0.469513
0.324552
0.323406
0.462645
0.480645
0.343973
0.294187
0.775995
0.80389
0.403679
0.381565
0.301549
0.319227
0.969287
0.392927
0.352714
0.330175
0.463308
0.381115
0.599541
0.411065
0.569192
0.332998
0.309758
0.368217
1.00732
0.496087
0.416097
0.955528
1.01749
0.508184
0.368741
0.423142
0.312091
0.316501
0.309367
0.297366
0.413204
0.332082
0.356286
0.622108
0.360959
0.852938
0.471183
0.385904
0.33268
0.811731
0.33556
0.356371
0.399976
0.937994
0.298834
0.41173
0.323319
0.872861
0.351578
0.445475
0.357145
0.427588
0.627784
0.807149
0.310726
0.615571
0.740233
0.527702
0.337042
0.629384
0.608976
0.965506
0.315243
0.322749
0.320049
0.300801
0.296662
0.86291
0.338453
0.294845
1.00089
0.506639
0.977839
0.334944
0.320563
0.311695
0.721316
0.472196
0.420518
0.324671
0.310249
0.305699
0.319711
0.305004
0.302596
0.304128
0.322322
0.320407
0.317805
0.466856
0.315813
0.300518
0.31854
0.307714
0.302352
0.32317
0.296635
0.320116
0.303833
0.304283
0.304585
0.299801
0.750911
0.841747
0.307923
0.831285
0.304005
0.31473
0.311664
0.311895
0.335278
0.303656
0.949452
1.13094
1.01644
0.349794
0.34002
0.584509
0.657268
0.293629
0.383257
0.310338
0.318988
0.94043
0.508952
0.355738
0.332528
0.330275
0.786294
0.565156
0.502876
0.795723
0.390689
0.521221
0.40892
0.363066
0.833653
0.656672
0.345976
0.677743
0.765146
0.634891
0.544407
0.594457
0.31005
0.864226
0.44193
0.336495
0.723877
0.486315
0.620959
0.83816
0.683599
0.793267
0.742377
0.767047
0.541458
0.305343
0.846539
0.419238
0.579283
0.468616
0.339565
0.321884
1.03783
0.923439
0.669742
0.441589
0.711347
0.403398
0.729536
0.730774
0.474012
0.911492
0.931476
0.640258
0.506137
0.444748
0.329074
0.350488
0.326422
0.300745
0.796259
0.745453
0.816745
0.824468
0.745195
0.730289
0.833405
0.770856
0.367509
0.321691
0.328683
0.331803
0.314475
0.384481
0.329385
0.671107
0.656713
0.855019
0.438031
0.300981
0.900743
1.22602
1.06797
0.799812
0.561573
0.358259
0.864452
1.38531
0.85981
0.29714
0.603915
0.302117
0.714831
0.582445
0.818373
0.614091
0.402566
0.490496
0.507449
0.826596
0.871776
0.770629
0.88545
0.820524
0.887846
1.03106
0.90537
0.319664
0.305039
0.311361
0.346418
0.343422
0.29715
0.296115
0.303959
0.371043
0.317178
0.318008
0.308434
0.318857
0.47233
0.298857
0.29545
0.295516
0.289415
0.33234
0.314089
0.434994
0.364243
0.379987
0.34495
0.441903
0.414555
0.492125
0.355692
0.327135
0.323821
0.789626
0.568818
0.667178
0.301988
0.354489
0.33103
0.293469
0.375162
0.381081
0.302789
0.309909
0.417288
0.750213
0.312846
0.541397
0.365211
0.396996
0.436194
0.372902
1.0082
0.371131
0.385927
0.39956
0.348801
0.350828
0.311485
0.334804
0.729189
0.4971
0.321116
0.352171
0.396913
0.322125
0.831715
0.548013
0.324712
0.550001
0.502203
0.508503
0.865137
0.704445
0.476152
0.637626
0.564504
0.89979
0.3843
0.351758
0.424439
0.343537
0.492241
0.329282
0.38294
0.306006
0.29686
0.297985
0.300848
0.41616
0.419981
0.321559
0.314186
0.290255
0.451369
0.388028
0.450054
0.31565
0.327757
0.459194
0.305701
0.876993
0.507221
0.498812
0.96391
0.974498
0.840541
0.58542
0.307005
0.378869
0.311169
0.324582
0.315912
0.343788
0.860485
0.312177
0.575473
0.955031
0.591268
0.688876
0.411303
0.319727
0.301219
0.338614
0.2859
0.310601
0.365649
0.334802
0.356626
0.334677
0.374463
0.311243
0.432449
0.673797
1.04032
0.377047
0.297436
0.300415
0.302786
0.307843
0.325255
0.364359
0.403355
0.816433
0.328585
0.346226
0.511535
0.406132
0.308478
0.356504
0.303065
0.761401
0.528411
0.379408
0.365143
0.305849
0.333303
0.752197
0.340202
0.455015
0.731904
0.366218
0.569215
0.592171
0.37171
0.568862
0.290006
0.289325
0.680459
0.364912
0.288317
0.289186
0.342819
0.371064
0.379906
0.291371
0.352391
0.307464
0.641716
0.618607
0.724341
0.517575
0.508618
0.405712
0.869726
0.295307
0.285474
0.297615
0.297175
0.291359
0.30387
0.305082
0.359141
0.307117
0.361891
0.704464
0.415781
0.546625
0.424162
0.574582
0.316452
0.362481
0.495098
0.86118
0.561398
0.305003
0.293017
0.917066
0.812497
0.599823
0.442732
0.420148
0.71895
0.447898
0.586425
0.517229
0.415149
0.400913
0.56171
0.341663
0.468919
0.292451
0.848177
0.490257
0.441583
0.696322
0.847305
0.389927
0.379418
0.430072
0.844032
0.318668
0.321773
0.831878
0.83235
0.49573
0.357909
0.304572
0.323435
0.449643
0.311107
0.366228
0.305095
0.304361
0.656366
0.869765
0.324669
0.414748
0.476686
0.438949
0.920778
0.328225
0.964679
0.995742
0.306916
0.372127
0.319455
0.298911
0.83244
0.361322
0.811778
0.320559
0.364513
0.755052
0.31308
0.532866
0.814685
0.383862
0.408178
0.385358
0.442406
0.315709
0.297267
0.325433
0.35812
0.30631
0.475706
0.3163
0.305694
0.591262
0.638951
0.917772
0.835947
0.480929
0.745544
0.304217
0.308685
0.38547
0.397553
0.362618
0.332123
0.394367
0.310087
0.290816
0.302745
0.380874
0.428465
0.341472
0.30891
0.321563
0.325872
0.435429
0.335311
0.666749
0.345904
0.298408
0.297238
0.301845
0.318426
0.312783
0.54024
0.584586
0.548013
0.583733
0.624486
0.736786
0.38896
0.363384
0.353475
0.33716
0.834795
0.354567
0.345823
0.423261
0.323188
0.85945
0.558135
0.381198
0.409969
0.427733
0.869642
0.344456
0.318725
0.409759
0.380455
0.789189
0.370486
0.385591
0.71791
0.331315
0.5115
0.328527
0.553288
0.532382
0.48776
0.289527
0.741368
0.39758
0.697418
0.349831
0.688381
0.771103
0.52765
0.339306
0.363437
0.437582
0.483281
0.650514
0.825645
0.643798
0.296534
0.522432
0.977388
0.479923
0.859073
0.779426
0.671922
0.62473
0.355823
0.313612
0.323942
0.325293
0.48056
1.14021
0.425764
0.595078
1.08098
0.461201
0.438378
0.464218
0.51303
0.626522
0.29525
0.324823
0.409191
0.322771
0.331716
0.330028
0.365096
0.324034
0.313831
0.576588
0.314874
0.340066
0.333177
0.344347
1.06293
0.574971
0.649001
0.670071
0.614846
0.620321
0.584064
0.318483
0.29873
0.310503
0.63999
0.301099
0.304176
0.552885
0.812652
0.590669
0.998112
0.308697
0.920365
0.798625
1.14842
0.860041
0.420827
0.954067
0.769692
0.762795
0.761907
0.894324
0.844849
0.505952
0.791881
0.397185
0.682625
0.31744
0.997002
0.730081
0.673882
0.589465
0.781185
0.886427
0.485466
0.621298
0.5385
0.711895
0.737003
0.702182
1.13835
0.473025
0.594761
0.708648
0.809618
0.860621
0.376637
0.319435
0.53955
0.423153
0.531949
0.642094
0.45813
0.62934
0.591438
0.666168
0.719312
0.598659
0.817732
0.310013
1.07343
0.370757
1.31337
1.32088
0.455162
0.721413
0.419342
1.02998
0.674465
0.510772
0.40523
0.345461
0.329729
0.353176
0.401285
0.683553
0.617725
0.892981
0.382043
0.692878
0.941891
1.19316
0.729506
0.320154
1.10567
1.42118
0.796245
0.731239
0.298397
0.71649
0.835001
0.755842
0.334786
0.309213
0.638822
0.355927
0.403952
0.704465
0.785282
0.370668
0.294569
0.316716
0.317448
0.346493
0.41513
0.355553
0.364767
0.301836
0.337431
0.342825
0.633673
0.901241
0.414938
0.52629
0.573074
0.402027
0.359441
0.32301
0.384726
0.375222
0.386554
0.417462
0.423687
0.390165
0.365292
0.401475
0.3029
0.295605
0.601179
0.336055
0.305976
0.396371
0.857249
0.340451
0.390316
0.342549
0.367609
0.888217
0.792871
0.503072
0.749554
0.300664
0.304133
0.55711
0.73838
0.726089
0.816365
0.821274
0.682887
0.661824
0.739054
0.645101
0.36043
0.668322
0.662897
0.706172
0.384601
0.834486
0.294589
0.289217
0.322326
0.286708
0.287445
0.493084
0.484514
0.389052
0.383352
0.294116
0.485139
0.598341
0.797285
0.702951
0.753077
0.543145
0.620097
0.784193
0.758525
0.534618
0.460823
1.09733
0.326387
0.534526
0.701816
0.320331
0.308371
0.308315
0.464497
0.421452
0.36383
0.686559
0.400623
0.319675
0.775121
0.410463
0.61686
0.318248
0.348458
0.356778
0.374771
0.320054
0.502085
1.11247
0.319704
0.370642
0.320226
0.328139
0.338366
0.317441
0.311099
0.297571
0.42293
0.333516
0.343519
0.339189
0.31445
0.29758
0.360836
0.322359
0.952083
0.432651
0.368883
0.59912
0.385784
0.341332
0.39693
0.324755
0.354349
0.301465
0.296996
0.355462
0.310004
0.303535
0.309053
0.296701
0.301696
0.298438
0.608194
0.681742
0.375241
0.338474
0.878844
0.35104
0.425943
0.442587
0.591731
0.596851
0.568158
0.628983
0.895895
0.963554
0.786741
1.04627
0.951555
0.475935
0.336567
0.295421
0.336618
0.677065
0.427682
0.672591
0.330324
0.292272
0.39623
0.453889
0.294043
0.320523
1.1436
0.307955
0.412671
0.726011
0.318181
0.401755
0.317477
0.357046
0.3059
0.477636
0.899912
0.33376
0.495329
0.415836
0.359376
0.292312
0.308956
0.298795
0.442434
0.398941
0.317098
0.305154
0.374259
0.308016
0.390901
0.342413
0.349402
0.519145
0.383057
0.45944
0.348063
0.340188
0.725142
0.610053
0.557912
0.556828
0.763482
0.515939
0.303932
0.389488
0.32281
0.920443
0.305377
0.33315
0.374513
0.333796
0.473308
0.745764
0.389507
0.361988
0.459521
0.318459
0.368392
0.877636
0.289227
0.302036
0.32805
0.348307
0.706065
0.39069
0.995223
0.548391
0.333714
0.301598
0.327894
0.390112
0.46549
0.610304
0.691075
0.791029
0.409567
0.327886
0.485525
0.972822
0.504792
0.491436
0.901246
0.55409
1.10027
1.00768
0.425273
1.08826
0.951043
0.812029
0.987736
0.299997
0.472145
0.372632
0.297686
0.316161
0.319202
0.563923
0.311966
0.755252
0.360519
0.746423
0.625578
0.314118
0.33098
0.352481
0.302133
0.36031
0.415784
0.63758
0.720632
0.563732
0.831038
1.01663
0.481674
0.594622
0.360933
0.334232
0.602674
0.844783
0.762479
0.300521
0.298511
0.293636
0.296443
0.323046
0.301379
0.301175
0.358514
0.312452
0.376858
0.44141
0.376521
0.341416
0.349379
0.383538
0.545369
0.592812
0.906004
0.891112
0.385657
0.582464
0.397533
0.731701
0.469931
0.927591
0.309395
0.316436
0.864608
0.385022
0.356951
0.380425
0.406405
0.410824
0.950289
1.24459
0.362894
0.75832
0.526561
0.659708
0.727706
0.400298
0.450228
0.493835
0.290324
0.387926
0.328174
0.297995
0.858889
0.381943
0.309024
0.343301
0.343915
0.557043
0.844892
0.818472
0.545184
0.862633
0.811003
0.876651
0.817062
0.327524
0.327883
0.685539
0.339254
0.775893
0.441572
0.738494
0.345841
0.370637
0.296906
0.456305
0.309361
0.415452
0.301542
0.311909
0.304631
0.324213
0.363976
0.553489
0.599545
0.489941
0.953785
0.33589
0.978398
0.653617
0.794419
0.468692
0.298109
0.314654
0.357179
0.307999
0.296451
0.295599
0.346326
0.302797
0.314186
0.289466
0.348812
0.744553
0.457622
0.354694
0.692759
0.608225
0.506694
0.728463
0.399229
0.88738
0.545148
0.427705
0.336844
0.571817
0.753533
0.7362
0.516188
0.889277
0.311238
0.644126
0.307451
0.299714
0.373258
0.309258
0.308712
0.331285
0.319927
0.323902
0.78015
0.314751
0.555732
0.514252
0.73975
0.703102
0.405041
0.376129
0.746859
0.332742
0.447297
0.530843
0.507169
0.28538
0.802575
0.362091
0.372541
0.362946
0.311001
0.299913
0.310841
0.306692
0.308903
0.525905
0.436869
0.333908
0.312033
0.30828
0.344212
0.330786
0.329366
0.466509
0.436861
1.06049
0.800213
0.92324
0.98979
0.402396
0.418987
0.458297
0.966804
0.421511
0.763507
0.743914
0.50132
0.29719
0.480302
0.630708
0.733364
0.304896
0.311047
0.324003
0.324697
0.308313
0.342114
0.468062
0.403539
0.494499
0.388755
0.368769
0.376328
0.390446
0.414571
0.4348
0.787388
0.616727
0.570929
0.733427
0.590675
0.558185
0.591915
0.50542
0.505315
0.330651
0.361199
0.329535
0.365717
0.352172
0.48687
0.375913
0.363537
0.318151
0.363213
0.298796
0.299081
0.297246
0.296959
0.390871
0.296022
0.633512
0.307323
0.309274
0.31281
0.735707
1.04372
0.740285
0.854927
0.33566
0.410566
0.29703
0.319826
0.315501
0.311285
0.374483
0.919318
0.744138
0.535611
0.410709
0.693725
0.316366
0.857073
0.370596
0.83357
0.46733
0.639662
0.713412
0.916706
0.894528
0.816856
0.831449
0.652475
0.417551
0.404896
0.818581
0.375863
0.382512
0.304904
0.717259
0.334706
0.326783
0.312337
0.334124
0.296932
0.624589
0.852767
0.458782
0.39362
0.345047
0.310423
0.311947
0.512186
0.502225
0.405045
0.569852
0.296215
0.304957
0.348113
0.40258
0.404159
0.919214
0.497168
0.824262
0.72541
0.89426
0.811583
0.951182
0.665012
0.910117
0.832061
0.808084
0.923983
0.962855
0.700999
0.895597
0.571539
0.612714
0.358177
0.682253
0.347057
0.32908
0.327272
0.404597
0.333682
0.317041
0.310315
0.495089
0.616786
0.48536
0.59004
0.508828
0.685197
0.416305
0.782329
0.827066
0.336065
0.832154
0.427324
0.727554
0.720462
0.309065
0.315123
0.335424
0.329333
0.312717
0.330085
0.307649
0.381105
0.472359
0.927137
0.797417
0.475297
0.626134
0.31613
0.357905
0.334164
1.00236
0.605114
0.314333
0.302892
0.330918
0.784743
0.30422
0.349745
0.351216
0.781241
0.642304
0.62434
0.356735
0.346997
0.321838
0.428302
0.423175
0.698794
0.415859
0.638342
0.759563
0.723815
0.391632
0.410903
0.523781
0.396287
0.510399
0.299535
0.303228
0.334429
0.429737
0.379099
0.362075
0.360511
0.540625
0.548564
0.675469
0.749882
0.628404
0.613615
0.521069
0.435051
0.444441
0.411246
0.36004
0.386819
0.345944
0.379433
0.375507
0.361115
0.413846
0.516965
0.335786
0.303344
0.308038
0.305445
0.300933
0.342527
0.336299
0.332643
0.306379
0.309342
0.407742
0.419229
0.515385
0.357423
0.378208
0.313745
0.324226
0.319498
0.342695
0.359835
0.2954
0.311206
0.400556
0.37579
0.599858
0.342234
0.639699
0.353262
0.323353
0.330734
0.326795
0.386244
0.94186
0.304401
0.991361
0.350183
0.370255
0.39864
0.289355
0.396622
0.463048
0.300723
0.341975
0.415651
0.378698
0.374164
0.408557
0.341933
0.351014
0.476289
0.750056
0.391715
0.375336
0.394791
0.369182
0.516624
0.592814
0.588445
0.446435
0.495719
0.397247
0.511142
0.647876
0.333665
0.32048
0.328243
0.29571
0.312472
0.651878
0.299179
0.31078
0.36072
0.932435
0.890763
0.653928
0.868377
0.454234
0.774661
0.909035
0.50004
0.79873
0.328292
0.302366
0.30858
0.477582
0.536658
0.314458
0.326969
0.32618
0.369998
0.306582
0.595983
0.323532
0.31527
0.30517
0.413718
0.754804
0.363581
0.355535
0.395727
0.348028
0.328275
0.424708
0.343955
0.326997
0.309594
0.309987
0.299072
0.307259
0.297222
0.296386
0.375347
0.299862
0.30976
0.294853
0.305507
0.4129
0.339991
0.301204
0.29354
0.292442
0.331912
0.301172
0.357348
0.608482
0.375207
0.38417
0.296461
0.299086
0.350168
0.351368
0.340196
0.31901
0.335293
0.296645
0.498202
0.306231
0.331912
0.597795
0.31765
0.313674
0.295815
0.314929
0.318052
0.303724
0.35226
0.452006
0.331513
0.328932
0.303632
0.319488
0.298947
0.298101
0.307219
0.296016
0.326001
0.305839
0.313914
0.326494
0.323155
0.504015
0.3154
0.291702
0.495249
0.31376
0.46769
0.605061
0.314827
0.344996
0.361307
0.298487
0.317033
0.456763
0.325813
0.319054
0.323872
0.349955
0.455442
0.326073
0.4349
0.307654
0.319433
0.392202
0.53903
0.414626
0.578862
0.358573
0.349409
0.378067
0.421622
0.377818
0.319726
0.308529
0.318102
0.32686
0.336895
0.52562
0.371954
0.398543
0.299217
0.384031
0.45629
0.307345
0.339317
0.289658
0.339394
0.34422
0.387646
0.773657
0.481308
0.931671
0.667543
0.339852
0.460196
0.40358
0.790964
0.312553
0.305483
0.309645
0.337216
0.288944
0.356425
0.311235
0.314071
0.30983
0.351204
0.794285
0.708261
0.31186
0.310304
0.334289
0.352427
0.789083
0.547436
0.539312
0.335764
0.492114
0.424186
0.308106
0.308536
0.334443
0.767673
0.356925
0.400195
0.331952
0.399773
0.761186
0.76844
0.339192
0.381005
0.880855
0.320123
0.317699
0.433995
0.314296
0.429265
0.372894
0.348828
0.341704
0.317761
0.316854
0.303805
0.621921
0.384061
0.307835
0.305025
0.343295
0.3082
0.312064
0.304794
0.307733
0.320672
0.555807
0.344789
0.331965
0.364477
0.475076
0.349144
0.348044
0.339835
0.481945
0.399788
0.434276
0.38516
0.833354
0.579425
0.385233
0.694126
0.500193
0.778142
0.301516
0.294891
0.322198
0.29812
0.399074
0.47443
0.302132
0.41929
0.902169
0.544578
0.298647
0.307095
0.313129
0.303987
0.290889
0.302167
0.429233
0.481623
0.369308
0.872632
0.393752
0.447983
0.380712
0.334983
0.307221
0.376832
0.446869
0.355597
0.361938
0.487423
0.460326
0.376328
0.3259
0.32421
0.316602
0.363363
0.401988
0.47671
0.655945
0.348385
0.310887
0.305482
0.335891
0.347472
0.51959
0.29792
0.369773
0.792341
0.463971
0.518733
0.617609
0.436416
0.427387
0.352299
0.357108
0.32145
0.294377
0.30185
0.336069
0.304492
0.30759
0.331262
0.994734
1.03884
0.387971
0.339433
0.36981
0.317302
0.773911
0.825425
0.458045
0.819516
0.531723
0.403554
0.511635
0.507858
0.441343
0.926689
0.442959
0.412473
0.779102
0.781824
0.304699
0.395887
0.291249
0.300493
0.418614
0.307002
0.303694
0.419228
0.373059
0.895025
0.69022
0.362542
0.738185
0.557291
0.410401
0.437572
0.699903
0.767298
0.426792
0.469959
0.489629
0.360748
0.303322
0.296192
0.298182
0.440767
0.326735
0.320075
0.949991
0.664807
0.475429
0.30911
0.392831
0.715287
0.322325
0.364534
0.360621
0.294338
0.362882
0.590409
0.505656
0.502054
0.363014
0.327423
0.309078
0.289261
0.924409
0.412681
0.361529
0.320487
0.404429
0.371589
0.323284
0.548299
0.389378
0.457435
0.304165
0.324105
0.547342
0.327284
0.420586
0.350242
0.379112
0.377449
0.678209
0.627122
0.469593
0.400833
0.441807
0.846828
0.748371
0.457485
0.383106
0.617352
0.757557
0.394489
0.841372
0.52865
0.64799
0.330432
0.52519
0.440001
0.348395
0.424894
0.356888
0.357828
0.53407
0.295836
0.347595
0.389565
0.485761
0.37393
0.363483
0.355155
0.320836
0.534572
0.657819
0.902562
0.401685
0.333859
0.635464
0.540543
0.394003
0.686407
0.298545
0.317429
0.32306
0.570978
0.511422
0.311542
0.298291
0.434258
0.748694
0.605511
0.318246
0.333722
0.388504
0.570404
0.340691
0.49112
0.853907
1.29116
0.869868
0.404141
0.31522
0.367209
0.456067
0.878123
0.471124
0.462273
0.440625
0.506522
0.289946
0.30133
0.301603
0.356043
0.382176
0.547785
0.39379
0.369703
0.399923
0.30919
0.535176
0.731165
0.837202
0.403199
0.504265
0.649654
0.479309
0.712011
0.575323
0.471047
0.568537
0.372399
0.542253
0.569425
0.529476
0.402537
0.711567
0.344104
0.396284
0.375236
0.312307
0.853414
0.361892
0.836773
0.300654
0.360614
0.378989
0.456946
0.378881
0.822384
0.622487
0.392919
0.342226
0.326423
0.477932
0.723303
0.981358
0.973589
0.295852
0.759269
0.332088
0.38461
0.637101
0.396012
0.719483
1.12848
0.297476
0.813282
0.369998
0.375346
0.33965
0.325859
0.326862
0.30584
0.714627
0.339245
0.617404
0.498214
0.693043
0.331642
0.313672
0.340414
0.342746
0.339412
0.852274
0.589345
0.296913
0.689911
0.30154
0.379533
0.446012
0.690732
0.68658
0.379251
0.492721
0.562821
0.524421
0.511703
0.399919
0.411738
0.586121
0.817413
0.319912
0.688593
0.90734
0.391407
0.423213
0.41222
0.384275
0.768158
0.31173
0.301189
0.760917
0.326658
0.740536
0.317595
0.314056
0.317695
0.331804
0.321373
0.319129
0.306578
0.306584
0.310848
0.30282
0.299352
0.31675
0.301048
0.580485
0.902817
0.311184
0.680672
0.336954
0.31752
0.309867
0.300196
0.570069
0.437502
0.550499
0.552775
0.393729
0.924216
0.359107
0.297728
0.311591
0.288528
0.321375
0.286444
0.312969
0.331385
0.335428
0.407038
0.904085
0.334546
0.324464
0.814175
0.777667
0.550151
0.715617
0.947086
0.697091
0.89631
0.649799
0.682712
0.486624
0.633531
0.584193
0.50834
0.857596
0.852351
1.05481
0.630101
0.400838
0.849102
0.829895
0.815053
0.406742
0.756244
0.866408
0.490631
0.604942
0.511101
0.364857
0.540535
0.514978
0.948644
0.925544
1.06905
0.459522
0.399733
1.06913
0.71524
0.962316
0.33791
0.336903
0.770732
0.630298
0.391189
0.312816
0.311734
0.841428
1.18281
0.915371
0.309176
0.319817
0.338041
0.386547
0.327438
0.430573
0.340457
0.682167
0.800024
0.739497
0.714104
0.858275
0.682238
0.751042
0.464025
0.40984
0.356094
0.601725
0.619431
0.414643
0.335515
0.341643
0.503958
0.490589
0.778955
0.299938
0.386102
0.469918
0.4279
0.375802
0.46904
0.382216
0.541909
0.406098
0.797773
0.7745
0.380123
0.297037
0.303422
1.00762
0.973309
1.25196
0.300519
1.09264
0.915567
0.313829
0.915634
0.891716
1.05993
0.295139
0.292771
0.288788
0.293446
0.28698
0.326082
0.333654
0.312617
0.304897
0.952543
0.775589
0.817242
0.727491
0.747644
0.867507
0.296359
0.298004
0.290361
0.31078
0.836749
0.302505
0.345261
0.362399
0.338761
0.334449
0.383234
0.367003
0.358852
0.339621
0.315473
0.644952
0.308339
0.298081
0.341923
0.311318
0.294749
0.306556
0.310513
0.31137
0.654111
0.457846
0.435659
0.361758
0.321604
0.323869
0.33159
0.304195
0.796961
0.328461
0.305327
0.304561
0.457981
0.418058
0.990093
0.936682
0.745328
0.84995
0.323977
0.425776
0.31799
0.337798
0.307945
0.297072
0.29071
0.300288
0.398183
0.579481
0.366876
0.553162
0.355255
0.302805
0.297373
0.311161
0.300531
0.300146
0.463759
0.302613
0.296999
0.34229
0.311548
0.507859
0.332261
0.304338
0.316632
0.326554
0.341041
0.361801
0.83397
0.358712
0.541426
0.40325
0.335617
0.469553
0.572421
0.428928
0.531579
0.789964
0.460304
0.435363
0.547863
0.683561
0.460367
0.394131
0.648304
0.891244
0.418559
0.487288
0.99499
0.418888
0.454141
0.400866
0.494457
0.916787
0.937466
0.695896
0.991995
0.762144
0.492774
0.472969
0.306631
0.335454
0.427507
0.29971
0.41728
0.315374
0.353349
0.431627
0.318728
0.328201
0.331567
0.331002
0.511472
0.46055
0.506491
0.590329
0.318445
0.311476
0.315805
0.302546