/*--------------------------------*- C++ -*----------------------------------*\
| =========                 |                                                 |
| \\      /  F ield         | OpenFOAM: The Open Source CFD Toolbox           |
|  \\    /   O peration     | Version:  2506                                  |
|   \\  /    A nd           | Website:  www.openfoam.com                      |
|    \\/     M anipulation  |                                                 |
\*---------------------------------------------------------------------------*/
FoamFile
{
    version     2.0;
    format      ascii;
    arch        "LSB;label=32;scalar=64";
    class       volScalarField;
    location    "0.075283";
    object      p;
}
// * * * * * * * * * * * * * * * * * * * * * * * * * * * * * * * * * * * * * //

dimensions      [0 2 -2 0 0 0 0];

internalField   nonuniform List<scalar> 
3926
(
0.87222
19.0255
19.1373
43.6526
52.7728
34.7894
-10.6552
-127.506
-53.6029
-95.4981
-50.23
9.86515
18.5787
6.08418
22.2686
17.2194
1.46959
18.3411
27.348
14.8574
14.3126
34.2416
41.0769
0.922734
24.4873
43.4056
39.7301
44.8369
41.8057
0.240839
-17.5567
22.7917
-18.3687
-19.7806
-21.6869
-19.1963
-60.352
21.0787
27.7894
9.47439
30.6201
-113.866
-7.10828
13.7271
23.6966
-71.629
-5.70617
-29.2611
42.824
28.7275
25.5055
-90.1416
60.1509
-61.6564
28.328
-3.41792
-68.0638
56.3675
18.3315
52.0725
16.6678
-49.5112
-89.9923
40.1675
-55.3124
-40.0284
-49.3951
-45.9712
-45.8667
-37.7228
-18.955
21.441
-40.6197
14.8833
-17.7403
58.5096
-13.7261
41.3032
41.6785
22.849
53.1736
27.7149
-36.485
-84.0184
14.4382
11.6299
16.7776
14.0624
-57.9571
26.2322
21.8931
30.2464
17.7817
-9.04196
7.68875
-95.6422
-1.65041
-21.9399
55.7912
-24.294
-36.8613
36.9221
-7.13434
32.5729
-7.60389
9.92873
25.1308
17.3321
21.2678
21.8108
21.7755
26.66
33.9933
28.9815
19.6061
58.6143
45.1951
17.6917
5.24604
33.1723
10.8138
12.3247
22.2655
20.8183
20.1238
21.1983
-46.3872
32.3975
-16.1639
15.3557
14.4033
5.59389
-3.27495
-10.0579
43.597
35.9137
31.7756
-1.98202
23.6488
48.0986
13.8628
24.2591
40.9299
38.8043
30.3235
46.293
44.1917
26.9754
30.6988
32.3052
41.8109
38.1701
36.8699
46.098
43.0857
36.8265
30.2781
42.2344
47.7323
47.9966
-21.3941
22.3497
31.3261
58.702
41.7974
35.5607
29.0588
20.8563
0.943663
40.9136
-73.3892
-18.8097
18.0187
25.2647
3.63394
-26.3887
28.2868
51.3307
32.5364
15.0568
57.4899
7.19217
58.4452
11.7475
15.9953
5.18646
-14.0825
32.4074
33.9359
32.3711
40.3154
22.9205
41.6999
13.2402
22.0369
20.7278
1.40105
33.3925
16.9471
2.33596
41.3553
-31.0628
56.6949
10.4034
18.1174
29.5913
26.5892
58.0102
0.713885
15.5921
17.7857
21.3325
42.6377
-19.2327
20.8829
53.4922
28.9779
37.2501
29.8384
32.9666
1.21222
-27.4546
-7.60788
-47.0831
-22.2232
56.4537
50.2529
9.20948
21.6049
-18.3181
-3.91469
54.9058
6.8547
26.1849
-12.1255
45.8685
-23.613
47.7092
-66.8504
-4.25171
-53.821
-1.53494
-11.4546
57.3098
16.1232
30.8428
41.4185
4.01222
22.4423
-140.102
18.9741
45.8227
-81.463
-15.0904
-9.52727
61.2627
-64.1892
-13.1642
-1.15838
-33.212
3.73997
39.8981
31.2325
57.004
50.547
-22.9017
18.0153
40.6884
43.3266
-49.6772
43.6661
-72.1522
7.68205
-27.6506
9.61752
14.4935
17.791
-0.00392018
26.4254
16.6225
28.7676
-57.6442
3.16936
34.5266
-35.6049
-40.8021
-32.5965
-49.1421
-55.3614
-8.56498
25.9196
19.5609
28.786
-47.3487
17.7496
44.5179
8.61658
5.1071
9.40919
59.3462
-86.6968
32.2215
33.8852
27.393
30.081
-45.3404
-85.823
-26.6012
20.6268
-9.04204
-70.2537
11.3319
48.7113
17.6265
-26.6996
-23.1115
35.0112
12.5165
35.4676
-27.9042
-43.248
14.8859
-5.03413
53.9696
41.6679
22.5227
-51.5976
54.0763
-70.7531
-4.23435
50.546
27.8299
14.007
20.0571
18.3204
18.7002
30.4137
60.4665
59.7081
60.9887
58.3214
61.5588
-28.7811
17.9734
13.7544
10.5448
60.791
56.1988
53.0283
61.3891
49.6166
59.9485
59.3719
60.5324
-46.4189
-51.1602
-45.1224
-53.6806
-21.626
20.6687
13.3834
16.7546
-34.0357
-30.9673
-56.8119
8.53883
-20.4846
22.518
20.2105
-4.77086
-5.50638
16.8365
32.4333
27.2054
-46.2802
14.3803
49.4396
31.4272
53.3144
42.8639
19.3247
-30.7707
41.0082
50.8362
24.1829
21.9708
-12.8819
-36.5051
-29.7748
-25.6584
-71.1961
21.3956
-78.7366
-21.329
13.8571
-24.5145
20.3645
18.327
42.1672
14.1409
6.67001
-15.4539
27.2123
11.755
35.1238
40.8615
21.3552
18.6597
-27.8832
13.1547
27.5792
-88.2987
50.6227
45.814
30.7173
38.6646
19.3217
-49.0252
30.977
15.911
25.4403
11.01
2.30578
22.3246
41.4122
19.6659
36.1824
20.8183
14.04
13.962
42.8815
14.2328
-33.9643
-15.5646
21.1601
23.1165
44.9752
15.9697
-45.8651
21.5809
23.7436
-93.3919
53.8702
4.74703
0.21343
-73.786
43.8103
-48.0593
20.2309
16.5836
-94.0507
-8.35498
13.5436
25.985
6.27978
-38.7294
-34.8222
-26.2088
-24.7668
-18.6508
12.3558
45.6881
13.7567
23.5436
11.9152
27.8215
0.13304
-102.352
-12.0174
-6.04745
-2.50738
-0.0567054
13.2209
12.1922
-10.8547
-12.3744
-9.69035
2.409
13.9436
25.6045
30.5665
-29.548
21.76
35.8433
14.4257
-18.4777
-72.3203
40.4821
-2.2201
-86.2331
37.6269
28.4196
-73.7077
-60.7892
-28.3888
-35.2059
-37.1205
-26.9053
-17.8878
-40.0831
-15.0642
-53.397
14.4883
19.0902
17.1611
-54.6094
26.2974
-23.5876
20.4174
-42.1439
48.9693
-89.3156
-76.5307
43.914
41.0063
37.7151
13.5281
41.3312
-203.067
-48.9687
-79.6233
27.1833
59.8892
22.1162
32.6918
44.6941
30.9572
59.8267
56.4152
25.4141
19.4342
24.2249
15.3239
16.7717
-47.6456
-56.9602
-82.89
-115.197
-11.4237
-9.98656
-12.0681
-52.0177
-81.4926
-88.8914
-84.3991
-62.2971
-47.4708
-19.6352
-21.0035
-18.714
-20.3657
-27.9711
-31.3057
20.1521
21.9934
58.7089
9.17857
24.9876
31.8284
33.1258
-23.5788
47.006
7.69403
10.3051
-5.69701
-6.03637
-68.5835
-53.6779
-41.0167
-80.8813
27.7966
19.8019
14.2365
11.0149
13.098
-47.7228
-11.4343
-3.58226
-70.9866
8.63306
52.8331
-11.5291
16.121
25.0547
38.425
54.5893
20.9523
21.3933
20.3321
19.0178
50.0308
-19.037
-67.9702
-58.1777
20.3486
23.4894
-15.0692
5.51094
-7.95487
49.9307
23.0014
31.0359
31.6533
30.3124
18.3084
15.6922
34.2323
26.8181
35.8076
36.584
44.9141
31.7258
51.3501
33.7189
25.1133
27.223
19.7104
14.2417
19.8454
16.5644
14.9166
6.33113
2.9083
-10.2252
-61.9745
-55.0457
-42.7336
16.2231
8.47935
8.6477
22.412
20.9574
17.8221
10.2102
43.0106
13.9603
24.189
-36.5854
-33.5972
-51.3047
-26.0927
13.3109
-13.5082
41.105
-43.215
32.087
21.4449
37.2186
25.0026
33.8205
27.0634
18.8994
29.5736
42.1457
17.6189
49.0317
-10.5225
-10.054
-13.5275
51.1547
53.3848
8.59751
11.8186
8.36339
48.7396
8.42034
12.7633
-29.3833
19.2644
7.43936
39.9575
20.4925
20
42.2244
-3.07704
-16.7607
3.98084
44.8752
39.6254
39.6625
33.1829
35.1627
45.283
55.9906
52.3485
24.3582
27.6028
23.7865
17.1004
16.7823
40.6329
29.9994
15.5781
43.3024
35.7356
17.7327
18.9601
19.7475
-16.6842
0.239426
4.15771
0.131794
1.84635
21.5937
10.9398
20.0636
4.09932
-4.0338
-7.4487
-6.21402
14.1869
13.6511
15.2706
14.3559
18.4297
31.8442
28.1856
49.2896
53.0952
49.2612
34.3838
35.3376
29.0921
33.9
26.8677
24.0791
18.156
17.8686
16.9957
38.1678
15.5402
-6.04249
17.1481
29.3572
12.8974
33.2938
-2.53826
12.7876
18.5603
15.9794
17.5892
15.6701
56.9879
13.7186
21.6494
21.2376
11.0503
13.7216
12.6222
16.0036
19.6346
18.6033
19.003
17.9224
-15.5831
-16.2077
-67.367
45.3609
-58.1461
-8.2813
-66.2627
-9.08601
-4.06114
24.6663
43.681
22.7504
32.39
-11.8925
30.6888
-70.5564
20.8852
-61.3834
-63.3773
-3.86704
24.9126
-43.6127
58.1297
21.0391
24.0686
43.9198
12.4422
-43.0064
34.0018
40.7832
17.9319
19.796
24.4103
16.1844
-0.260507
11.8734
7.27405
14.8005
16.7256
-21.1923
-24.1583
-4.21033
-23.3979
19.4465
29.1463
33.0935
-2.91174
-11.5364
-44.7098
2.91878
14.7477
-9.65423
-74.7291
-25.0253
-0.0784823
36.8761
11.9113
-46.3022
8.55423
13.699
6.25584
13.4996
19.0945
28.8411
14.1742
29.8227
45.5023
54.2395
-66.3028
13.1214
32.6604
23.7985
-16.9029
-119.497
-41.004
-64.0718
19.3623
16.9465
-47.7588
62.2206
58.0344
22.7843
18.227
-3.50468
17.7224
-11.6573
26.3593
14.859
-60.6099
16.8347
10.5077
13.3293
-33.4869
3.10203
-20.9881
-32.6706
0.983
-100.95
-24.8625
30.1001
-23.2698
32.1486
27.9384
55.9135
50.57
22.2952
27.0144
22.7599
15.9305
6.65205
30.9508
39.3004
34.2851
26.5924
-60.3019
33.5931
57.558
46.1308
54.028
-8.47121
26.4813
10.2555
15.4978
28.62
-41.6249
29.0198
52.3493
21.9197
27.5137
-24.7748
-22.2417
32.2041
-57.3324
40.809
9.25463
7.56465
12.5514
16.6585
-5.94994
13.1588
-53.0203
19.3265
4.2468
31.2645
17.8494
-25.3312
41.1721
53.0235
14.4622
44.1263
-38.0158
7.60716
-6.61733
11.8411
-84.3413
-14.9015
11.655
-143.695
17.9178
13.0913
16.1827
22.3141
-78.7275
56.6212
-67.2128
-9.89149
8.80255
25.5178
-14.4765
48.8016
14.0095
23.5537
-11.3333
55.452
40.4352
-21.5222
-16.7312
31.0864
-118.384
-50.2555
-1.16955
-14.3939
-12.2433
15.8586
-66.3932
-183.724
13.8761
19.1021
16.1807
20.4081
26.6567
14.3185
34.7634
24.8893
-35.5338
26.9001
-48.0581
-24.7391
19.0644
26.1314
22.0685
32.4882
32.4242
3.11609
3.75447
22.5092
-34.5026
-37.1164
-55.3313
0.705768
35.3511
45.7408
-4.5122
-56.2796
29.9339
42.0328
-68.7437
-25.4126
33.2749
21.8871
-28.6165
-3.57103
-34.6892
-38.6659
-24.3542
27.5491
-12.8702
28.5885
-17.3109
-23.7762
-16.2585
-4.94736
14.9929
21.8257
7.02547
-17.5173
35.6538
-65.1348
-74.361
33.3904
24.5371
21.8522
-2.31037
4.46432
-28.9977
-13.75
12.1386
12.2928
-15.2616
-40.7524
-7.52948
-20.0457
7.33164
-7.22883
-94.2908
-19.4273
-4.51025
-4.867
-21.7751
-23.2858
-35.9423
-26.5879
-40.0175
29.524
21.6703
-12.3362
-72.3491
-34.1952
41.8835
-192.445
-114.505
-39.2068
-14.4638
14.7317
10.4322
27.1664
23.8467
17.1746
24.3107
17.3601
36.5783
50.0008
23.7924
21.4563
39.1095
22.1269
20.8285
11.8932
32.0848
24.301
5.69256
-67.189
9.36614
-10.5121
24.0478
-74.4492
34.2804
42.0575
-17.5238
61.2979
53.4573
-62.4909
4.57883
32.9503
51.1725
46.8438
5.77253
49.7895
25.1573
-72.2679
16.6471
20.5457
13.3974
15.1684
17.8905
-70.6315
5.67737
15.3755
56.3199
-34.5405
-74.3312
14.064
25.944
21.7163
58.2447
-27.4739
45.6009
16.1087
21.8609
21.7355
24.1314
19.4812
19.0029
19.3804
25.7357
26.289
14.0843
40.6564
12.6908
18.1847
24.8817
21.6802
19.6328
10.4986
17.4187
24.7377
20.345
21.0003
18.215
10.7803
33.8997
57.8412
8.17276
50.5505
9.0172
22.5375
17.5014
13.6509
16.0795
18.2215
-62.8325
-65.5931
-84.5823
-7.87431
24.4453
-41.1335
-45.03
1.53657
38.7281
-8.12507
-17.5119
-48.3743
1.63143
19.8529
-18.1154
8.11228
40.2972
-41.9734
-33.3003
-50.4873
-23.7846
-34.0392
-5.35998
34.6768
52.7971
-35.1968
-4.37869
32.8918
59.1451
58.5737
11.3902
-14.1954
11.078
-75.8086
42.5735
31.7795
57.2686
12.0925
61.0179
59.7492
-37.4542
-46.5849
57.4004
56.3195
44.478
22.4111
-175.159
-28.8563
-42.1948
41.3497
18.0613
27.889
-66.439
-204.133
58.1677
58.7595
48.6847
44.9269
48.7498
50.5961
33.9143
-77.0642
-113.719
51.4998
47.5957
47.9125
29.5496
34.5584
-16.5571
16.1313
52.4058
49.3282
27.8557
17.4456
57.681
54.4429
55.5704
48.4756
-18.037
27.7399
30.8441
29.7951
26.131
19.7531
13.318
-50.5899
-45.2244
-50.069
-30.0883
17.2616
-69.463
-65.762
-70.6149
-59.1117
55.0284
17.6152
-113.78
-87.8261
-154.148
16.2024
-42.5955
20.5851
-47.6084
-42.4166
-41.116
-44.8659
-22.3273
-30.8595
-24.0265
-49.5353
-66.5973
-20.6053
-103.279
-30.6745
-66.8736
-82.7169
-0.3341
-6.75452
-7.24414
-4.13138
-19.0568
-15.5904
16.4537
11.3838
12.1199
7.94978
15.3195
27.2185
13.6595
23.5837
38.9295
16.309
16.8166
15.716
15.22
-12.8956
22.2808
26.9453
10.8871
-8.68013
11.2835
-26.7011
41.7814
-31.4171
-17.5434
-19.8547
-14.0841
-43.7124
32.5661
48.7803
19.6793
30.6404
27.1296
13.3927
33.3909
37.4097
11.9878
22.6582
47.0375
58.1761
22.1495
52.9396
36.6395
36.3125
40.4281
27.651
-58.6356
16.3978
35.4238
33.7951
32.9987
18.7286
12.0514
32.6841
58.2346
28.3583
26.1459
33.5386
21.7204
11.985
-8.03899
30.6601
30.3922
-30.6401
-34.2424
11.9596
-51.4128
58.4402
32.6341
57.7485
48.275
-223.202
-10.4504
16.1174
-18.8343
21.7379
46.715
12.0563
24.8219
19.8508
16.8478
17.9485
20.9295
28.4816
46.5063
23.7278
21.3968
15.2311
42.8466
36.9173
47.0921
25.0798
27.9902
-10.1328
-0.859301
-3.46078
19.2193
-3.86754
-108.915
-74.7342
-43.3964
-42.0399
-0.854944
12.5323
20.8224
23.4606
-5.01722
-20.6291
-46.033
0.613703
-44.8402
-60.5409
-40.1709
-14.6744
17.7132
28.4376
13.2392
22.6413
14.7191
2.32678
13.3419
-4.13082
0.433807
11.9699
13.2063
8.77503
20.6186
-47.4986
-82.358
-17.7478
8.9065
10.2176
19.939
19.6498
26.9894
-5.34937
42.7617
59.4535
4.75842
29.1538
42.1579
26.1005
22.4047
-5.00324
21.0891
43.5602
-7.74166
-2.808
19.2393
19.0289
31.8339
47.5731
31.2331
-29.2989
-1.38855
36.6436
24.2762
17.9682
39.4832
-35.4935
15.5598
14.0128
51.9014
-10.2887
14.6222
14.4733
31.3738
34.3026
37.9156
14.173
-0.15518
22.9241
59.5006
-29.5963
17.641
-37.6318
24.8764
-20.4267
-104.196
16.4342
14.8771
13.4404
12.6998
15.8424
21.2206
18.5001
23.7538
14.8553
26.0017
-53.1007
-16.7123
-38.4821
6.53031
-42.3305
-11.6236
-22.6921
-31.0983
-46.015
-42.0268
-2.16306
12.1486
-86.124
20.8846
-47.0347
42.6514
33.8593
-55.3251
40.6057
44.6752
46.58
47.7906
40.0022
26.8479
33.2651
14.6409
15.3047
60.9136
53.1756
12.7757
31.9257
-79.1716
36.9243
37.0267
46.6125
58.3457
10.2313
10.4622
-70.3381
25.4077
11.6184
-10.1304
17.0591
21.0747
-29.2438
22.3409
-4.69549
12.3628
9.91469
1.88321
-70.9782
-4.84091
22.5258
-28.0778
38.3067
-54.1454
26.8837
-84.6288
-93.6084
21.6726
15.3147
20.8042
7.51582
54.9583
30.2034
53.9371
5.75497
21.6288
-71.1217
3.07252
-38.8006
-40.0963
-4.0612
-29.2995
5.36238
12.1527
11.2009
17.2643
12.7042
35.7442
4.18704
53.774
13.1827
0.363912
49.5255
54.8477
-89.0155
8.4541
-32.3199
-39.3529
15.0855
-0.645877
-25.2897
38.4354
37.272
8.92021
32.9095
21.5744
13.7434
-2.65473
-23.3204
-14.2219
-21.4443
-18.5
23.8009
29.3462
45.0146
34.2652
51.8642
-14.493
15.4748
16.9606
11.6244
8.73474
11.3488
51.9964
51.2051
53.3874
55.3877
53.6283
56.5716
43.394
-6.13341
-3.85597
7.04049
0.117141
19.9868
8.72249
22.6708
27.3337
21.4565
-34.0268
2.53968
-22.1577
-26.2066
-43.3465
24.8652
25.2102
36.0206
32.9279
30.1882
40.9576
44.7434
59.1989
25.9628
35.6467
27.9172
50.8399
55.1481
13.2448
8.60126
57.5704
-14.597
61.0208
30.1583
35.4933
57.4085
45.8789
29.9702
29.5413
27.4376
51.8869
57.9029
21.8314
-56.9386
15.8518
50.3302
-66.4112
-32.8645
61.1381
56.9099
56.1878
61.655
26.507
24.7279
27.7307
27.4616
60.4495
-69.9165
-17.6195
-50.6932
-75.2249
-28.5682
-1.94736
-32.0983
-38.7295
-52.4244
16.9408
11.873
45.7467
24.7832
28.9005
29.6297
34.4332
27.8179
24.4381
-41.5108
-11.196
-9.01697
-3.6454
-8.58102
-68.7767
54.8623
55.1998
54.4833
54.4561
55.3433
52.8393
-13.1162
18.4868
-2.20404
-45.3328
9.85685
8.88619
-35.882
29.0146
-7.5826
-62.9036
2.77688
-105.351
-60.0955
-76.4357
-84.206
42.6042
-110.655
33.148
55.8813
19.957
-121.093
-54.4868
-3.89256
-26.0508
-22.8436
-50.1987
24.6774
-53.6534
-60.9176
54.8998
-45.9968
-70.0147
-65.0547
44.2521
56.6958
-16.4545
54.2236
49.496
50.6629
-68.4362
49.7534
16.3134
-44.2422
-45.4747
-45.3885
35.9586
22.6567
25.2441
45.1905
51.4273
45.7184
43.3489
55.9316
56.2401
58.4591
57.4622
-76.8896
58.7291
23.8734
-56.2415
32.9919
-76.5895
-83.4668
31.9171
51.3699
34.1002
-65.8288
-47.0828
-36.9816
27.3907
34.2057
29.786
20.7555
34.8462
-45.6235
59.8899
60.0949
35.7668
-70.0569
-77.6538
-88.077
58.0781
27.5059
-99.8431
-87.3872
32.2315
35.7432
18.4987
38.0189
7.56052
27.3164
24.8523
21.8853
28.165
35.7214
35.9304
57.7919
59.6125
38.8993
15.9743
11.8657
6.47524
36.5274
39.9789
21.7867
19.4091
9.72749
16.4819
28.8004
48.785
-68.1121
40.0072
47.5064
49.1026
40.1545
-6.31645
26.9277
-14.2256
-12.0611
-5.4984
-2.53239
-11.5348
9.06189
10.7751
0.59404
5.30559
17.6514
27.225
27.3468
21.9271
22.4496
-144.442
16.9534
32.9604
8.03059
40.1815
60.2148
51.4251
-29.422
52.1313
19.8302
17.4077
54.5461
58.4503
52.2662
49.1254
42.3184
54.6227
60.6837
49.2285
59.1083
39.9101
-39.7474
-45.4957
-65.2246
20.9278
-42.2558
14.5266
15.9683
13.1665
12.6571
10.1709
-34.4564
-3.1613
-25.2145
41.5987
12.2042
51.2498
52.9559
36.3478
58.6161
60.6689
54.1726
56.0915
-41.701
57.1193
-30.0254
-12.6218
-87.0506
20.7929
-30.1762
-36.0714
22.0493
9.60706
9.20159
-17.67
-12.5802
-9.71355
-53.9771
-9.7148
2.3309
48.6828
-17.5884
25.4593
-10.7271
28.4925
23.4445
30.6218
19.3436
-33.6213
-66.4936
23.5393
21.1994
20.8526
21.839
15.5107
19.7806
18.4485
17.1527
41.873
27.4466
22.3826
-16.4983
15.1846
7.03621
13.1239
23.5444
-138.154
40.5467
36.0158
10.2017
9.65292
1.53371
-15.3057
0.331534
-21.121
10.5302
11.896
14.9053
10.3701
8.10122
21.9819
13.7083
20.0831
18.4946
-55.7583
56.0803
26.9968
26.1489
-80.2143
11.1122
29.4143
1.68768
-37.5615
-46.0508
-41.1237
57.5512
-101.662
-95.3771
28.7843
-72.0156
-71.7383
-5.56757
2.98738
8.9995
-15.8674
-59.9095
-6.77064
-56.3283
19.0661
15.0038
32.485
34.3142
9.93174
8.68155
-71.6216
6.72438
-26.6214
-8.97236
-14.7385
-17.3768
-15.436
-21.0221
1.60584
-32.8087
-192.709
-7.97342
11.4735
35.9229
36.5336
14.851
22.9952
17.9192
47.9837
19.7999
12.9415
21.4279
16.741
21.6216
27.31
26.0954
32.1433
52.3044
35.3206
52.6421
-16.8182
29.7197
57.5264
45.4306
49.1801
53.6202
38.162
-42.0158
16.2511
24.817
-1.29191
-62.8243
3.33514
27.6542
5.28273
28.4982
11.3299
21.1247
-7.39058
-20.2885
-11.5658
-8.96366
-15.3359
-17.6085
14.7745
0.526632
14.5218
13.96
-53.1317
-4.46294
-71.6233
-34.4952
30.1744
18.9452
28.9319
26.7406
43.4359
-48.1604
43.7195
-56.2728
-27.3356
-19.5388
-33.4873
-82.1082
-23.9722
4.96087
-49.7217
-31.9139
-71.6621
-84.7783
-32.5883
-100.792
-84.1877
-91.1613
-71.288
16.3498
-29.6093
0.156419
16.4974
26.6561
22.8656
54.2408
15.7502
55.0042
32.7459
48.6388
41.802
24.2716
17.2702
30.6436
7.74795
14.4953
-26.9818
-46.883
52.4793
10.8527
-85.0483
-83.4988
-34.0554
-33.2005
14.1139
-4.86957
56.5561
-114.869
45.8972
14.3771
18.5006
14.2189
16.6439
28.0403
9.62212
19.9021
34.9783
24.1865
40.3331
48.5755
39.5161
31.574
33.0287
29.5084
54.608
12.8527
-129.148
-95.8494
42.3813
-28.9535
34.7512
46.5444
50.6246
60.008
-5.671
8.57219
33.8272
-3.47271
-21.567
-22.4267
-26.1197
-25.4863
-129.769
-86.7844
1.79595
-57.6188
60.7358
58.5119
37.9178
21.2187
-16.4029
-24.9086
15.8027
-0.0521032
7.01877
10.52
-74.5888
-24.4319
-16.3214
-11.1081
-3.50728
-38.1611
-57.4486
37.9077
49.0465
-59.3911
45.484
-52.8398
49.8413
-2.0178
13.3001
-37.5363
3.23467
0.323399
42.2028
56.8283
12.0591
38.2272
16.0311
-30.0856
-13.5156
44.8297
2.47215
24.5726
2.26286
-10.4585
12.7173
-27.6525
-44.1433
-36.2792
-113.405
-0.949
-94.227
-46.068
-61.2961
-30.0671
7.07712
20.3154
8.97851
19.3388
16.121
16.032
-14.4054
12.4481
0.76922
11.5419
2.59711
36.2802
11.3135
13.4642
58.1473
16.8568
42.5931
57.1672
45.5739
57.1412
47.5764
58.6762
8.83536
44.8573
53.4316
47.7972
41.1032
-182.445
-16.4205
33.0231
10.7419
14.9816
19.0668
5.69914
12.058
21.0882
-3.56425
19.3981
-55.9106
26.4002
22.8294
54.8058
37.7612
-46.955
33.805
22.1193
58.9165
29.979
46.5005
54.392
50.1751
14.2032
-40.3114
-11.4413
-19.942
7.49468
-12.4256
15.6255
12.1681
16.6761
-13.0618
49.203
49.2687
-20.5159
23.5041
22.6229
30.8386
28.9824
28.673
15.5119
23.1315
-67.6207
-59.784
-64.1021
-69.5398
5.92319
-15.8651
-18.9618
-113.176
-15.7074
45.138
56.7353
42.7368
15.8068
45.8785
43.334
6.5759
19.2585
-10.5417
20.4541
11.1965
18.0622
14.7313
22.0131
24.3371
33.6357
27.4161
28.0084
25.5949
24.7214
22.2401
-21.4515
-43.2683
-36.4623
50.3034
46.5395
28.6742
47.8198
42.6281
15.582
30.0519
21.2691
6.94263
21.476
38.9403
32.0746
42.1098
36.1769
37.6849
24.6401
31.5325
15.2647
17.3625
18.4035
15.1775
-12.9169
15.1429
60.741
14.2707
22.4272
22.1982
41.5699
-67.3493
-37.6271
-42.3993
0.969473
-29.8683
1.19264
-13.4113
-12.6444
-7.62029
-20.0217
-81.0974
-57.5276
-31.2096
15.8122
-63.0526
11.2964
24.8652
24.2373
-95.3946
26.2657
27.4915
-20.1154
-112.307
-216.528
-40.7444
44.7319
-37.7075
15.3669
-11.5029
-36.6185
13.8421
3.28478
11.8012
-63.4664
3.18962
21.5793
22.5086
26.8577
16.9209
57.5596
-77.7621
-27.8445
39.1773
34.9641
23.4872
25.0373
-2.97446
50.9215
36.9102
55.1231
16.721
20.1522
-2.52218
-18.39
-17.9867
-69.0994
-20.9715
44.0807
-58.0548
-72.0769
53.9134
-69.1372
57.9632
-176.687
28.6223
19.9843
-78.518
-69.4176
59.407
-66.9211
-38.9589
-46.1405
37.089
47.1649
24.9702
-19.2974
-8.26446
-20.7792
-21.5791
-10.2979
23.8344
-38.2627
47.8868
9.48804
53.1731
-3.89183
58.7531
-25.8704
49.1413
45.6541
-18.2886
-40.8394
45.8869
52.6309
48.5935
17.2139
20.4073
18.3103
21.1949
20.2117
31.9382
21.478
34.9285
39.4245
-55.5109
23.9555
29.1993
-53.643
-12.9676
-6.0032
-9.62234
-74.6875
-31.0768
-5.24361
2.46576
-2.25003
25.6645
-0.305094
1.01379
5.95798
-63.3516
-61.5269
-47.4542
-16.6039
-18.2364
-17.5605
-27.7382
-1.56947
53.743
12.2783
58.1627
56.6012
58.5403
-9.56687
8.83272
58.205
-5.67414
45.6972
17.8142
20.3656
29.9166
-18.6333
-8.00807
-10.4836
-3.94316
-13.5845
-27.0341
-18.1472
-36.2947
-52.6292
-31.5404
49.9993
46.2857
41.8559
46.2339
20.823
19.6548
24.524
39.796
30.892
31.9499
1.6732
-33.8136
19.1777
16.1393
15.1171
19.7168
20.0428
33.7704
32.2123
28.6007
21.8602
21.8796
29.6576
20.3832
38.7645
32.1476
-17.0194
-14.5032
-10.2378
-14.6528
-17.7744
-18.9628
16.1982
-13.9191
-8.92228
-12.8686
16.5796
27.6601
2.96424
22.8889
17.6334
17.2726
20.389
43.8434
-60.9137
21.1366
-56.9803
14.4197
-22.9955
-24.4745
14.5549
-25.4233
-29.4429
20.2369
14.3627
-0.44976
-22.1919
-23.2479
-28.168
-17.8498
-19.3328
33.7966
-25.9648
25.8812
20.6746
18.7967
34.1634
46.9063
31.6795
51.7745
48.8295
28.707
29.0313
45.5344
28.9555
29.318
26.524
27.7553
17.2125
24.8456
-33.1135
18.1879
16.5191
34.6837
-70.581
-94.0945
-43.6838
1.98037
42.0279
44.1846
-63.5338
40.5908
48.9176
-5.44023
5.59215
4.95494
-16.6536
-37.7308
-8.80506
-10.1884
27.2698
13.376
-4.94717
-10.2926
19.347
7.73054
14.5934
-4.1152
-58.2492
20.643
24.0278
37.3905
34.1987
27.9002
35.1178
33.8546
28.2363
21.0068
23.6395
18.3919
22.3624
17.2023
17.0185
-16.0588
17.1994
20.6655
14.7636
21.0487
4.0706
27.8043
14.4983
10.835
13.9386
-6.1888
14.4915
22.991
48.0869
40.6956
39.0979
17.7333
14.9326
22.0387
28.2657
23.7587
27.2246
30.7084
16.8339
-1.39421
20.3616
14.8695
-42.2642
26.2737
-13.1815
11.0172
-10.0792
19.2324
6.79414
-15.0848
-31.0578
-21.5774
-17.7968
0.19239
10.5048
18.9621
17.5554
21.5155
17.3146
22.7981
22.505
24.5204
26.5126
26.6978
33.4638
25.3988
12.5024
-3.10413
5.08871
-14.3158
4.81703
-7.15336
-11.4573
-13.0075
20.4211
23.0191
-0.269441
18.7282
16.0401
18.6114
18.2911
43.1331
25.0183
47.015
17.5935
19.9607
-16.5586
34.7618
28.7257
47.1258
33.4707
5.14665
-1.11386
-16.1938
-18.0639
23.5174
16.6621
22.3097
22.5701
33.7791
56.065
8.88648
42.4244
14.5907
42.5893
33.2215
21.4785
23.8955
15.1335
17.1599
9.22888
2.66871
-65.1602
-23.8749
-160.597
55.5974
31.2591
-24.1774
-1.05734
27.9938
0.171365
22.5961
23.3776
32.049
14.2093
36.976
20.0916
19.5851
23.428
35.423
47.5023
57.1919
21.9243
22.5884
28.2992
16.5086
46.7027
23.0897
28.1988
-11.5303
15.928
-28.8507
-8.76312
-18.89
-16.8339
-56.8437
-3.54504
-19.9146
-12.2688
22.5604
49.9338
58.763
-20.0457
-21.9378
-56.3172
18.4993
26.3568
-10.7291
24.6566
46.5844
7.73368
14.9053
2.37458
4.34585
23.8285
0.355434
-40.0779
-3.79726
22.5161
21.3177
22.6182
21.0967
14.6234
20.3804
20.5095
27.3719
35.1258
32.079
29.4165
-24.437
47.6864
29.4127
29.4465
33.4236
-4.05628
-2.78191
39.8462
-21.8929
-13.3963
14.0529
-12.699
-46.706
-32.7136
-68.7561
18.505
12.0636
7.05709
9.88776
32.8616
-6.92629
3.97509
23.1455
-43.5134
-37.9179
17.8531
6.32548
9.48273
16.9002
15.3336
20.534
21.6657
52.7677
16.0318
-78.9011
11.1075
-17.3129
4.09737
-19.9777
-16.795
-22.0052
-31.2702
-19.1826
-13.3095
-32.2568
-27.8327
-19.724
10.9291
-2.49426
-15.8923
-15.6691
38.7807
53.3319
32.1009
26.6595
23.1777
20.4863
27.7323
35.766
36.8697
17.8539
37.7514
49.4501
49.1969
-7.01144
-43.1284
-23.0627
-15.7893
-16.3842
28.0624
9.80199
15.8002
8.70664
28.9591
20.9963
10.689
-13.4749
-70.6857
-89.7022
1.75259
-9.4778
33.8996
-7.24692
-62.6916
-67.6264
-16.4016
-69.7164
-34.9198
-24.4723
-31.7094
-29.7227
-28.0153
-141.892
-27.2149
-27.7815
-49.1255
-63.1765
14.9811
6.50674
13.8753
19.6002
48.8751
22.5276
19.9815
41.8231
19.0797
-97.7202
60.4803
24.6108
58.8641
55.2962
39.4353
15.0123
-1.62333
-47.0936
-17.3716
-10.1109
-25.7319
28.0303
19.3777
17.3067
17.8603
43.6829
2.63677
2.71011
-113.876
47.9043
-29.9161
-2.62447
1.55071
-38.5843
-0.71753
-15.2318
-14.3726
16.3502
35.5167
-43.6519
-16.4013
-32.7422
10.7378
1.4005
9.48439
12.4381
-63.2389
-27.3138
-23.8549
3.40692
-25.3468
-24.4916
2.23225
-23.4939
-24.6433
-12.869
9.67328
-1.54804
54.1664
19.2362
21.0861
16.0652
35.5229
36.6311
-15.5519
50.2083
-21.0387
36.8551
25.6897
-113.49
60.0038
-9.11642
-15.7011
40.2557
-13.693
27.58
-54.6603
-5.91391
-44.7454
7.44223
20.6085
-25.4511
14.614
6.25344
-0.206428
-2.04123
-17.3145
13.4957
23.5126
32.8388
59.7549
37.4249
30.6264
29.1629
27.0825
-34.761
-44.7013
-75.1345
-8.9758
-3.85476
-45.1931
35.6573
0.787262
28.0906
12.2858
11.3302
23.9586
41.3453
46.1009
-3.26453
16.7977
37.3361
-18.7326
57.4049
25.1203
25.232
16.7223
6.19531
19.5089
-26.424
-15.4016
-61.6497
-93.7741
-20.3513
-8.79764
-20.9277
-2.28729
-32.7438
-33.872
6.68286
4.5785
-2.49783
14.0513
18.9612
19.224
-2.65286
19.2217
-25.4861
-3.2675
-1.10756
9.45913
8.0681
47.535
42.8392
56.5713
32.9638
42.6195
55.0454
34.8145
52.6163
39.342
46.888
54.1654
37.8914
60.7259
53.1203
54.0082
7.38589
52.1912
22.6613
37.4647
23.95
15.7009
-63.2836
22.8386
-64.2057
14.454
-24.3876
40.6619
46.5183
41.3105
56.0467
48.0819
26.3928
28.7544
27.458
-34.7978
56.6287
-82.9286
-68.2707
14.3981
-41.7688
29.0457
45.4245
-48.5519
45.7794
-50.2986
-66.7514
19.3255
-43.0989
36.7704
37.1689
25.3252
7.42128
17.8527
-18.2519
-58.8762
-9.34326
-45.9168
51.9102
-75.4831
-3.02441
-18.5148
-5.26036
-9.35222
31.5914
-109.918
-45.4908
16.2243
-11.0064
20.3201
13.9556
-25.8014
57.6534
54.9948
21.7296
53.7157
-40.1939
51.2125
-38.0214
-19.8362
43.5354
53.6871
25.2943
-17.8671
48.9069
-88.4972
-22.4792
-26.5217
42.7519
-18.8786
34.0498
17.5397
15.1
25.906
13.8276
57.3023
27.1886
26.3247
26.3927
29.7155
28.6157
4.29499
5.37378
4.65572
3.21095
7.40814
3.96701
20.3591
18.9415
-45.6627
-61.741
18.9797
53.1809
13.7165
11.3395
9.63212
12.3888
-23.6501
-23.6526
-30.689
-39.9536
-15.6154
58.079
25.7349
17.991
22.8489
15.5221
10.2718
12.1142
-12.8022
-12.4748
-15.8179
-23.4741
-79.8936
11.7227
8.17875
27.8044
36.8162
-33.8438
-43.2061
-58.0356
-39.901
-52.26
-46.5907
-49.3693
30.1605
19.3447
54.7823
44.2499
1.62314
-22.046
-83.2244
34.15
45.2551
29.2817
58.2551
58.8892
0.907766
59.6854
18.791
33.7206
31.6118
3.1394
-23.429
-36.1787
46.0575
-116.458
-118.451
-82.0234
-29.6188
-22.7395
-54.9971
-54.5616
-50.1363
0.0891422
29.6435
54.4084
55.6557
-7.51913
3.19678
6.89222
-161.077
-88.5941
-113.1
19.1369
15.6314
15.4903
41.4433
28.3439
49.2094
27.9135
55.47
59.0594
60.5996
60.8623
-74.4766
60.1049
56.6283
52.2269
23.9835
37.5562
57.9014
55.4166
43.2026
32.6779
30.678
-19.1253
52.0137
-32.3775
20.3116
26.1201
49.3792
47.9994
32.1232
46.4362
37.2564
34.1628
-27.1881
34.1832
12.2447
30.7461
17.8379
8.95212
-89.8624
-85.2269
-66.7937
13.0746
-63.4908
-60.403
24.7804
-117.365
-126.016
-91.0224
5.99056
16.7468
14.0899
16.6687
13.8864
29.7516
30.7248
23.6577
21.72
-84.9882
-25.6541
-61.3921
-40.9833
-5.61913
-65.3997
16.4598
17.3253
13.3558
23.2417
27.458
19.2155
32.6978
8.3987
20.6968
3.59863
9.54181
24.2202
10.7793
17.5222
26.2429
61.7461
21.82
16.931
15.1867
17.6807
11.7913
7.41694
22.5426
24.8417
47.8026
35.1001
21.4823
29.4896
27.4282
7.33879
6.76614
-9.58408
-37.3242
-11.4075
20.3551
21.301
15.208
46.4919
-98.685
-143.93
-72.8901
-56.2759
-1.57749
-29.5215
-17.7961
22.8655
18.8399
16.4422
13.1277
11.9568
20.0738
34.1918
2.82293
-2.26228
14.593
18.2764
10.2375
23.2086
18.1074
18.06
27.5941
20.3306
17.3673
14.652
23.9756
53.4929
28.9393
20.7587
22.8866
28.8065
34.8072
33.6542
58.5436
36.0687
39.1067
41.9981
22.94
44.1649
54.3872
49.4539
33.3227
-25.2991
-26.4552
-31.5223
-38.7574
-53.5302
-25.4319
-19.3253
-46.3952
-194.241
-19.4936
-30.6079
-60.2392
-28.8488
-31.6258
-23.9586
-34.5141
-56.0078
-116.459
-24.1803
-61.4297
24.0743
-30.2145
-29.2381
-3.7386
-7.31081
-26.3534
9.22595
-24.8804
-10.8853
-19.2692
-31.4876
-9.50378
-11.4299
-19.0035
-15.0335
-20.8322
-29.0383
-32.9057
-39.9218
15.1251
18.0511
26.2605
18.6172
33.1088
20.893
28.913
14.7539
31.1525
31.6115
32.5036
32.5856
35.6016
27.3236
21.0146
28.0581
23.7469
22.7875
-16.9714
-44.9575
40.7318
52.7373
-64.8497
-59.5894
-12.4953
-60.8081
-41.4882
15.0531
19.2528
-1.84103
59.6026
30.6149
-46.7537
-16.1112
4.50609
19.5858
22.6396
12.3999
-15.9866
12.2172
0.398224
13.0387
13.2934
14.7445
6.74021
7.11431
8.66399
11.1953
13.3345
33.9697
20.5897
-27.4128
9.51489
-22.9821
-33.7174
-16.4155
15.5449
6.0032
-0.446992
-21.8596
-71.1816
-31.2308
-19.4282
3.51921
-21.3634
-122.641
-46.325
-80.9449
-66.6203
-33.9865
17.8826
37.618
28.9205
25.6061
54.6523
17.5864
22.9818
51.0621
44.1852
41.5073
50.9518
10.0874
13.207
11.2552
38.6487
7.59961
46.8641
30.5847
-14.7684
-19.6181
-59.0692
-34.4658
14.6441
-7.90095
19.4917
-15.2421
-27.2605
-33.4735
-59.6542
-76.4322
-50.6211
-47.4418
-38.8709
-32.4785
-38.7285
18.4233
20.6202
27.0251
16.592
26.403
21.8758
24.3763
54.9993
41.9794
13.765
41.4899
-1.37417
35.0334
27.8238
-31.0359
-31.6665
-4.93785
13.3731
-65.3122
-11.2212
-60.2665
-1.95912
-8.63614
14.7271
-20.2885
-62.0471
-33.9054
-26.6918
26.8976
38.7748
-12.9276
27.7854
-26.8078
-63.9364
-1.95897
13.3581
-17.4155
9.23246
-20.9221
-32.9791
-25.781
-18.6742
-13.5786
-25.469
-19.361
-17.9563
3.20015
12.6913
8.99938
16.7418
24.0801
20.3008
27.8404
11.3784
35.9758
8.34498
43.9699
-4.98435
36.0694
5.16463
-6.49381
-11.8806
12.157
24.473
24.2008
28.8376
38.4182
42.4139
52.4834
31.7765
55.6246
57.1071
19.6333
15.3354
-34.9125
20.0273
29.5937
-75.228
-92.8236
-29.8055
16.5272
34.0157
33.8347
18.2294
23.4684
26.4327
19.0422
15.5688
-2.38739
5.063
16.576
14.8396
41.0817
-9.75129
32.3043
48.7398
53.8693
49.6805
48.2226
31.8584
44.0772
46.0307
23.0764
62.1586
38.426
42.7334
49.1761
44.2327
-190.03
13.7761
-56.7394
49.2439
-15.0876
-56.8967
27.0148
15.3076
-50.5776
-15.5584
24.0568
33.4195
20.7485
19.2422
13.764
28.3577
19.3524
33.2649
10.7509
18.2891
15.6966
29.402
48.6587
52.6578
48.9849
36.7619
58.6065
53.2583
48.6623
50.3697
59.2805
55.2845
28.6223
36.1552
28.8281
44.1877
33.3285
14.3687
3.56196
-14.8716