/*--------------------------------*- C++ -*----------------------------------*\
| =========                 |                                                 |
| \\      /  F ield         | OpenFOAM: The Open Source CFD Toolbox           |
|  \\    /   O peration     | Version:  2506                                  |
|   \\  /    A nd           | Website:  www.openfoam.com                      |
|    \\/     M anipulation  |                                                 |
\*---------------------------------------------------------------------------*/
FoamFile
{
    version     2.0;
    format      ascii;
    arch        "LSB;label=32;scalar=64";
    class       volScalarField;
    location    "0.0380695";
    object      omega;
}
// * * * * * * * * * * * * * * * * * * * * * * * * * * * * * * * * * * * * * //

dimensions      [0 0 -1 0 0 0 0];

internalField   nonuniform List<scalar> 
3989
(
49.3965
48.428
46.6668
48.2628
46.5362
48.6154
47.8062
46.1945
67.5933
65.0733
145.007
77.7916
123.904
49.3561
62.619
47.3301
49.4075
64.5158
47.3315
46.9489
80.7772
61.7569
52.4474
50.1422
49.0101
63.6446
81.1549
48.5554
59.259
49.193
71.271
72.6408
53.6777
49.3306
153.762
72.5228
48.7804
47.8877
73.9359
49.9695
56.4939
47.9549
77.0414
61.8892
88.7507
48.4731
47.4993
94.986
49.3249
95.0822
46.0198
49.5174
60.8158
49.2859
47.5786
48.3882
47.5688
77.7825
136.393
82.9387
79.4339
180.843
179.553
614.419
47.0663
50.3439
66.6108
46.9526
61.0853
78.1312
129.231
53.2741
47.3754
47.6147
53.9661
48.8543
48.5708
63.4743
49.5394
49.8576
50.6967
93.5816
68.4261
46.8586
47.2124
200.238
47.1289
72.5598
46.4809
63.5755
47.3837
73.7904
82.8676
52.9748
48.938
48.3038
49.7694
63.3218
48.1044
81.4636
65.5982
84.081
75.8219
132.708
68.8276
49.3507
59.5187
66.878
63.5625
125.237
62.3923
46.8362
49.1043
49.2684
47.7385
50.3298
49.2156
73.0504
76.9221
100.912
54.89
49.3472
49.8036
48.4766
49.3279
47.4642
47.0541
46.1428
85.5786
68.241
98.953
132.929
95.2919
113.778
112.854
110.727
47.6375
58.4411
63.5591
65.923
75.9768
61.0325
86.3279
49.2357
48.6714
146.977
46.6252
93.7826
67.0762
59.6039
45.8232
73.6579
73.3205
74.5148
172.569
169.412
45.5481
54.5418
61.5726
127.951
49.4183
46.5306
67.1504
96.6101
96.5668
47.6722
46.7851
83.6932
47.5811
86.2773
51.5538
47.9965
102.633
53.1226
78.8044
52.1766
47.4067
48.1334
140.625
54.4802
85.3699
46.7489
73.1525
47.0647
101.14
79.8095
51.9201
81.8865
67.4924
49.5569
48.292
51.5237
90.3303
201.737
46.152
205.608
753.968
48.0111
52.5477
46.6665
90.4463
76.0267
150.115
83.8909
148.418
62.4014
47.919
64.271
58.6563
60.374
56.4397
71.8688
68.4667
56.4519
58.1216
560.247
67.1468
94.4686
87.0104
47.3588
46.9175
48.5503
48.2124
50.6832
97.132
68.5582
54.7855
49.2519
83.7036
47.1954
91.3056
121.809
74.9045
57.3074
48.5777
203.966
105.24
69.1126
47.2637
53.7647
47.4714
48.6234
63.4694
134.662
133.158
47.0035
131.232
106.066
62.2632
65.2155
131.264
46.9303
80.2449
58.4651
85.6915
47.9006
95.3613
80.527
47.4387
47.1558
53.091
47.9355
73.688
47.1366
83.2191
113.306
46.9788
60.783
93.4737
101.855
102.876
106.003
106.104
51.6011
106.649
83.3672
112.235
101.55
52.8721
210.375
65.387
60.4464
147.949
60.5263
49.1941
51.2215
61.7326
138.575
172.974
185.814
107.602
107.494
110.761
56.6928
80.6806
47.4839
48.0916
77.6113
106.849
69.8421
53.1873
158.708
156.251
53.0733
156.841
59.2274
51.4166
81.4174
55.8298
49.1185
46.889
45.6902
67.0604
90.3476
61.8862
107.587
46.6602
71.0898
47.7804
49.8674
107.098
57.2884
63.3771
47.824
74.3163
54.8923
85.0676
79.054
128.369
51.3637
46.4917
47.5081
49.8862
49.8198
47.1248
53.5668
59.8363
54.77
99.852
67.2458
66.5984
86.9579
76.8744
81.3305
46.1009
50.1892
182.352
49.8493
47.0858
52.479
106.029
50.4684
49.8942
54.07
48
83.6393
108.11
87.1495
697.184
60.8482
64.8164
109.854
48.7694
259.111
72.8731
83.5084
74.598
96.6203
49.9426
64.4669
91.211
55.3813
131.081
47.4329
61.6331
46.3684
53.9471
48.1958
84.4407
58.0425
112.84
63.7192
57.6359
92.2357
138.81
131.994
85.8185
172.154
72.8101
104.631
49.6904
146.406
48.2867
103.965
101.369
46.2601
48.1834
128.015
51.6285
57.2012
53.8671
69.6431
68.377
112.135
59.3932
52.0297
47.0035
105.228
75.959
54.1307
47.1844
66.0387
47.5084
537.915
87.1847
87.4679
47.0596
46.9139
51.6498
97.6774
398.062
89.0195
89.3354
841.146
46.5068
49.3924
47.9994
106.284
54.3608
48.1282
55.5007
93.5699
47.0595
47.5976
177.069
48.814
49.0546
91.5578
47.5702
46.5072
48.5953
48.4172
48.5392
104.733
48.559
46.8674
61.01
61.4161
171.484
48.4265
54.4303
76.898
82.9649
47.5201
54.4217
53.7114
123.235
93.7775
45.2914
46.8918
57.7903
59.8135
153.037
100.235
152.807
73.7458
88.927
92.0971
184.36
57.3918
119.12
182.271
65.8516
148.445
57.2338
80.9299
90.2882
124.263
123.049
109.793
160.414
76.8171
60.1848
88.7833
45.4587
49.4745
100.302
160.621
87.9949
46.0427
113.806
45.7615
68.7441
47.894
46.7769
61.2174
55.2174
52.8249
47.375
68.4348
47.4083
65.0185
57.725
55.6704
66.4886
105.545
105.11
66.4533
75.9392
72.7342
47.4928
112.004
105.804
56.0592
93.3713
101.608
82.947
49.4182
88.1282
49.8487
53.0851
70.5691
88.3768
47.5017
126.8
46.7705
46.5022
78.6548
53.0576
45.3366
49.5945
49.9136
107.683
48.1268
56.4302
96.4495
49.8566
71.8676
107.097
63.4844
47.3088
62.6066
79.9003
1284.76
987.419
47.5819
47.0031
48.0247
73.1112
46.328
46.8096
52.824
108.846
134.608
88.7178
64.4534
76.1022
81.8627
46.62
48.833
110.019
140.753
60.4848
47.2875
49.8676
45.8374
47.4556
51.8929
71.8826
48.4436
50.2135
46.2827
48.0098
82.9827
46.1596
70.7185
45.559
50.9738
46.4206
49.9081
52.5018
62.6743
49.6629
54.5968
47.3412
46.9156
67.1684
54.5974
46.4887
46.9993
54.8605
46.9334
48.1781
938.818
436.537
116.471
49.317
72.3987
80.1308
86.4974
49.2634
48.1598
57.0781
60.5669
47.6894
48.0719
48.6465
48.3995
65.2514
49.3145
79.5781
100.217
49.0323
45.376
60.2723
48.9427
79.788
85.2437
50.5498
114.462
77.4095
47.3115
63.3888
68.5858
45.6895
100.393
47.4786
48.438
50.2799
92.034
48.1345
47.6733
47.9963
48.1109
49.309
47.7372
49.1936
66.1664
48.2421
49.8168
69.1638
49.6048
54.3078
46.5377
47.5732
55.2381
48.1421
48.4335
111.937
48.6977
70.9882
53.7702
63.6267
50.5639
94.6681
48.1298
49.3544
46.2245
80.6538
66.101
76.7099
100.888
56.3631
48.8578
54.0288
60.9919
76.2517
55.0104
138.786
47.9223
47.2712
47.1856
135.248
65.3894
47.5584
56
112.855
80.2419
143.026
56.9279
72.6788
46.872
47.2599
46.7321
46.811
47.0191
49.2456
83.5035
47.4707
47.8015
47.0214
47.5713
47.2967
89.0891
62.7111
47.2896
77.0294
47.6567
66.4713
52.3594
158.807
46.2504
153.307
45.1653
66.1502
85.9777
55.2759
113.13
49.6288
92.5911
48.5445
114.818
47.1194
46.8753
47.3391
140.724
50.0519
55.7864
140.899
47.7537
113.857
56.8422
86.0493
81.3512
69.5754
82.3805
48.0032
46.979
47.2588
50.1656
115.47
47.675
47.1304
48.2172
46.889
47.1634
69.7001
86.0973
46.9562
50.669
47.1095
46.4518
95.3355
47.472
159.685
47.3206
69.8646
133.027
65.1286
49.0023
97.308
79.2774
61.8172
62.4518
196.101
486.476
801.462
63.2066
47.0752
48.6262
46.0869
46.721
49.0105
48.5697
48.2171
49.3518
53.2068
71.3307
111.196
48.944
47.5771
76.9428
56.5897
100.735
54.7067
152.121
49.1637
52.7907
96.3848
49.9834
46.2601
66.386
47.5252
54.8752
82.7716
46.5134
54.7932
64.9885
57.418
48.8054
51.0756
49.4017
66.3758
48.3241
45.4325
45.2935
64.6622
46.4395
109.171
46.7032
82.2396
82.5674
79.4784
79.2508
48.0033
45.9533
46.6615
46.9801
63.6363
63.6601
51.5723
51.8379
46.0885
47.7175
80.1326
57.9748
63.2508
58.8913
62.759
47.0197
49.0588
78.198
66.5484
50.8157
125.768
56.897
89.1669
48.2331
53.9493
80.1631
51.1899
114.517
47.4683
51.7556
62.9634
46.6095
58.9973
51.8826
46.8456
59.3787
46.0404
48.3394
92.06
60.8324
47.1395
46.9945
58.6084
109.414
63.7773
48.9507
48.8653
48.295
54.4092
54.0317
83.546
54.9085
46.2635
49.116
51.2513
48.0758
63.8735
51.2971
46.9392
46.3053
82.1783
55.0223
46.2147
273.131
95.6819
45.3388
48.2391
86.499
93.6676
65.0564
90.7527
46.3993
89.5902
52.7474
56.798
48.7807
46.8677
355.881
46.0092
48.0683
117.633
55.392
46.3465
66.3411
69.7592
54.5084
54.8471
52.9906
56.2458
55.1589
91.8172
88.7539
49.3017
52.3688
81.9202
53.914
97.8982
46.5098
71.9214
52.362
51.399
62.7076
535.96
154.619
444.644
672.823
186.509
51.6262
48.4089
49.4504
945.314
456.645
47.363
58.382
51.7887
752.391
61.6076
73.4329
45.8608
68.1488
47.1626
72.1117
46.3557
51.0321
52.4793
46.9627
93.5248
51.7144
52.8987
46.9778
48.2158
70.2264
51.6626
56.3153
49.398
52.1398
961.95
336.331
122.411
54.9851
49.331
93.9899
53.5911
55.065
49.4025
49.6301
102.877
56.796
47.3062
50.1485
61.1773
47.8773
85.093
81.3321
72.9422
58.2075
47.9476
54.4608
84.0865
47.6901
47.0357
46.7222
46.7393
68.5426
108.788
49.2746
53.4142
63.5722
48.0318
48.2429
49.2033
65.7016
47.1914
49.3899
49.7642
52.3083
50.9629
46.6335
49.0105
51.6849
65.1952
98.0836
69.9312
52.2982
49.919
51.8681
47.3118
61.8951
47.5272
46.9598
50.9024
51.0091
51.5658
51.4362
49.3145
51.9549
46.7201
47.7838
46.8216
55.6549
96.7637
52.2047
51.1903
69.043
45.8965
54.5295
48.3793
46.9209
48.8054
48.9716
59.4335
74.2767
73.5031
57.4114
102.046
52.2261
54.3293
69.9639
57.8043
53.513
53.1564
47.6874
61.3522
46.6081
46.7768
46.7905
46.6978
62.8231
48.009
52.3385
48.5493
48.9157
52.1733
52.6704
58.9626
54.5367
52.6703
46.8413
47.2492
46.8103
47.1749
49.6242
49.7607
50.9754
49.9266
46.6363
49.8011
48.221
49.3468
46.0793
49.5389
49.1867
53.6102
55.8536
59.7276
64.3583
144.919
142.97
47.2486
47.3086
46.7651
98.4222
47.2803
47.2904
51.1525
50.829
47.1441
47.0642
47.608
53.5899
58.3819
48.9501
51.2235
52.3748
115.148
123.555
87.4914
81.8429
134.42
52.4872
45.513
45.4922
45.975
47.3377
54.8601
53.0261
54.0903
51.8877
64.1347
91.9523
91.0556
87.4099
47.1628
47.1606
47.1293
57.183
48.7049
58.8678
64.3582
948.011
51.5101
46.995
49.2151
48.1759
52.6221
47.2617
52.7569
82.0564
100.382
53.2752
65.4052
46.4315
47.3148
66.8939
53.0157
50.8907
53.7995
106.807
114.865
55.2171
49.8558
64.066
46.526
86.6166
107.43
102.296
56.8643
49.8899
61.5097
48.0628
99.312
80.4673
80.4624
47.0761
49.1501
52.2628
49.8533
94.365
47.9475
107.053
110.653
47.4682
46.2724
49.6523
55.1148
47.4148
51.1534
47.3445
68.0481
46.901
49.6629
46.6181
48.7377
46.4321
52.8222
47.5929
53.0181
50.7257
49.6667
52.3075
77.5765
47.0394
47.7952
53.9211
67.8277
53.1795
46.9803
62.4222
60.0533
64.3369
47.097
48.089
47.0036
48.1123
48.5556
61.782
68.3197
55.6227
63.7647
46.5474
46.6885
73.7632
63.6069
47.7863
50.4596
59.4072
75.811
47.7943
65.1587
48.0563
50.157
51.589
51.3092
47.5379
64.7565
68.2071
49.2224
54.8383
59.4738
49.0337
70.2714
94.6451
56.5859
47.3518
88.7317
49.2024
70.855
79.1632
56.1754
49.5123
51.6597
63.372
64.0667
51.6939
49.5697
72.8997
47.4837
48.1705
50.2104
48.3916
49.6537
48.1509
57.0912
49.0199
59.0989
81.5683
48.5768
59.9999
52.8319
53.5886
56.1765
48.2237
54.3598
48.1817
47.325
47.7498
47.8093
49.1898
48.3142
74.7852
47.4234
116.304
77.5286
71.7804
52.5259
91.5051
110.734
48.0304
49.203
103.621
100.666
79.908
49.0159
49.2183
114.698
115.555
110.059
70.7757
95.5489
68.954
98.0252
56.159
48.803
81.6306
47.5399
69.0711
47.1447
47.9445
88.4204
108.111
54.9694
58.9391
49.2823
49.3488
70.9191
48.0708
65.8947
49.3191
70.7989
68.5704
79.311
88.3074
86.2341
71.5335
67.8994
50.0525
108.382
48.1471
49.1976
47.6103
48.5378
49.2984
77.5935
48.5598
48.24
62.2802
50.4884
48.4419
105.945
60.0734
47.0074
83.2537
83.1104
94.7029
53.7031
45.9925
62.8202
55.4156
60.6217
73.0161
51.7707
48.0031
53.0702
50.611
79.1045
53.2287
68.4438
100.013
65.985
51.3418
46.7694
48.6314
112.329
99.8554
103.391
83.7143
48.5279
77.1032
106.327
91.2838
77.8321
46.9755
55.1267
74.513
47.6629
49.4857
51.9079
54.3301
57.7864
113.915
108.182
326.96
88.2197
109.242
671.934
49.0272
54.8075
62.2717
50.6121
64.7743
48.6353
65.6278
47.5703
52.9566
54.6382
105.901
50.0575
48.223
47.1192
47.3254
100.773
69.2012
47.3064
49.6026
47.5783
48.5723
49.3442
48.8742
145.355
46.6135
47.8462
45.4619
50.1341
50.9962
49.8751
48.7765
61.119
48.9145
46.4999
46.4129
46.4008
49.5588
78.595
73.3693
70.0855
49.2719
56.8168
61.8461
50.0396
52.5423
72.286
46.3405
46.3783
46.3218
57.1754
46.9501
49.2244
46.6905
49.2126
48.8497
47.7542
46.7244
47.0364
48.0789
48.0302
46.406
46.9016
73.646
50.0193
51.8653
47.4572
46.9513
47.7057
53.4239
46.727
46.6732
74.4905
85.7253
71.5557
46.6472
81.4113
46.9465
77.0571
55.8
69.2781
57.6988
46.7918
46.7734
749.32
589.163
751.533
561.698
991.355
163.27
47.3396
59.64
72.8687
48.4838
48.1566
49.1581
56.1489
50.7095
73.152
115.797
65.148
95.4723
55.2064
50.2088
55.5049
50.7296
170.494
49.5035
75.1739
107.102
45.8218
51.7394
47.367
47.381
45.8753
107.617
84.6276
72.5002
58.279
46.8071
57.2176
71.1524
65.9953
53.0701
84.2048
115.227
58.9723
58.9731
47.4504
74.7758
107.064
70.2011
90.583
103.433
59.3401
49.539
80.4449
49.9996
223.505
48.2999
45.5598
67.3421
73.5964
53.3551
98.5222
47.7009
54.1994
49.3053
48.3359
125.4
62.2633
49.1729
84.2807
99.4261
83.016
46.6243
141.83
55.0702
103.778
52.5283
50.2805
146.678
48.6653
278.344
276.8
47.6239
49.9764
47.7142
47.3397
47.1461
59.9291
49.7655
52.7515
63.7079
108.414
49.0031
50.2917
49.7915
63.072
66.1244
54.2713
67.0389
152.78
45.4028
53.793
103.381
98.7321
74.5283
76.8513
88.4257
67.001
89.0662
45.2963
80.6454
52.2842
107.505
53.2273
63.6599
124.284
93.6431
53.2463
94.3726
48.8293
49.662
87.2861
83.0848
74.2183
52.7511
53.6552
53.6366
80.5657
69.3495
46.7947
52.8954
57.2359
61.4276
87.5298
251.764
913.831
47.9523
60.7531
927.667
99.7928
61.3229
50.2984
55.1939
48.3934
75.7213
112.13
53.9455
92.6252
46.0082
102.796
54.4287
62.0545
54.4893
84.1777
46.9685
94.0949
107.98
49.4996
61.5367
90.4022
50.3944
51.9311
47.2676
73.3348
81.0723
95.7583
75.4149
130.992
195.192
102.47
53.9248
67.5762
60.4958
108.975
88.5863
153.524
189.385
192.937
48.1508
49.9381
47.1763
74.0647
47.2985
47.522
50.1702
49.3452
47.8724
136.76
250.915
73.4645
88.6192
53.0455
47.0835
47.0722
46.8977
113.058
47.8512
46.569
49.9119
48.2224
526.473
47.9519
127.171
93.8102
45.4057
47.1547
49.7224
49.3136
55.2823
62.907
66.4714
46.4651
72.1017
71.0613
78.8739
46.648
83.7763
54.5567
63.7854
67.8403
47.5444
68.4057
63.5976
60.8217
52.9948
48.7435
48.8406
90.5949
64.2414
48.5487
82.7871
70.8649
109.74
86.0447
84.7916
86.7072
87.6626
46.2721
47.5433
46.6703
47.9296
95.9203
51.2936
118.873
68.7426
70.1818
152.19
46.8685
49.5394
52.8876
51.0457
46.3259
46.1373
60.9262
88.3697
74.7806
65.6528
72.6124
56.4179
63.9751
66.8917
62.0482
115.062
113.591
67.5697
82.9041
46.6522
106.938
72.4343
107.957
78.6874
63.2226
60.6449
57.3129
108.636
92.2732
85.5592
85.3947
48.3044
47.2197
47.3733
64.3507
49.3923
49.4006
49.4038
48.5485
48.9703
48.6961
49.3493
48.6421
49.3021
49.4695
49.3366
49.3292
74.3337
128.06
126.036
78.0398
80.0954
151.702
62.7995
46.7582
53.8837
48.6945
99.5024
102.25
50.3672
56.776
51.3924
48.414
49.7194
49.4585
49.7403
48.3661
46.5624
47.8318
53.8695
83.6904
49.2018
52.3633
50.844
48.5146
52.1409
48.5452
49.4095
47.2287
46.7239
47.2754
84.9502
53.8385
51.7681
48.3969
78.8168
50.9318
64.3784
62.8745
60.1853
69.3089
80.9475
47.1403
60.1965
50.3557
50.6811
53.9763
52.3093
50.524
46.3364
49.6239
52.5963
48.2341
47.9813
65.5248
131.242
60.0437
46.4371
51.0525
52.9459
78.9846
53.5238
49.4553
48.6854
49.1484
47.7161
49.9346
48.5228
50.0974
63.7644
47.5271
70.0598
47.251
54.0062
48.1367
72.9787
47.9435
69.2471
48.5043
47.5594
49.9351
48.6639
48.1092
49.1273
46.5951
47.1041
46.4715
48.1878
46.7587
49.1664
48.2038
48.5741
98.6316
115.973
51.9993
64.0032
51.4896
86.6857
47.9641
47.0213
47.1335
47.2295
59.1859
48.6769
47.654
48.9211
101.153
46.7627
46.9521
46.6058
65.0008
85.028
126.512
48.9106
46.6018
47.4113
72.3198
51.9379
81.2922
46.5534
53.1443
85.1563
50.2068
47.3123
103.623
49.2447
47.1833
55.7684
46.692
66.8556
65.5177
92.4351
69.0263
90.7939
64.064
70.8407
95.7533
49.2211
47.4883
63.9609
48.3486
48.0973
48.4239
47.6412
48.7807
49.1993
47.3178
63.7304
48.5716
47.9693
48.4332
48.3536
49.8338
47.8902
47.9072
56.4538
70.8226
56.373
47.035
68.6356
103.073
91.9291
116.52
77.3719
55.9941
46.7631
50.8135
51.2965
48.0411
48.3294
50.708
46.2828
56.176
57.8994
110.164
117.399
108.632
57.4688
79.0755
81.8021
68.3795
155.371
45.3069
45.1302
45.2669
114.417
50.2255
66.8934
118.755
105.322
140.625
141.567
48.8529
138.837
139.774
105.323
134.175
86.473
586.997
90.1832
80.0626
74.5541
58.7299
57.2171
112.201
77.9331
47.5968
49.7286
48.9404
49.3339
125.5
49.7017
62.5678
63.7565
128.509
146.869
91.8556
86.9247
53.8745
50.1651
46.9905
71.377
168.921
124.737
126.249
48.223
49.4364
84.9443
48.7412
52.6268
76.0389
63.3436
65.0115
82.454
46.2295
55.7621
75.7051
53.8292
48.135
55.2857
71.9953
54.5796
46.62
50.603
71.5939
45.7322
139.421
77.5608
94.7999
58.7013
59.7692
96.0347
50.6172
46.8022
69.8429
57.3265
113.275
80.7314
116.274
104.847
64.3119
97.7738
138.477
829.724
55.9094
76.4997
113.664
117.447
47.1811
153.591
114.821
61.0739
48.7273
84.5821
80.2527
100.607
85.4862
53.0776
121.791
61.6427
121.277
84.8156
100.93
107.265
90.2738
138.375
124.829
47.1553
46.2964
46.8565
46.7301
53.9856
49.9371
118.101
78.3912
46.812
66.1313
46.8041
48.2039
67.5534
46.6075
46.9038
47.234
49.3536
145.184
49.6766
47.0281
47.5437
47.4456
55.6538
46.8403
65.2846
56.3735
73.7892
111.438
47.6975
101.596
54.0943
59.2484
147.373
66.2993
437.693
99.5884
47.5258
98.3926
86.4763
48.0429
77.0515
46.98
48.6362
61.4301
47.5931
54.6611
49.0294
46.9337
50.3093
109.352
49.0678
70.1528
59.8732
55.2559
49.4475
119.923
48.8218
48.4464
49.278
103.098
47.2212
70.3383
48.3129
47.1982
47.8915
96.9577
47.6416
46.9305
47.0863
46.8417
47.599
49.7104
47.4762
47.6504
63.4098
55.1483
83.2037
96.9868
49.2854
48.5174
55.9954
45.6325
48.2345
51.2511
47.0291
70.6219
45.388
46.5763
47.7242
59.0256
87.8347
46.8306
68.7908
47.7673
47.2378
49.3556
46.9649
51.5129
46.4643
51.6471
48.6609
45.9242
47.5731
48.0584
49.4947
50.973
59.6626
52.3892
47.9996
48.3865
93.0831
57.9292
46.6126
86.9118
90.3723
69.4711
46.0581
46.9403
175.689
48.5533
568.346
49.6647
57.339
56.0082
45.8982
49.6926
50.6177
53.9895
69.1892
115.268
63.7689
49.9178
53.4885
77.3509
46.6958
46.5303
48.4954
133.238
52.4894
52.9425
54.8917
45.8699
45.6827
48.7003
69.1029
50.7637
46.5352
46.2426
46.3036
61.5127
47.2386
45.6301
82.0009
50.9695
79.8808
50.2217
51.5731
46.3679
56.4624
47.1697
46.3423
66.8683
48.033
89.7739
48.5933
47.7857
46.6734
48.1891
99.9511
120.951
46.6133
48.452
52.8917
52.4664
47.8973
68.5629
82.564
50.8942
47.4984
49.6669
46.9377
47.9968
47.4
47.1142
47.0033
49.5172
47.4072
132.085
45.8076
46.2626
62.4307
48.1606
58.3536
45.966
48.4762
48.9087
50.0973
67.9852
58.0191
48.2355
70.533
62.4281
63.8819
985.603
754.518
48.7511
47.2215
50.7327
46.587
47.1974
48.1477
46.7799
54.2687
45.8891
46.2328
46.3231
64.9806
48.4884
47.4534
48.0648
48.3279
88.5507
47.0143
217.279
927.973
47.7838
80.4529
68.9725
47.3189
855.023
69.3598
451.517
45.8845
50.9985
47.1445
47.8793
109.076
65.047
87.6852
64.459
95.316
56.2473
52.0803
48.5799
45.9406
133.537
58.2213
53.4421
116.279
114.045
46.7062
46.8299
54.0007
46.9109
51.2293
54.9718
48.8333
45.3363
46.3234
46.8309
55.0543
45.4083
47.1886
49.8557
79.9626
46.5712
48.1706
52.6971
99.4616
72.4431
47.3174
47.0068
47.2196
69.1325
47.8015
90.8656
107.385
48.6976
46.272
53.5052
47.8808
52.2233
46.9833
47.0492
47.9161
77.5214
48.9765
47.4081
48.0255
46.5925
46.5408
63.2515
45.7527
47.2469
46.8555
47.3375
47.5149
47.4645
47.1257
47.7504
48.1239
47.4347
47.0465
81.4496
47.194
47.0402
47.0279
82.4918
93.0844
107.504
61.5306
47.9904
47.3029
50.5045
45.6926
60.8001
47.1783
50.871
52.6345
52.8621
48.0778
51.8859
53.1255
56.8882
47.5798
52.5887
801.388
681.727
50.381
80.8715
252.017
67.6111
46.6393
51.3603
47.7379
78.5225
55.4708
46.676
88.4722
144.979
46.4316
50.3414
47.3773
62.4473
47.6616
48.5208
49.4866
47.0075
46.5505
86.9702
46.9676
51.1733
51.8674
70.7718
53.9702
46.8454
46.8836
98.821
47.503
50.7447
49.9036
78.4554
64.0482
48.6821
48.1906
49.6082
66.1702
60.6196
87.98
70.04
52.6883
48.9213
48.3981
64.6975
64.7585
47.8931
118.399
49.237
49.6472
48.5418
103.794
89.9178
67.6694
60.5297
46.9922
48.3271
59.5161
51.234
49.7659
63.7461
48.049
90.4294
46.8536
47.2411
70.2792
70.288
47.9127
46.7564
96.651
48.1432
48.6709
47.8661
56.5152
87.4811
47.2544
49.0377
51.5879
55.4592
51.3718
65.2793
63.1375
50.4254
48.6492
49.2553
48.4427
47.459
47.2287
48.4579
49.2726
49.6779
99.7729
144.318
100.573
71.8933
45.4178
45.556
46.0036
48.4432
64.3108
106.164
47.8173
49.0636
49.3538
49.2904
49.6671
99.2806
49.4315
200.159
49.4233
45.8017
46.3209
46.2914
56.0576
61.5119
81.7007
49.3582
78.2286
122.788
48.7413
47.7748
47.4751
59.7614
46.5239
96.8738
48.118
47.2943
68.8687
47.9683
48.803
96.4485
47.4589
57.548
47.6082
64.5265
48.1125
45.9036
46.7571
45.9484
46.2107
46.6525
49.4067
45.8624
45.6024
46.3523
45.9502
46.1466
116.997
46.194
59.6952
66.2821
70.6588
46.7672
142.428
68.1841
60.331
52.3664
85.2026
144.415
52.5666
48.8853
47.4014
69.0752
123.579
59.3933
48.4138
82.2727
122.75
107.337
56.4423
55.4775
55.9956
97.3431
71.4233
82.6596
73.4358
46.8364
65.2777
123.885
47.196
65.8021
50.1518
51.5313
83.9779
65.2468
54.1184
50.4951
47.0794
84.592
100.715
51.0689
108.735
108.193
52.281
86.4189
96.8887
45.8337
115.453
45.8836
49.2553
493.418
75.2092
61.0537
46.2989
52.2705
52.837
52.5838
52.758
1003.09
69.135
103.965
67.7039
98.1365
100.38
97.7566
98.2089
48.3898
53.9535
46.322
50.4635
60.9027
48.6712
47.178
45.1926
66.4938
48.5639
58.1026
63.2984
47.1527
48.5043
49.3444
47.4138
48.3709
52.4232
48.4679
65.6514
53.3363
53.5379
47.179
46.287
87.6806
48.3664
135.678
49.628
149.492
84.7808
60.2365
190.019
136.35
65.9021
47.2891
59.0332
47.311
119.613
64.8043
50.235
49.9039
47.0268
70.978
56.9596
54.2581
99.7299
72.6092
46.8196
47.2925
46.7126
91.3028
49.9969
46.8492
67.9314
59.1207
48.5873
46.5577
126.487
46.903
46.7651
46.1795
46.1744
48.9208
46.6782
46.8964
45.8489
47.8653
48.5835
46.0213
45.8148
51.7838
93.9073
56.9137
55.9194
48.4429
46.2493
49.5122
48.3025
47.1096
46.759
55.8579
48.3712
46.6528
48.722
47.091
76.7644
47.8535
49.1191
54.3452
55.1843
45.3955
46.0866
47.1237
78.821
49.1581
47.4476
47.1045
47.3531
55.9468
49.7953
47.9746
50.8503
50.5748
51.1268
47.0088
48.839
46.4882
49.519
51.1561
46.8256
52.6781
69.6038
47.9687
48.5399
86.7521
55.9738
54.6745
49.1699
45.8599
48.0859
47.9486
46.9956
51.1678
46.9093
48.3971
50.35
48.6213
46.8873
46.6708
46.3583
52.0691
51.143
68.6394
47.5749
48.8631
51.3634
49.3025
48.5447
48.5113
48.652
47.8409
58.1064
87.1612
57.7002
58.8886
47.1194
45.608
80.6424
75.1984
46.455
106.209
61.5903
60.3934
47.8946
47.2795
47.6429
47.2869
47.5004
47.8033
82.9989
47.2804
136.862
87.4182
49.7598
310.491
105.469
45.3964
59.6554
54.0611
45.2576
46.5761
45.4102
142.595
908.159
68.7828
51.5756
86.2428
217.917
45.9882
78.0605
47.3337
51.9573
199.638
138.743
61.8837
48.6208
62.5455
48.6861
48.764
48.0722
51.6213
47.2358
47.8099
52.6351
76.0954
49.4661
81.8506
47.4754
67.5457
58.8518
52.4064
203.406
72.9468
88.3241
987.867
991.588
47.5601
46.1111
128.826
55.4648
47.5554
56.0151
102.4
62.6912
51.5441
47.309
54.7139
121.147
54.9823
81.7953
52.9062
56.114
72.126
54.9413
46.0235
46.6299
69.7531
46.444
46.125
117.66
125.323
48.1527
50.0651
60.2879
46.6679
47.0924
69.5536
82.7645
71.049
87.2498
45.5224
73.0286
75.6137
621.36
51.3797
95.9524
66.5331
73.0518
81.9505
53.5684
59.8719
54.7754
51.0099
48.2013
48.2815
50.8204
56.0967
47.0341
53.0868
49.9638
49.1664
48.7419
45.7476
46.5575
56.4975
124.061
52.752
45.8931
62.4419
59.8386
45.908
92.9913
46.3438
47.7434
101.932
66.214
53.9139
50.5927
64.1698
74.5943
56.5508
65.4628
66.4185
47.7418
47.3553
47.6596
46.861
45.7632
46.6331
46.5635
46.8215
45.9498
45.757
46.1563
46.042
56.1813
47.0774
46.9689
48.6575
52.0985
47.6734
48.1325
47.3691
46.6428
46.8093
47.9812
55.7109
47.57
47.4685
46.6259
47.6516
58.0569
58.9524
54.9751
46.9195
47.4854
46.8905
66.8054
65.3409
46.4592
90.364
75.2407
47.9693
50.8104
47.0466
61.1181
103.682
46.5845
48.5214
47.5091
47.5402
48.2954
46.8627
47.0931
47.2173
48.8033
46.2103
54.3803
77.3355
46.6978
48.8876
51.7673
47.1698
49.2889
50.4636
47.8288
46.7881
47.6476
46.7663
47.5708
48.3675
49.7932
46.235
55.7748
47.6332
47.6016
47.0758
48.1525
53.1054
49.1147
57.6378
47.9999
953.095
48.0424
53.0312
55.1295
56.7329
59.8419
82.8479
46.5817
92.3937
54.9945
62.369
100.497
68.0166
51.1332
46.9991
55.3166
48.433
139.344
46.9846
125.677
64.1991
46.4662
60.1843
48.9982
49.4542
45.5531
45.4855
49.0865
46.4059
53.2002
45.3665
49.4669
47.0465
47.9345
46.3951
82.7222
48.9745
71.4508
855.695
76.3634
53.6142
541.636
48.9738
75.2321
49.2256
46.9184
78.711
102.187
62.1425
46.7149
60.9544
46.9789
59.4237
87.5031
46.8481
46.9336
95.0656
102.411
78.1573
46.6784
46.8587
47.3888
46.7804
80.9248
48.6767
47.1903
62.2375
47.2126
48.5404
47.0137
47.8346
46.175
45.5086
46.7508
46.7634
46.1826
47.0889
48.1132
65.7168
51.7738
61.6675
64.063
46.5119
54.0148
45.8376
73.2453
47.405
64.3997
69.7141
48.2774
49.4586
65.4064
48.3996
47.6098
47.543
47.0066
46.3138
86.1301
48.6932
49.3518
48.6895
63.9604
59.5903
73.0236
100.46
47.3261
54.112
47.2352
88.7408
47.4158
47.5444
47.5536
78.7455
101.256
106.447
47.9047
83.3942
55.7596
109.781
53.5186
61.1451
51.9174
56.8721
62.3305
93.6671
75.2526
101.363
124.278
57.3688
47.3954
46.5715
49.2325
48.0785
48.7382
46.6887
169.132
59.0604
46.811
47.4918
49.1416
47.1595
47.7111
47.1314
47.2173
54.3166
77.6308
46.9479
47.9998
59.8845
65.3247
68.6728
52.112
47.4716
79.3881
88.083
48.3987
49.2466
49.2732
48.5934
91.3611
69.3259
48.6802
49.3253
49.6776
49.3201
56.5647
51.6492
85.5999
49.0064
54.6191
51.763
92.3627
47.2492
66.9261
49.2645
47.1117
46.6385
82.0829
73.0474
110.034
46.5805
60.2107
49.5933
121.242
46.8347
47.8263
110.141
46.6135
49.3247
51.3093
48.6099
48.6628
82.0394
46.9571
47.5742
76.8868
86.1607
47.6229
47.9847
73.6667
80.8926
104.523
48.2143
47.5737
48.1613
57.0693
67.6144
66.9294
48.4517
65.6946
56.7866
57.7147
47.7152
48.6187
74.6862
73.38
60.4791
51.7754
71.6114
64.1882
48.998
54.5435
55.8886
49.49
64.4772
91.2385
89.7289
56.827
48.6094
49.2736
50.8658
51.0598
80.362
55.0465
51.9212
47.8079
49.3074
51.9577
48.145
50.0587
106.001
49.9406
106.567
59.8038
68.9551
62.9861
50.8403
55.2018
47.8341
48.691
48.0692
91.7564
47.9767
48.6638
47.0153
119.76
67.7835
49.9528
45.5272
51.3745
69.5422
47.0402
47.2302
47.245
47.3573
47.8695
52.4253
86.8916
57.207
46.5437
47.0031
46.5813
46.8798
47.0705
97.901
48.0416
50.8746
60.8647
84.2136
84.8209
47.0285
993.328
164.504
47.4361
52.052
69.0339
46.715
46.6826
47.3081
47.4451
49.2384
48.8431
57.4917
56.4591
50.7558
50.0026
52.9931
66.0975
72.5605
691.524
56.8251
52.8725
59.6901
47.5623
62.6662
60.7098
72.5255
62.7543
50.4446
49.1062
46.7223
84.628
47.0509
57.4691
47.1972
54.6387
62.7375
48.2354
47.2176
53.9088
95.6271
48.3747
95.7265
47.1162
48.0707
79.9888
46.475
47.5327
48.674
48.4105
88.9103
48.0713
46.463
100.183
50.4811
122.668
49.4039
49.4076
48.4236
49.357
47.5299
48.5853
49.344
47.9074
47.3053
47.8212
89.6154
68.8531
53.085
56.2617
57.3086
53.8668
55.4055
47.108
45.8855
46.5623
52.9386
47.435
52.4905
49.3026
82.6261
68.4214
51.5864
63.7277
78.875
50.7222
60.5509
99.0914
49.8198
69.6397
62.3838
66.3807
49.7131
72.1595
88.355
107.972
152.268
46.5728
45.8978
49.8102
46.6265
46.6484
46.3986
47.4784
87.466
74.8098
53.0036
48.8522
51.4033
49.2563
56.0311
122.987
46.9866
50.9187
47.4063
47.9143
46.9114
51.6691
88.33
93.848
47.9019
47.2681
53.3511
68.2027
47.9732
46.7216
47.9354
47.9024
51.0319
61.0708
47.7345
55.7744
50.4036
74.0993
46.8191
47.0993
53.1341
83.742
55.9222
56.3374
47.28
47.2872
45.862
113.009
49.0401
47.3724
50.4344
48.3095
51.9097
56.6356
46.397
50.0904
110.251
48.1392
77.8308
52.3467
85.9402
87.4568
58.8491
61.8075
52.1375
52.6532
54.9378
45.5942
46.3257
49.4966
51.154
51.3765
52.4067
48.5959
47.7345
46.3417
46.0341
52.0487
56.5171
62.5453
47.4757
61.7178
46.1276
47.015
73.6369
48.8204
46.8289
47.8473
47.2301
46.9919
46.6528
55.3967
73.9205
47.7847
48.5253
53.9788
87.8505
46.2078
46.1374
52.5504
59.0497
52.0432
89.3075
66.825
47.2171
46.7377
72.8921
161.764
47.1753
46.9577
47.4847
48.4046
87.7232
110.563
46.7502
47.6128
48.8775
48.4041
54.076
47.7358
47.8015
48.0694
45.9845
561.24
141.457
162.804
49.45
48.6277
59.8123
54.0107
47.1204
82.8213
98.9938
51.4401
48.4525
49.7128
60.3989
50.0695
49.5199
54.2505
109.445
51.0698
53.3312
48.1186
48.646
48.0908
50.5476
74.3818
106.244
222.272
48.376
57.7322
105.693
106.012
52.2676
47.8037
45.7843
116.403
47.876
52.9978
47.3559
47.0307
50.1855
71.9068
58.7261
46.9353
48.2957
48.4324
58.4324
47.5139
48.4771
47.0693
47.9283
57.4895
57.7429
92.4247
100.86
54.2911
54.6823
51.258
46.989
67.3337
49.2813
49.9162
68.9703
70.1792
58.42
89.2166
45.8308
137.948
62.3021
85.2761
88.5212
75.415
154.327
107.228
106.171
58.1905
45.9881
102.612
86.5364
46.7807
103.315
49.2423
85.8677
48.1077
70.5834
54.8119
123.974
86.777
103.211
101.634
142.444
53.651
57.2907
116.824
80.4356
158.193
47.4256
60.7749
117.068
84.2029
117.495
66.5085
46.4206
45.4831
50.6405
118.541
46.0125
51.0507
47.813
52.4974
48.6637
48.8832
63.0837
49.565
109.36
47.7721
46.3778
47.4201
142.687
52.3111
53.1901
46.6429
192.999
49.2635
48.9435
49.372
48.9354
48.7867
200.584
115.416
998.85
50.8968
49.1052
49.2285
53.3942
53.5827
48.1505
46.6212
45.9712
47.1989
108.455
46.9371
55.2038
50.6305
48.1556
49.3774
56.5407
47.6817
47.6188
51.5847
49.24
49.1933
85.0816
134.211
71.6841
88.7424
48.7032
60.6535
51.0389
49.405
49.512
81.6785
132.091
62.3432
130.029
85.7974
109.35
49.028
49.3694
86.7207
48.0365
48.3081
47.0161
46.9419
47.6725
47.2146
47.2569
47.7378
45.6736
71.6365
52.3651
64.3984
94.8492
46.807
51.4966
93.6715
72.6493
80.0953
47.0367
67.777
49.0873
46.8981
47.9278
76.59
77.5414
49.9509
94.3497
104.586
122.832
68.3404
70.1529
54.7339
62.1479
46.9193
48.2714
61.4803
77.419
47.5032
47.3418
62.4444
150.843
109.015
111.511
64.2213
49.7755
107.507
48.6864
96.4464
47.2297
65.9796
51.6525
47.9028
48.6631
48.0487
49.2331
46.905
46.9364
47.0005
47.2987
51.2328
123.644
48.454
48.9677
56.0133
48.5932
47.6166
47.2811
62.7065
47.5105
47.8654
49.2022
47.473
48.5125
68.6187
47.012
47.4715
47.962
48.1618
93.8041
60.9954
70.7908
68.8586
61.8399
63.1598
58.8239
46.0593
45.9819
64.4905
97.2919
78.3664
61.8282
53.8888
53.6485
55.1994
47.3044
46.6889
46.9467