/*--------------------------------*- C++ -*----------------------------------*\
| =========                 |                                                 |
| \\      /  F ield         | OpenFOAM: The Open Source CFD Toolbox           |
|  \\    /   O peration     | Version:  2506                                  |
|   \\  /    A nd           | Website:  www.openfoam.com                      |
|    \\/     M anipulation  |                                                 |
\*---------------------------------------------------------------------------*/
FoamFile
{
    version     2.0;
    format      ascii;
    arch        "LSB;label=32;scalar=64";
    class       volScalarField;
    location    "0.0882685";
    object      nut;
}
// * * * * * * * * * * * * * * * * * * * * * * * * * * * * * * * * * * * * * //

dimensions      [0 2 -1 0 0 0 0];

internalField   nonuniform List<scalar> 
3927
(
0.00190885
0.00222334
0.000232987
0.00249783
0.00360204
0.000458799
0.000602623
0.0035394
0.00648012
0.0040789
0.00431998
0.00542156
0.00743194
0.00101785
0.00308424
0.000774205
0.00346947
0.00743424
0.00382784
0.000934596
0.000826761
0.000452592
0.00115934
0.000903236
0.00338526
0.00277634
0.00486034
0.00558228
0.000623109
0.00217936
0.00258599
0.00653417
0.00426007
0.00667371
0.00532509
0.00492955
0.00152013
0.00507652
0.000714126
0.00315409
0.00590924
0.00109581
0.00684564
0.00170594
0.00338369
0.00193773
0.00192503
0.000787232
0.00555482
0.00246468
0.00449994
0.00144501
0.000939659
0.00608206
0.00633602
0.00650252
0.00301158
0.00122647
0.00417992
0.0030849
0.000717916
0.00462404
0.00167709
0.00286743
0.00376014
0.00546091
0.00528976
0.00357869
0.000957745
0.00143737
0.00514762
0.00223867
0.000827175
0.0011243
0.00145545
0.00116871
0.001235
0.00166597
0.001879
0.00132502
0.00216386
0.000880311
0.00439615
0.00359799
0.00162214
0.00587665
0.00430924
0.0013463
0.000348787
0.000596872
0.000868634
0.000763899
0.00209005
0.00560387
0.00556562
0.000820909
0.000384925
0.00308877
0.00379483
0.000981558
0.00125112
0.000630305
0.0011909
0.000148339
0.00252738
0.00741052
0.00595218
0.00678353
0.00275079
0.00345539
0.00385036
0.000922357
0.00130574
0.00261826
0.000979475
0.000776453
0.00400487
0.00192709
0.00227705
0.00374103
0.00218345
0.0037601
0.00229588
0.00140282
0.0029339
0.00378347
0.00314569
0.00206752
0.00185456
0.00225001
0.00224158
0.00121237
0.000803107
0.000282092
0.000194748
0.00309906
0.00478325
0.00118792
0.0011961
0.00279586
0.000864525
0.000863936
0.00200247
0.00156476
0.00645147
0.000737861
0.000318897
0.00074751
0.00224757
0.00225489
0.00559503
0.00398869
0.00500266
0.00516265
0.00137995
0.00321361
0.000353236
0.00146801
0.00243918
0.00332891
0.00194432
0.0058416
0.00293936
0.00332165
0.000419964
0.00168052
0.000486684
0.000641725
0.0018938
0.00102396
0.00183738
0.000502058
0.000849444
0.000438478
0.00100101
0.000747969
0.00113446
0.000575829
0.000774858
0.00114176
0.00373732
0.00066237
0.00265301
0.000692185
0.000691258
0.00155389
0.00348346
0.000953596
0.000889935
0.00262926
0.00261831
0.00076549
0.000929104
0.00589206
0.00568904
0.000223467
0.00291889
0.000508287
0.000908129
0.00315235
0.0010195
0.000933215
0.0035422
0.00119121
0.00214319
0.000686752
0.003694
0.000543642
0.00317813
0.00341305
0.00132228
0.000738292
0.000661878
0.000787099
0.0024724
0.00162384
0.00234855
0.000924292
0.00236103
0.00108081
0.00134344
0.00168333
0.000859778
0.000840359
0.000705438
0.000761917
0.000844963
0.00252045
0.00105465
0.00738817
0.00209993
0.00432331
0.00286875
0.00309252
0.0035903
0.00356354
0.000517621
0.00573742
0.00353516
0.0010078
0.00344604
0.00193054
0.000754548
0.00149794
0.00268126
0.000595246
0.00646391
0.00230796
0.00747127
0.00370358
0.000815741
0.00247043
0.00285121
0.00472953
0.00468882
0.00243551
0.0041125
0.000943159
0.00113202
0.000996012
0.00246953
0.000778689
0.00357338
0.000993311
0.000922838
0.000719882
0.000592665
0.000606975
0.000916208
0.00613004
0.00101407
0.000717506
0.00358172
0.00308445
0.00448083
0.00141845
0.00192067
0.00238869
0.00241734
0.00344653
0.00131781
0.00195262
0.00593532
0.000539504
0.00125822
0.000917882
0.000912932
0.00075061
0.00166839
0.00137768
0.00145279
0.00145706
0.0014961
0.0036825
0.00389108
0.004682
0.000920734
0.00145663
0.000924268
0.00120012
0.00142492
0.00115683
0.00050477
0.00114138
0.00197924
0.00189228
0.00137403
0.000788028
0.00114831
0.0017622
0.00232454
0.000818756
0.00182887
0.00215341
0.00593736
0.00143627
0.000741085
0.0031467
0.00293998
0.00202472
0.000470639
0.000196864
0.00157452
0.00154189
0.000955672
0.00571575
0.0024562
0.00110182
0.000733137
0.00175344
0.00077542
0.00317201
0.00120428
0.00116384
0.000491515
0.00637812
0.000771276
0.000474552
0.00353469
0.00377987
0.000996685
0.00222801
0.000526929
0.00082436
0.00238923
0.00211148
0.00192103
0.00126266
0.000679881
0.000301035
0.00191555
0.00182774
0.000480905
0.00165409
0.00178418
0.00112422
0.00418112
0.00151151
0.000450907
0.00276746
0.00103475
0.000563808
0.0017331
0.00252638
0.00102119
0.000548238
0.00248657
0.000728029
0.000597214
0.0012738
0.000567918
0.00104267
0.00271932
0.00078932
0.00218673
0.00170084
0.00181146
0.00123223
0.000499971
0.000899252
0.000971998
0.000868424
0.000455064
0.00144789
0.00169654
0.00101184
0.00109394
0.000959399
0.0024245
0.000755159
0.00115318
0.000575516
0.00141615
0.0023588
0.0013683
0.00334243
0.000641305
0.00352206
0.00168997
0.000739268
0.000734411
0.000696589
0.00132963
0.00106342
0.00142814
0.00263934
0.00110212
0.00659574
0.00137787
0.000357848
0.00160253
0.00193612
0.00516898
0.000820189
0.00524157
0.00348273
0.0010021
0.000868309
0.000868248
0.00371696
0.000697719
0.00323523
0.000743789
0.000858997
0.0058935
0.000766856
0.00144701
0.000751197
0.00243047
0.00100533
0.000677505
0.000982339
0.000831191
0.00069416
0.000679349
0.00209255
0.00176794
0.00210176
0.0042576
0.000770697
0.00627412
0.00669803
0.000394834
0.000306295
0.00659379
0.000562882
0.00597744
0.00181956
0.00574761
0.00429125
0.00148071
0.00188801
0.000674245
0.00118348
0.000812787
0.00227863
0.00298
0.000421818
0.00224214
0.00256096
0.00104796
0.00184955
0.00164695
0.00164669
0.00157901
0.00111909
0.00360397
0.000353319
0.000240984
0.000336342
0.000470048
0.0014983
0.000392636
0.00165364
0.000874871
0.00140894
0.000576635
0.00142317
0.00290014
0.00662109
0.00277488
0.00231175
0.00567168
0.00398998
0.00479672
0.00261498
0.000178213
0.000777929
0.000786442
0.00319782
0.000999406
0.00362603
0.00487024
0.0038854
0.00171194
0.00164908
0.000794716
0.000751461
0.00123038
0.000455719
0.000772604
0.00157353
0.00139517
0.000601206
0.00198989
0.000418803
0.00143994
0.00189593
0.00158187
0.00175209
0.00098341
0.00149901
0.00182359
0.00406336
0.00287142
0.0012516
0.000324734
0.00255273
0.00319333
0.00103867
0.000581009
0.000243959
0.000578351
0.000826694
0.00261789
0.0021064
0.00110406
0.00744426
0.000722944
0.00143036
0.00134712
0.00148071
0.000762994
0.00127876
0.00172187
0.00168934
0.00357478
0.00335605
0.00159235
0.00118052
0.000657412
0.00219841
0.00156626
0.000752012
0.000793197
0.000757346
0.00207423
0.000554971
0.000889358
0.00740405
0.00076197
0.00058452
0.000779857
0.00740374
0.00218628
0.000940296
0.000882959
0.000699034
0.00152018
0.00130265
0.000343676
0.000573961
0.000323519
0.00065784
0.000730494
0.000456352
0.000312139
0.00102978
0.000440764
0.000643987
0.00249374
0.000586019
0.00505178
0.00560944
0.00348797
0.00322071
0.00329337
0.00302166
0.00332523
0.00353383
0.00528876
0.00229245
0.00378822
0.00340263
0.00345391
0.00352124
0.00364535
0.00056731
0.000996916
0.00105263
0.00371713
0.00441617
0.00208479
0.00317118
0.00185919
0.00472007
0.00162395
0.00178381
0.00107764
0.00138865
0.000655783
0.000964826
0.000671706
0.000500409
0.000827276
0.000651741
0.00139912
0.00255295
0.00261256
0.0022293
0.00127452
0.00150694
0.00311179
0.00261137
0.00303336
0.00308055
0.0073948
0.00424769
0.00201291
0.00194763
0.00197667
0.00134722
0.00154646
0.00131323
0.00166897
0.000615532
0.000950468
0.00632643
0.00069672
0.000548232
0.000537543
0.000586228
0.000550725
0.00103842
0.000885922
0.00105228
0.00175369
0.00125167
0.00213063
0.00153649
0.00212776
0.00745196
0.00282535
0.00255902
0.0074493
0.00475862
0.00289037
0.00519791
0.00606041
0.00296219
0.0023993
0.00466426
0.00158993
0.0074827
0.00383948
0.00253515
0.000598026
0.000970363
0.000678027
0.000409056
0.00301012
0.000324516
0.000790673
0.001049
0.000718263
0.000667396
0.000464181
0.00311399
0.0026674
0.00224838
0.0034377
0.00475922
0.00464456
0.0034924
0.00390203
0.00515602
0.00355115
0.00524256
0.00396021
0.000742077
0.000580485
0.00045507
0.000759469
0.000561541
0.000766282
0.000796642
0.00100913
0.00078087
0.000780535
0.00109049
0.000983049
0.00387715
0.00422715
0.00403893
0.00140629
0.0016761
0.0011984
0.00129106
0.0018136
0.0031469
0.00292779
0.00237349
0.000671816
0.00202963
0.00104996
0.00320978
0.00173961
0.0018745
0.0016172
0.00742101
0.00462517
0.00151807
0.00420673
0.00456236
0.00163875
0.00178075
0.00254241
0.00189989
0.00251678
0.0022931
0.00229142
0.00220627
0.00513726
0.00591826
0.00529604
0.000284737
0.00146162
0.00146183
0.000332514
0.00147729
0.002722
0.00165612
0.00142189
0.00208565
0.000891405
0.00141184
0.00117063
0.000957487
0.000891798
0.00545718
0.000612628
0.00360639
0.00128062
0.000816456
0.00155673
0.00141867
0.00169836
0.00208648
0.000908529
0.00340106
0.000781624
0.0018065
0.00032471
0.000897399
0.000426091
0.00164569
0.0020542
0.000819973
0.00283123
0.0017165
0.000291854
0.00311435
0.0019145
0.00120749
0.00131245
0.00074926
0.000388908
0.0011599
0.0011707
0.000540991
0.0014619
0.000832609
0.00176381
0.000953994
0.000951353
0.00100534
0.00304799
0.00145915
0.00278093
0.00160058
0.00283189
0.00207669
0.000435336
0.000808673
0.000553892
0.00125094
0.000703107
0.000252896
0.000730468
0.00127916
0.00219478
0.00251193
0.00143378
0.000709593
0.00256477
0.00103903
0.000405445
0.00123331
0.000686111
0.00102813
0.000416742
0.000718313
0.00286128
0.00162762
0.00042016
0.000667125
0.000545071
0.000915839
0.0038458
0.000843426
0.00102903
0.000630037
0.000214208
0.00323155
0.000278396
0.00135699
0.000810638
0.000785423
0.00176704
0.00278418
0.00362801
0.00685056
0.00352284
0.00290386
0.00439744
0.00414213
0.00133566
0.00470193
0.00649947
0.00275804
0.000913795
0.00107411
0.00349361
0.000734014
0.00143405
0.00635083
0.00214615
0.00145474
0.00148519
0.00126197
0.00147796
0.00166151
0.000445192
0.00177981
0.00473824
0.00164725
0.00181424
0.00320854
0.0010626
0.00110842
0.000682838
0.00201691
0.000823983
0.000859032
0.000757355
0.00280343
0.00057954
0.00584463
0.00291668
0.000382241
0.000596447
0.00105212
0.000905349
0.00156091
0.00188885
0.00255462
0.00118422
0.00128501
0.000992862
0.00125564
0.00402453
0.00077068
0.000836355
0.00212957
0.000766539
0.00198141
0.000783869
0.00141536
0.00111298
0.000146332
0.000665229
0.00174778
0.00342351
0.00166186
0.00686883
0.00133923
0.00214042
0.000630606
0.000695443
0.000637655
0.000561696
0.000613545
0.000862354
0.000581706
0.00113691
0.00073969
0.00321209
0.000571347
0.00426831
0.00496896
0.000653032
0.00342937
0.00747002
0.0036477
0.000863965
0.000800283
0.00421328
0.00427466
0.00103561
0.000444828
0.0050434
0.0020384
0.00169112
0.00359827
0.00193108
0.00310951
0.000627349
0.00101469
0.00435932
0.00450672
0.00147457
0.000805664
0.00689429
0.00742642
0.000648356
0.00106393
0.00356905
0.00165471
0.000998406
0.00281057
0.00743404
0.00197153
0.00740612
0.00356806
0.00228534
0.00275309
0.000911447
0.00073733
0.000485757
0.00106597
0.00156366
0.00188319
0.000706874
0.00147577
0.00558978
0.00323812
0.000992791
0.000655078
0.000667744
0.00297625
0.000634482
0.00196804
0.00142492
0.00190147
0.00653374
0.00443244
0.00741769
0.001828
0.000195449
0.00652748
0.0014592
0.00266647
0.00354236
0.00562688
0.00168791
0.00182116
0.00391009
0.000312595
0.00576402
0.00201469
0.00301378
0.00348009
0.0013859
0.00308544
0.00149217
0.00139285
0.00461689
0.00362388
0.000362001
0.00538505
0.000229794
0.000805667
0.00252443
0.00170503
0.000899227
0.00189885
0.000568707
0.00137227
0.00317622
0.00335574
0.00285309
0.00168302
0.000917078
0.000683481
0.00141168
0.000550896
0.00139977
0.00027632
0.000525866
0.00462456
0.000683501
0.00109448
0.000810818
0.000803639
0.00109261
0.000963177
0.0025723
0.00119028
0.000670802
0.00443232
0.00123312
0.00098697
0.000855399
0.00212954
0.000841732
0.00390091
0.00115576
0.00235129
0.00108226
0.000940399
0.000923842
0.00248767
0.00212681
0.00256626
0.00171128
0.00125733
0.00289843
0.00330083
0.000808709
0.000749546
0.00112298
0.000625202
0.00122199
0.00089122
0.00149741
0.00110897
0.00108687
0.000712709
0.00748058
0.00242654
0.00352164
0.000834969
0.000864023
0.00025786
0.000675628
0.00287933
0.000422928
0.00130824
0.000381421
0.000452471
0.00190982
0.00227392
0.00200176
0.00247697
0.00230029
0.00115412
0.00170376
0.000578195
0.000956126
0.00148196
0.000684862
0.00100448
0.0011564
0.00581989
0.000830592
0.000902946
0.00108062
0.00105065
0.00190234
0.000891879
0.00291454
0.000584232
0.00139654
0.00179176
0.00192659
0.000888665
0.000552717
0.000951174
0.000856399
0.00207211
0.00276068
0.00580892
0.000457732
0.000376679
0.000350647
0.00284831
0.000808399
0.000243646
0.00333188
0.000411538
0.000919159
0.000630983
0.00164417
0.00626652
0.00526847
0.00436633
0.000129869
0.000922529
0.000736816
0.000637233
0.000715369
0.000237048
0.00236359
0.00133844
0.00215243
0.000153641
0.000602241
0.00130553
0.00158621
0.000549408
0.00239433
0.00214612
0.0018749
0.00168875
0.00122525
0.00166815
0.00237778
0.00225347
0.00274254
0.00376969
0.00169442
0.0019606
0.0027418
0.00556442
0.000672659
0.00246638
0.0019727
0.000965679
0.000857051
0.000902858
0.000877893
0.00149945
0.00118055
0.00309977
0.000610113
0.00458816
0.00231531
0.00046415
0.00244252
0.00134006
0.00241819
0.00364629
0.00064975
0.000525549
0.000991301
0.000913285
0.000567167
0.000957925
0.000937625
0.000925969
0.00256105
0.00377957
0.00495087
0.00179242
0.00444182
0.00194733
0.00211827
0.00217502
0.00103548
0.00188616
0.00278991
0.0014976
0.000534596
0.000651461
0.00566305
0.000603274
0.000669454
0.000278423
0.000513013
0.000504602
0.000806721
0.00529154
0.00224684
0.00389101
0.00570191
0.00355046
0.00078063
0.00273714
0.00280272
0.00530831
0.00109337
0.000696566
0.000582224
0.000911691
0.00213724
0.000547864
0.00193337
0.00237047
0.00315307
0.000719747
0.00280708
0.00126681
0.0016032
0.000890758
0.00192073
0.00136038
0.00106014
0.00100653
0.0038658
0.000349335
0.0018935
0.00118738
0.00414943
0.00135192
0.000971192
0.00314295
0.00152233
0.000866501
0.000369962
0.000896603
0.00229371
0.00167279
0.00351066
0.00227083
0.00307848
0.00368195
0.0023517
0.00144939
0.00106516
0.000997943
0.000764814
0.00187809
0.00109858
0.00116447
0.00285272
0.00102976
0.00157873
0.00222737
0.00154467
0.00269585
0.00222681
0.000300568
0.00197302
0.000629318
0.0014934
0.00113339
0.00177669
0.000988425
0.00118511
0.000716916
0.000917316
0.00425681
0.0012536
0.006646
0.00660985
0.00652594
0.00640779
0.00658616
0.00156062
0.0023738
0.000267143
0.000919291
0.000696736
0.000720537
0.00088953
0.00185479
0.000784307
0.00111732
0.00283745
0.00501033
0.00180663
0.000804075
0.000554446
0.000234416
0.00205877
0.00523916
0.00650401
0.000751688
0.000823888
0.00134509
0.00200071
0.002141
0.00204493
0.00111148
0.00131601
0.000748233
0.00164232
0.000330688
0.000513185
0.000775117
0.00733069
0.00349428
0.000895935
0.00292579
0.00439343
0.00330879
0.00359678
0.00635946
0.00132203
0.00369081
0.00359602
0.00666668
0.00101637
0.00378787
0.00145024
0.00567499
0.000662551
0.000592656
0.00026454
0.00116831
0.000255458
0.00680648
0.00136926
0.00174268
0.00141382
0.00221818
0.000876686
0.000987155
0.00220206
0.00133824
0.00134337
0.000764056
0.00462893
0.000703485
0.00177391
0.000581613
0.00155607
0.00351253
0.00746668
0.00597381
0.00311818
0.00406683
0.00436345
0.00445609
0.00724155
0.00659012
0.00725647
0.00679857
0.0028743
0.00262527
0.00126626
0.00283866
0.00349964
0.00441
0.00323576
0.0073483
0.00447498
0.00576703
0.00400322
0.00326791
0.00421954
0.00466904
0.00487566
0.00734305
0.00289577
0.0035392
0.00515293
0.00147135
0.00354364
0.00395959
0.00570857
0.00688555
0.00573066
0.000787524
0.00187636
0.00503157
0.00335725
0.00306575
0.00623764
0.00668846
0.00131324
0.00222089
0.00601238
0.00310804
0.00459601
0.00457671
0.00451891
0.00482352
0.00598986
0.0047867
0.000801775
0.00250358
0.00100498
0.00378687
0.00226381
0.00741851
0.00279922
0.000572286
0.00361685
0.000619792
0.000995185
0.00387605
0.00677303
0.00295117
0.00104107
0.00483618
0.00147252
0.00287263
0.00274773
0.000379263
0.000931054
0.00221508
0.00167124
0.0012939
0.00113569
0.000502222
0.000832252
0.000669404
0.000272418
0.000793042
0.000447446
0.00111521
0.000416974
0.00472788
0.000597322
0.00426951
0.000901728
0.000218452
0.000811552
0.000656482
0.000582137
0.000841925
0.000514255
0.0010084
0.00138736
0.000763456
0.000360722
0.00236944
0.00152554
0.000782186
0.00191356
0.00339303
0.00295174
0.00137719
0.00109945
0.0011168
0.000877243
0.000899137
0.000501323
0.000818697
0.000629951
0.000721068
0.0007655
0.00103021
0.000825793
0.000892941
0.000187281
0.00746267
0.000722769
0.0047336
0.00740374
0.00744452
0.00104307
0.000461894
0.000220625
0.000336443
0.000944153
0.0045778
0.00422538
0.00392346
0.00334049
0.000457954
0.00217693
0.00104205
0.000417326
0.000645964
0.00045106
0.000686324
0.000570408
0.00488198
0.00612571
0.00370844
0.000889745
0.000188719
0.00596451
0.00374585
0.000787263
0.00345745
0.00135465
0.0032901
0.000690136
0.00307673
0.00119717
0.000454306
0.000674446
0.00353549
0.000293519
0.00146433
0.000573552
0.00672021
0.00495504
0.0036632
0.000508247
0.0001982
0.000154212
0.000521591
0.00238127
0.000841286
0.00141215
0.000712585
0.000664434
0.000174101
0.00108208
0.000608227
0.000615244
0.00087377
0.000918484
0.00139896
0.00279592
0.000835766
0.000767138
0.000696356
0.000923688
0.000283235
0.00215582
0.00184384
0.00741773
0.00496633
0.00348987
0.00288455
0.00376065
0.00373686
0.00434204
0.000608055
0.000557219
0.000911199
0.000638611
0.00105872
0.00291401
0.00381873
0.00522386
0.00521598
0.00242261
0.0034244
0.00133962
0.00177189
0.00445515
0.00446551
0.0007747
0.000766598
0.000910404
0.00129259
0.000967411
0.00278539
0.00206
0.000605502
0.00395843
0.00303564
0.00137061
0.00206338
0.00285326
0.00487521
0.00110179
0.000832868
0.00511144
0.00248259
0.00376828
0.00390823
0.00143973
0.00380435
0.00414485
0.00296237
0.00622467
0.00194324
0.00188656
0.000712072
0.00294698
0.00187386
0.00614502
0.00416055
0.00587148
0.00612572
0.00656172
0.00133249
0.000904966
0.00135744
0.00123975
0.00287786
0.000931311
0.00160147
0.00292085
0.0014064
0.000754161
0.000915948
0.00088115
0.00228933
0.0030045
0.000641372
0.0020388
0.000178239
0.00201093
0.000529268
0.000914126
0.00329439
0.00159574
0.00361688
0.000664137
0.000880762
0.000593839
0.00334665
0.00403047
0.00223486
0.00100274
0.00118271
0.0013524
0.00560442
0.00574312
0.00159295
0.000661606
0.00330562
0.000858447
0.00437907
0.000970318
0.00243945
0.000925845
0.000332602
0.00122847
0.00138728
0.00428802
0.000387122
0.00097361
0.00187694
0.00209211
0.00212802
0.00367905
0.00140751
0.00208118
0.00183147
0.00276015
0.00358943
0.0030118
0.00124382
0.00298418
0.00447559
0.0013407
0.000585283
0.00256489
0.000134667
0.000217487
0.00100452
0.000514474
0.00111585
0.000556037
0.00206786
0.00245544
0.00352658
0.00122906
0.00254788
0.00134062
0.00249592
0.00310821
0.00102109
0.00107616
0.00124451
0.000851324
0.000769242
0.00022768
0.00145372
0.00217572
0.000648632
0.0045764
0.00278422
0.000610803
0.00172883
0.000593165
0.000516446
0.00220877
0.00133852
0.000492222
0.00133342
0.000233333
0.00231671
0.000856763
0.0031533
0.00210723
0.00123343
0.000619842
0.00106547
0.0006211
0.000871904
0.00262614
0.00284353
0.00181503
0.000304999
0.00216775
0.00158789
0.00114442
0.000487681
0.000529861
0.000168342
0.00114659
0.000614573
0.00274818
0.00242372
0.000953642
0.000570869
0.00116631
0.00136524
0.00315476
0.00176581
0.0016032
0.00165202
0.00128793
0.00249337
0.000501118
0.000761906
0.00234896
0.000198003
0.00245103
0.000840493
0.00174752
0.00146729
0.00495567
0.00123398
0.00191382
0.00202175
0.00313681
0.00361765
0.00214786
0.00195604
0.00244807
0.00398791
0.00142923
0.00139266
0.00141119
0.00133828
0.00138791
0.00246443
0.00413283
0.00143531
0.00213889
0.00280943
0.00216385
0.00165852
0.00131344
0.00156185
0.000969941
0.00100606
0.00132208
0.0014904
0.00140976
0.00131881
0.00119466
0.00150774
0.000765564
0.00128279
0.00144881
0.00133211
0.0013216
0.00157192
0.0012212
0.00296392
0.000479805
0.00271809
0.001428
0.00362345
0.00316955
0.00284823
0.00739306
0.00185704
0.00349183
0.00341057
0.0036383
0.00404707
0.00147031
0.00126473
0.000918583
0.00129482
0.00177465
0.000845235
0.00130033
0.000780077
0.000678847
0.00187357
0.000812874
0.000731065
0.000710072
0.000644739
0.000881482
0.00586841
0.00036672
0.00604999
0.00673459
0.00669069
0.000635832
0.000884666
0.000948076
0.00126724
0.00101619
0.000352285
0.00147591
0.00340458
0.00351339
0.00389102
0.000946675
0.00124536
0.00119551
0.00352601
0.000813813
0.000692582
0.00112352
0.000689917
0.000839384
0.000804262
0.000841098
0.00202005
0.00223682
0.00459476
0.00347872
0.00140298
0.00105161
0.000504444
0.00132529
0.0027687
0.00214204
0.00250237
0.00156614
0.00117137
0.000414617
0.0010349
0.00182111
0.00305025
0.00288659
0.00382321
0.00141622
0.000505151
0.00121194
0.00746225
0.00736452
0.00171835
0.00497784
0.00744654
0.00652203
0.00649438
0.00746273
0.00518434
0.00511623
0.00178919
0.00175962
0.0053511
0.00123717
0.00522936
0.00744506
0.00746536
0.00469332
0.00554654
0.000764849
0.00242327
0.00064873
0.00248363
0.00280535
0.0020767
0.000337996
0.00150411
0.000874702
0.000786102
0.00202153
0.000899055
0.000706409
0.000808121
0.000550846
0.000647476
0.0013043
0.000827112
0.000862439
0.00444626
0.00649196
0.00320707
0.00217504
0.00146213
0.00104597
0.00188821
0.00116534
0.000947764
0.00132046
0.00506924
0.000977882
0.000969471
0.00185244
0.000795507
0.00160664
0.00158088
0.00169841
0.000758716
0.000355282
0.000710809
0.000571695
0.000620954
0.000245813
0.00748458
0.00741911
0.0074663
0.00332604
0.00679115
0.00603706
0.00583681
0.00238825
0.0035161
0.00097243
0.00109822
0.00152589
0.000671489
0.00109227
0.000720368
0.000985984
0.0012298
0.00102713
0.00137215
0.000642824
0.000850313
0.0016222
0.000874143
0.000767517
0.00132411
0.00221745
0.000595627
0.000845847
0.000834369
0.00100354
0.000557347
0.00748563
0.00435591
0.00345973
0.00742442
0.00742825
0.00747637
0.00741002
0.0022753
0.00748151
0.00741636
0.00748067
0.00306763
0.00480901
0.00329233
0.00243809
0.00368896
0.00341583
0.00313555
0.00182357
0.00352546
0.00417323
0.00111355
0.00303368
0.00379169
0.0024141
0.00341919
0.00367697
0.00070134
0.000725491
0.00587008
0.00312192
0.00351742
0.000369577
0.00640546
0.00673237
0.000831873
0.00347539
0.00132468
0.000785838
0.00447639
0.000937022
0.000920229
0.00151119
0.00252572
0.00384805
0.00424962
0.00569623
0.00210679
0.00278171
0.0018226
0.00551447
0.000907071
0.00299602
0.00120119
0.00260813
0.00299811
0.000873566
0.00457063
0.00178488
0.00380309
0.00439422
0.00375381
0.000642123
0.00200785
0.00376938
0.00262449
0.00218227
0.000888248
0.00239106
0.00234767
0.00285727
0.00298576
0.00311183
0.000760134
0.000884767
0.000317579
0.000341561
0.000378344
0.000348474
0.000220963
0.000909286
0.000358
0.000893663
0.000498718
0.000761585
0.000513678
0.00104205
0.000311019
0.000666302
0.000651356
0.000379076
0.00251052
0.000774514
0.00101409
0.000406531
0.000705483
0.00155743
0.00289719
0.00043415
0.000659583
0.000647853
0.000344761
0.000232913
0.000874756
0.000214853
0.00109754
0.000392621
0.000442589
0.00102444
0.000456719
0.000712711
0.000397495
0.0004896
0.000981601
0.000816381
0.000774309
0.000523533
0.00186241
0.00108584
0.000774806
0.000246438
0.00164584
0.000761567
0.00149718
0.00110994
0.00109472
0.00025914
0.00164296
0.000336316
0.000425076
0.000528698
0.000841927
0.00037592
0.000716953
0.000236036
0.00084584
0.000304985
0.0014949
0.000947482
0.000897173
0.000841615
0.000976427
0.000418014
0.000769102
0.000755542
0.00115173
0.00076883
0.000634837
0.000263924
0.000935348
0.0010203
0.000420503
0.00130592
0.000694921
0.000305455
0.0073952
0.00352726
0.00384935
0.00592403
0.0056397
0.00421855
0.00597229
0.000555735
0.00114898
0.000890667
0.00205773
0.00407839
0.000843323
0.00354172
0.00680268
0.0040511
0.00672407
0.000750931
0.00737928
0.00320396
0.000855722
0.000333195
0.000279516
0.000632512
0.000680188
0.000946691
0.000638324
0.000670433
0.000638002
0.00124327
0.000279775
0.000306921
0.000318699
0.00152274
0.000179958
0.00257099
0.00438567
0.00459874
0.00747584
0.00563964
0.000947278
0.00183644
0.00417667
0.00102065
0.00649323
0.000815662
0.000773242
0.00352702
0.00330661
0.00502231
0.0028018
0.00365018
0.00124336
0.00120762
0.00251045
0.00115458
0.00380697
0.00140237
0.00347763
0.00246504
0.000624019
0.0051493
0.00501503
0.00176395
0.00280685
0.00145072
0.00121743
0.0014247
0.00133184
0.00108113
0.00203134
0.0029405
0.00212645
0.000949764
0.00113464
0.00130484
0.00155415
0.00236599
0.00149779
0.00123399
0.000806438
0.000950114
0.000938609
0.000829668
0.000614987
0.000896772
0.000746707
0.000737996
0.00245166
0.000741276
0.00190614
0.00228748
0.000874373
0.000468607
0.000560585
0.00104412
0.000373705
0.000848719
0.000798563
0.00172732
0.0023345
0.00422822
0.00347352
0.000859364
0.0011292
0.00282963
0.000770651
0.00135455
0.000993447
0.00263485
0.00129277
0.00228288
0.00215382
0.00197668
0.000733564
0.000446489
0.000988026
0.00116541
0.0010397
0.00142868
0.00177166
0.00165336
0.00198217
0.000923727
0.000628346
0.00074488
0.0030081
0.000495918
0.0029607
0.000779835
0.000295849
0.00471408
0.000895361
0.001776
0.00055686
0.00068526
0.000544165
0.000770273
0.00104071
0.00137622
0.00170377
0.00235357
0.00110949
0.00222116
0.00673732
0.00560925
0.00130787
0.00128007
0.00108875
0.00121879
0.00122016
0.00159108
0.00136114
0.000821943
0.00124466
0.000903527
0.00391468
0.00378579
0.00120508
0.00242648
0.00259967
0.00206737
0.000292698
0.00165033
0.00404364
0.00460622
0.000255067
0.00332667
0.000396383
0.00043673
0.000197939
0.00228788
0.0020041
0.00326678
0.00387085
0.00111655
0.000458974
0.0022071
0.00062677
0.00114935
0.00682847
0.00599019
0.00196178
0.000832063
0.000832215
0.000735906
0.00636803
0.00509421
0.00312842
0.0029175
0.000681302
0.000874284
0.000977409
0.000387632
0.000858618
0.00146965
0.0010268
0.00421607
0.00211932
0.00239443
0.00318
0.00047025
0.00260692
0.00191885
0.000251055
0.000252961
0.00107589
0.000250013
0.000799019
0.00159996
0.000983777
0.00260234
0.0034573
0.000433527
0.00262314
0.000919511
0.00315024
0.00116941
0.00298579
0.000454402
0.00626712
0.00396165
0.00588771
0.000525699
0.00394158
0.00114676
0.000852201
0.000910452
0.000860885
0.00130067
0.00124404
0.00223389
0.000412312
0.00286425
0.00460226
0.00369937
0.00339988
0.0024239
0.00180653
0.00167093
0.00211258
0.000375362
0.00262572
0.000857262
0.00111379
0.00026027
0.000952876
0.0011778
0.00114215
0.000926764
0.000890663
0.00172045
0.000849558
0.000556321
0.000778337
0.00164903
0.00156004
0.00213059
0.00431908
0.0043669
0.00164509
0.00408271
0.00353786
0.00437605
0.0060214
0.00124921
0.003321
0.00201201
0.00278913
0.00287032
0.00188252
0.00073641
0.00374091
0.000557277
0.00175421
0.00165232
0.000957278
0.00206163
0.00254048
0.00266235
0.00227124
0.00135766
0.00132858
0.000736284
0.00126334
0.000262572
0.00138946
0.000337335
0.00193244
0.00131989
0.000888805
0.000275579
0.000799282
0.00100656
0.00360491
0.000947838
0.00150883
0.00314621
0.00115677
0.00432345
0.00128783
0.0015282
0.00152997
0.00313948
0.00385237
0.00124656
0.00113076
0.000515249
0.000311615
0.00650026
0.00108574
0.00455773
0.00054612
0.00135903
0.000877231
0.000770923
0.00141845
0.000242994
0.00310953
0.00564552
0.000582885
0.00199356
0.00138574
0.00212934
0.00372135
0.000812335
0.000718662
0.00226307
0.00661133
0.00108716
0.000707356
0.00146887
0.00388567
0.00113281
0.00191075
0.00375389
0.00205268
0.00217168
0.00210876
0.00138859
0.00602842
0.00272736
0.00138181
0.000669493
0.00413583
0.00413858
0.00102806
0.00243613
0.00154859
0.000322168
0.00517765
0.00156201
0.00317541
0.0034233
0.000612059
0.000898542
0.00293881
0.000807631
0.000693952
0.00163835
0.000852163
0.00100943
0.000690055
0.00191065
0.00230482
0.00298485
0.00117667
0.00234015
0.0059851
0.00144861
0.00132312
0.00173363
0.00227776
0.000436452
0.000751149
0.000450373
0.00450827
0.00143549
0.00306777
0.00243909
0.00305588
0.000717325
0.00113245
0.00249557
0.000816902
0.000822313
0.000991166
0.0024398
0.000939346
0.00231482
0.00330264
0.00271712
0.00164497
0.00225817
0.00209119
0.00074675
0.00291683
0.00201871
0.000954592
0.000724357
0.0020042
0.00231777
0.00133176
0.0023773
0.000627306
0.00125785
0.000707825
0.000639159
0.00102119
0.000600708
0.00171898
0.000788171
0.00156557
0.00325001
0.00519124
0.000888928
0.000572267
0.00582843
0.00242508
0.00403045
0.0013009
0.000856489
0.00047379
0.00165916
0.00487723
0.000604525
0.00436309
0.000973742
0.00272903
0.00312756
0.0027008
0.00125301
0.00100323
0.000918903
0.00191733
0.000869236
0.000897148
0.00217017
0.000681905
0.00137625
0.00149961
0.00117957
0.000981411
0.00119126
0.00117321
0.0026173
0.000410571
0.000825327
0.000684051
0.00110178
0.00131454
0.000158595
0.00199755
0.00359084
0.000363955
0.00109358
0.00114756
0.00225347
0.00101812
0.00162584
0.00162486
0.000813506
0.000901771
0.00350085
0.00121732
0.00133486
0.00105109
0.000415334
0.000513613
0.000422399
0.000388637
0.00267184
0.000804705
0.000604752
0.000507893
0.000139841
0.00536044
0.000961988
0.00109347
0.00171416
0.000999293
0.00114303
0.000510849
0.000691211
0.00242629
0.00149939
0.00183999
0.00359752
0.0015963
0.00171803
0.00217444
0.00321142
0.00161651
0.00172067
0.002643
0.000791995
0.000832915
0.000833857
0.00203068
0.00189969
0.00324127
0.00276591
0.00112328
0.00739781
0.0066075
0.00747098
0.00592675
0.00741248
0.00629054
0.0040307
0.0067683
0.00169489
0.000986573
0.00190133
0.00115289
0.00214978
0.00255656
0.000987345
0.000528676
0.000813289
0.000655088
0.000815359
0.000647206