/*--------------------------------*- C++ -*----------------------------------*\
| =========                 |                                                 |
| \\      /  F ield         | OpenFOAM: The Open Source CFD Toolbox           |
|  \\    /   O peration     | Version:  2506                                  |
|   \\  /    A nd           | Website:  www.openfoam.com                      |
|    \\/     M anipulation  |                                                 |
\*---------------------------------------------------------------------------*/
FoamFile
{
    version     2.0;
    format      ascii;
    arch        "LSB;label=32;scalar=64";
    class       volScalarField;
    location    "0.0882685";
    object      omega;
}
// * * * * * * * * * * * * * * * * * * * * * * * * * * * * * * * * * * * * * //

dimensions      [0 0 -1 0 0 0 0];

internalField   nonuniform List<scalar> 
3927
(
157.083
46.9253
1369.4
199.186
82.639
682.808
566.191
95.0702
44.0344
67.9903
67.6468
62.6852
45.4443
74.2111
96.8493
673.512
55.2866
48.2153
92.9364
361.194
146.303
281.384
154.637
72.1751
108.523
129.862
67.2749
56.7371
424.712
46.3972
49.7791
43.001
84.9619
47.6269
67.4381
73.418
52.8153
67.6215
94.8534
119.462
60.046
240.98
41.8424
53.6779
48.2012
270.308
59.1279
166.645
62.7076
153.541
80.6898
82.2937
135.567
45.9576
44.4627
43.5687
71.5681
89.46
47.8178
47.1962
125.218
78.6074
65.0945
131.331
97.258
65.4224
66.1373
104.734
77.9755
279.221
70.3024
54.4111
213.993
75.4969
209.995
101.669
123.508
67.8097
68.8131
58.9848
136.036
249.982
75.26
90.3774
60.3493
58.7214
71.5253
537.097
775.665
221.599
513.107
115.955
139.959
63.5153
62.3141
201.747
749.132
121.981
96.2745
102.795
119.537
1332.27
54.9523
922.712
69.7013
48.2483
55.4392
42.7782
126.088
92.1813
87.5091
289.697
66.6255
111.276
166.389
436.885
86.5146
189.863
184.854
85.0373
176.455
86.8692
154.654
484.131
58.0211
80.6273
96.1656
146.429
165.141
131.299
132.755
511.354
921.899
910.104
1135.81
145.901
77.0325
72.4132
348.373
44.3658
903.543
934.773
53.3052
53.3283
47.4907
836.93
879.681
877.063
169.166
169.716
63.0044
88.7167
72.1045
66.0451
62.1984
90.7705
919.013
225.942
53.8791
106.183
200.986
57.6078
127.91
103.532
844.027
99.3801
154.987
563.177
88.7873
438.029
48.0284
1138.21
658.505
727.808
111.526
389.216
695.678
316.834
397.565
61.4589
88.3851
241.122
145.657
722.851
154.394
50.0844
106.157
323.127
136.978
144.355
143.754
93.4148
324.593
59.6357
63.3987
759.805
45.7407
927.35
848.106
119.396
66.224
85.4327
83.3556
69.0822
170.38
136.822
71.3305
721.611
74.6548
50.1572
62.2057
213.42
121.885
860.809
83.0156
74.4522
213.069
340.116
212.985
64.4743
672.905
56.5955
93.9632
669.945
536.482
937.133
75.6103
191.946
71.3447
48.5037
182.4
82.1147
131.392
122.129
94.015
98.4581
170.629
53.1993
97.4819
71.3832
110.471
275.577
748.205
499.396
122.907
576.726
50.7797
96.4161
49.6423
97.5322
158.797
152.216
118.141
66.4019
65.5254
150.066
43.1569
70.493
59.007
63.0681
153.844
98.1189
104.578
77.9372
62.4663
99.7561
220.73
199.753
149.003
58.1487
133.313
172.109
96.4146
52.876
54.6941
65.6027
58.6423
122.455
46.1161
49.1604
342.543
49.3875
42.3983
172.303
62.6826
636.898
71.9269
379.63
352.06
245.265
354.952
290.343
61.093
73.6114
81.5168
78.3183
189.19
493.399
131.658
518.342
55.7647
183.826
714.072
65.7064
63.856
50.5109
90.9321
80.6017
333.644
46.8102
46.153
169.702
69.2549
68.076
52.731
62.5781
168.664
65.8995
100.146
63.9636
180.55
947.889
58.8287
86.4478
78.7885
47.4529
198.855
62.447
170.463
53.4297
82.0232
113.09
841.148
532.054
646.501
51.3452
393.375
520.118
82.5461
44.0441
316.856
57.1763
309.362
110.925
76.2131
49.7847
51.0445
89.1732
242.628
747.036
49.3395
73.0038
1374.53
360.438
50.7283
72.7984
59.4274
471.811
563.072
51.5849
96.5958
148.462
418.661
44.4082
82.1829
118.712
59.3876
190.322
965.35
565.969
231.109
67.7893
69.8871
112.388
49.7147
64.6427
77.8855
60.5656
548.936
346.455
71.4243
456.479
656.192
75.5617
52.2011
66.0549
69.0977
587.671
122.513
454.634
92.4713
227.331
80.1413
208.607
412.548
59.3594
379.08
59.6332
95.5057
884.974
120.053
265.148
565.912
73.6825
250.803
44.1421
216.126
42.557
61.2295
853.022
94.843
65.268
54.149
93.663
52.7934
83.7221
890.542
161.704
615.021
69.9106
144.756
89.9456
85.1335
82.1981
57.0142
79.9796
510.872
98.0037
62.8565
666.493
111.295
110.963
158.488
104.247
98.2062
246.952
352.378
87.9825
70.4472
131.356
44.4892
42.8063
337.876
619.448
42.8832
373.645
47.321
135.803
42.3535
45.8789
449.2
57.7649
102.948
373.003
139.74
87.8856
44.5507
204.351
52.3396
191.205
580.27
68.1482
268.925
190.09
327.576
203.098
77.1393
963.088
1023.31
797.292
220.68
66.0742
724.179
61.3162
185.858
476.532
270.847
50.1706
132.828
42.9574
49.4963
58.8316
48.7893
79.8341
74.9555
47.5987
990.28
68.1525
103.03
46.7897
636.338
91.8695
43.4152
43.3043
55.6573
316.535
219.484
119.006
388.975
676.493
126.056
341.506
643.136
887.847
61.7073
1078.38
441.63
68.865
72.2654
68.9987
118.75
64.7662
125.743
59.139
46.0923
60.5146
887.36
47.7515
52.5105
186.134
808.114
758.455
108.298
252.562
60.4399
139.488
697.594
47.1343
127.904
68.0128
60.0163
56.5009
182.208
66.2014
85.8791
84.6155
61.6051
60.5737
77.6164
97.1665
128.273
70.8008
173.275
175.577
348.228
105.989
142.937
189.807
132.804
48.5964
123.252
231.649
253.885
46.5667
163.949
114.556
154.044
127.571
121.966
90.0837
426.629
210.599
535.584
247.437
128.852
710.681
663.951
81.6962
167.048
195.721
155.35
123.986
54.5536
49.6382
84.4575
92.5612
84.9675
100.358
80.2222
83.0643
42.813
73.6575
78.7608
87.4154
86.1439
84.3065
81.0648
276.529
895.339
89.142
83.7781
73.9241
142.26
78.7035
159.146
76.2349
51.7154
130.915
330.107
119.587
192.01
77.8243
255.565
402.956
135.458
114.202
224.499
184.262
174.032
168.373
577.814
434.725
70.3015
114.925
98.2478
67.1182
45.4758
66.3981
150.359
64.5117
154.975
68.8068
62.59
65.1971
69.7946
144.548
128.338
44.1488
149.509
180.896
169.651
230.485
251.232
85.6077
64.2923
78.6964
48.6608
58.2801
51.227
54.3546
53.8776
46.8944
52.6674
53.3933
46.8311
62.0954
43.9935
42.5467
46.1949
98.8024
214.132
79.587
465.239
48.9836
90.6551
60.4203
161.759
165.527
422.699
770.006
57.8557
269.484
102.689
85.7509
116.374
130.606
459.574
94.0657
69.1282
55.9092
82.161
58.0835
59.2769
43.5916
77.6859
43.6898
52.2512
52.7247
55.3339
1110.98
1139.86
904.486
1100.22
261.344
140.1
284.101
120.592
209.693
146.075
70.8892
91.9918
78.1898
42.6099
41.9234
90.1082
158.187
72.787
63.8528
65.6937
61.5942
64.6278
61.6952
130.997
60.5871
66.8424
114.435
175.18
58.4507
61.1174
45.8209
76.5802
55.1195
82.6856
70.8051
56.6653
57.7712
52.6637
49.2578
50.6921
47.3787
50.2563
49.1615
49.2818
49.3842
51.7884
696.582
410.685
297.469
715.364
473.636
164.584
225.384
225.083
257.884
82.837
58.9769
65.4486
105.468
95.3713
41.5452
621.569
82.9999
665.794
666.955
468.077
549.109
318.91
259.706
142.894
45.6556
695.109
67.5523
1040.63
262.589
707.371
84.4544
66.196
195.497
171.608
75.4375
970.519
133.998
288.777
122.25
71.5212
83.236
917.257
60.8917
65.6209
555.305
494.866
998.822
323.729
497.593
79.9841
66.2866
45.8189
126.611
43.5373
52.8358
43.8359
47.963
817.609
124.234
136.656
66.2114
155.259
719.636
914.298
165.982
139.525
167.416
763.301
317.283
70.8085
109.357
840.419
101.486
175.561
311.552
904.043
167.07
104.228
409.62
254.402
177.459
1505.78
813.2
45.4856
540.314
167.313
176.436
697.911
43.7592
944.576
507.811
544.557
179.066
63.8802
104.272
65.5098
42.1452
81.7455
44.7816
42.8866
80.5827
252.52
54.493
43.1658
44.2458
292.775
987.612
44.2812
531.072
65.9046
44.1835
46.5649
55.6722
52.459
61.7631
56.1421
50.9543
616.215
179.425
59.2681
52.7751
79.073
55.3506
542.644
112.188
597.656
148.581
174.374
798.075
154.394
45.1266
170.805
44.6466
117.562
236.283
174.222
67.077
75.8307
64.0263
58.2123
198.259
59.4591
72.9522
82.9237
96.4388
48.3094
91.0219
808.006
60.0579
97.2361
65.3099
134.026
69.0094
102.015
966.351
181.258
64.3505
80.2068
63.7301
41.7863
62.6292
189.489
535.288
533.952
419.414
133.3
686.141
112.146
750.723
159.635
179.888
76.7842
155.119
85.1261
71.3775
492.287
109.21
49.5077
91.6261
387.499
149.687
55.3149
54.4741
80.5842
774.386
54.3015
268.205
227.229
105.307
70.9628
65.6117
798.393
480.526
74.6288
77.1508
57.4849
185.945
45.8604
46.6589
118.619
66.7004
106.923
59.5568
94.1527
164.707
47.6329
61.7701
49.5514
79.0958
268.363
113.292
129.483
154.8
384.568
173.696
60.142
108.919
130.89
218.525
49.0138
46.4259
175.728
143.498
229.935
76.6079
235.936
230.419
434.253
96.0969
42.9526
77.9805
49.1467
49.3935
903.46
43.0924
53.797
44.705
72.3054
44.3045
116.959
481.988
61.6209
1197.13
47.6373
48.0922
79.3595
88.0906
66.5359
94.3623
58.6164
52.7031
42.6215
77.6646
615.384
50.7877
843.497
996.072
45.3252
59.4181
81.5327
78.4649
150.066
89.796
74.216
87.1478
77.7115
145.399
108.971
166.726
74.754
792.789
201.341
600.913
513.646
61.4884
912.371
957.826
308.586
130.312
210.044
129.421
48.5164
309.861
125.23
44.7545
68.8459
141.29
99.3025
71.8878
121.118
52.684
95.2391
76.9553
844.537
127.978
88.6789
211.483
48.275
71.2527
184.135
128.641
59.8276
43.8969
207.506
153.916
68.2046
106.835
55.936
827.924
56.6275
1052.77
542.801
115.253
48.7281
48.7843
48.0302
618.223
110.269
1043.11
124.277
62.8391
1189.54
104.703
745.523
730.903
151.867
52.6907
47.702
56.3814
146.53
730.354
54.9214
532.41
106.671
506.71
151.677
588.548
57.9264
47.8391
120.118
701.243
241.455
59.708
292.576
215.409
55.4249
171.067
538.893
281.968
155.003
108.69
665.923
591.73
80.8291
66.2463
48.7593
46.8688
964.987
551.233
1396.07
61.1483
182.651
1143.76
55.6886
800.414
431.124
568.814
61.3375
45.3321
47.3919
42.7136
875.316
873.197
1016.94
857.702
96.0211
1162.49
63.6675
55.2474
50.6856
1142.55
1145.04
566.028
219.078
1230.14
125.937
51.8465
50.3911
50.5618
490.755
58.1367
53.5796
70.2695
173.014
45.2758
52.9185
151.705
70.9891
43.7386
117.697
58.6332
64.3412
763.354
223.239
125.135
831.579
212.969
433.477
64.8372
971.975
78.9483
125.727
766.333
198.678
530.516
122.892
83.9548
194.033
203.481
102.569
115.31
254.469
236.801
116.15
137.591
59.763
74.458
73.7302
58.0168
88.0059
152.047
47.6378
47.6263
57.4941
51.5085
48.8954
55.3448
182.787
176.013
62.2057
115.664
124.366
764.201
541.321
304.854
198.014
65.0176
275.478
81.6831
63.3523
96.806
90.0935
44.5188
133.134
66.6852
100.421
528.868
266.062
76.6434
47.7336
209.985
70.197
62.9965
94.5793
102.053
65.4127
67.5961
376.204
87.9588
309.25
145.517
463.822
73.1996
60.155
811.44
56.0759
545.866
71.3058
443.311
162.627
81.3236
51.8947
184.459
660.922
330.925
62.5042
74.0616
91.2145
57.288
112.611
84.9426
56.2243
59.4426
119.875
150.635
217.5
57.3539
98.1117
66.9538
44.9991
76.551
61.4472
47.7812
147.155
176.503
236.833
810.018
278.936
735.225
65.7351
690.21
236.362
73.0257
333.888
134.183
101.438
53.4821
56.9533
42.3222
42.7313
43.2799
43.6242
42.7537
52.6748
44.4324
797.366
325.542
409.776
257.182
84.5559
164.257
219.847
1572.2
45.573
43.6512
69.1813
330.734
112.946
1311.2
61.8059
42.4033
43.0822
809.822
115.322
851.03
55.9974
51.3007
67.4882
67.2101
71.1263
219.79
55.1652
768.271
845.784
172.621
44.7099
100.564
152.464
45.5775
42.9124
43.7631
46.8095
47.478
81.1802
88.1789
93.1662
42.9156
71.4341
93.0586
55.7412
54.6696
225.547
217.439
907.189
321.954
1233.22
41.5274
65.1304
50.6228
60.8631
48.1845
125.379
157.668
49.9423
530.626
510.808
156.31
71.3632
80.0198
178.733
905.029
425.956
87.2163
48.5121
54.2593
123.142
55.7999
72.3201
56.1504
44.049
45.2636
43.0046
44.2495
58.1647
47.3262
54.5632
48.3143
47.036
73.8144
69.8618
45.3468
79.8434
54.0865
82.3257
104.764
74.7617
69.6249
68.8908
44.5756
71.4038
80.3084
63.3299
215.097
52.7034
60.924
51.5353
44.8654
56.1928
94.6983
45.6175
54.6058
112.124
97.9302
44.6696
44.9902
71.7495
82.883
55.4143
113.691
64.8961
66.9297
70.5603
69.3127
50.2223
72.9544
264.167
166.479
179.802
60.433
54.0113
44.6752
114.276
194.888
97.3607
820.849
815.59
94.4028
41.9781
103.378
459.927
57.1418
226.632
58.0305
67.6945
813.564
242.48
132.616
109.036
590.047
1100.39
277.905
946.922
186.949
1243.97
570.945
194.81
304.435
176.627
77.0969
595.758
49.3507
1022.9
698.963
289.083
665.125
390.484
120.699
1109.7
88.3189
53.6655
166.004
921.553
46.3989
490.941
818.492
174.352
90.9183
88.2555
489.856
281.503
495.097
351.709
517.087
613.265
369.415
277.06
230.31
205.839
142.557
161.764
547.261
876.12
48.2266
475.634
73.5816
47.1741
47.8164
397.38
774.946
798.07
572.362
77.156
71.2916
73.7337
84.0883
84.4371
2684.14
244.377
851.378
1328.23
172.6
834.375
639.844
1189.73
42.3356
46.2093
43.7372
297.332
755.234
46.398
76.8344
282.563
43.4097
54.656
43.3832
97.9812
44.0953
333.062
357.741
125.776
43.3068
699.477
58.4511
125.23
42.5533
43.3308
77.0046
1027.95
981.05
986.802
367.239
122.065
1091.2
469.133
112.353
1031.75
999.934
600.271
170.865
430.56
112.149
175.31
55.469
55.6237
97.8693
146.266
235.112
68.9562
757.589
66.4116
66.5886
47.4929
55.0013
93.611
102.35
75.7499
76.092
83.5033
199.727
535.927
421.245
345.053
72.9656
106.286
84.731
61.2055
65.5448
64.5394
76.6132
56.9987
54.778
62.2607
73.404
223.543
142.981
90.1246
69.7578
87.5641
63.2944
75.1099
372.236
64.7319
65.4609
65.4693
48.733
64.9274
56.3437
167.179
267.105
60.2691
152.27
83.3348
79.6812
213.636
92.3667
81.4702
100.568
49.7241
51.9515
52.6275
297.391
101.004
54.1899
46.4328
47.7419
46.6546
47.5595
42.9284
75.9725
297.039
57.5848
54.3868
52.2389
82.7424
205.831
104.509
54.6348
221.96
73.3547
71.3227
44.1209
68.7488
96.2818
284.004
919.286
49.7249
254.662
249.008
46.9187
54.2886
78.4677
390.529
115.854
160.086
43.0552
43.5212
48.9647
615.573
654.789
650.834
49.1821
47.8564
194.833
212.527
77.019
127.812
73.486
98.9123
120.387
150.437
684.05
638.972
496.301
74.2381
702.519
573.478
232.353
54.2323
49.6787
85.1853
201.3
48.0387
187.069
114.851
44.2075
51.1094
58.855
50.7699
46.4019
52.9837
327.475
48.8426
1207
1024.53
76.2028
410.828
133.237
709.823
62.3118
74.5917
125.064
609.967
76.3026
534.443
201.965
90.9152
838.497
801.476
76.0305
212.273
710.087
764.831
472.524
69.7663
700.092
67.0647
106.795
363.025
338.125
588.123
242.281
225.778
535.696
883.958
533.33
730.436
197.495
1085.64
51.0829
63.9932
664.769
115.948
83.7663
917.438
84.6565
110.627
53.8172
48.2092
840.205
61.2629
51.5363
61.4403
640.442
965.974
869.202
749.955
176.709
63.0312
44.4935
65.7003
756.042
63.022
64.9415
95.7115
177.456
104.554
349.583
69.6207
57.0025
815.192
199.289
125.229
758.39
174.836
642.675
109.779
319.383
58.522
73.121
190.098
186.243
94.677
93.5884
173.583
156.765
150.155
84.8583
122.712
472.279
482.654
554.793
690.086
56.9942
72.1883
224.458
64.3309
107.116
66.4066
62.5963
708.068
52.5115
61.1199
74.3119
404.763
53.9449
56.4191
553.911
672.633
425.71
702.873
598.959
461.829
568.437
559.548
411.209
540.876
70.3088
1120.08
54.6518
553.339
106.043
70.7154
135.294
50.0033
161.188
86.5781
90.1585
84.0716
77.5414
491.991
800.672
596.417
1347.2
324.314
83.5918
73.3045
85.0032
176.549
60.1518
138.625
131.435
248.094
151.428
99.0738
48.6137
374.589
47.1041
42.1667
42.2241
94.8171
738.685
686.004
612.822
75.4139
511.674
307.884
84.115
80.6615
56.765
624.224
704.789
316.084
80.7293
87.323
237.242
76.802
263.246
283.951
924.014
652.271
64.9945
53.2293
81.8075
70.9422
126.306
123.017
982.908
60.9113
60.95
136.252
64.9732
60.9408
715.488
780.372
871.151
269.721
52.0329
49.8347
47.8247
73.4891
290.72
364.591
47.4124
46.6339
46.9031
55.8287
46.4655
49.4113
48.6246
48.3766
62.2708
66.3425
48.268
50.4362
67.7675
60.3232
64.6752
47.1433
47.8056
44.6719
49.4603
103.417
239.245
328.361
161.175
70.6438
59.2116
749.016
56.3594
88.7888
192.793
49.8377
76.1766
126.424
138.775
167.073
113.809
402.543
429.486
112.634
42.2925
43.6124
43.7334
48.3485
58.1964
80.9689
49.5466
77.3168
82.3696
55.0763
42.8228
83.7741
77.2944
51.9683
86.702
60.9338
373.726
78.0014
589.876
924.624
984.544
953.894
394.364
1149.63
49.343
44.8733
48.3848
111.082
47.5231
46.9784
48.4089
91.9119
89.497
260.538
72.9616
57.6522
125.702
294.541
91.7423
83.5879
63.2139
140.748
63.1883
272.518
158.997
49.279
91.8448
95.7288
103.212
48.2328
226.453
122.628
87.488
91.0252
280.641
49.4416
81.6301
110.176
49.8232
49.1846
49.3984
49.5744
129.299
49.2906
49.0568
49.0236
121.823
69.1047
94.6216
209.574
95.5423
109.503
97.6232
54.0074
86.0081
75.1896
622.764
101.66
76.7292
122.137
94.4716
93.1592
157.677
212.798
53.4826
114.199
94.4525
766.386
43.807
41.8695
263.171
43.0502
54.3198
345.058
79.7147
132.202
85.7938
62.4716
157.34
93.4272
83.5299
52.1685
394.565
45.1263
47.7305
42.6992
126.826
99.7805
62.5967
45.7528
45.1029
142.212
69.308
167.06
78.5675
71.1862
78.7394
218.632
50.3813
45.7236
46.5628
58.1608
88.8258
121.011
127.067
104.04
88.5689
69.448
113.537
168.184
617.164
537.972
712.207
692.455
657.478
163.053
491.565
304.189
1022.26
1062.9
467.136
68.6743
904.899
386.936
196.094
759.676
70.8758
184.177
1053.18
738.348
1083.37
474.63
46.2033
1031.62
90.3073
122.929
847.564
990.926
1003.24
916.229
101.327
790.078
504.788
267.098
176.803
176.993
762.554
122.234
107.132
116.443
290.861
793.519
48.1978
88.9704
203.976
906.507
102.641
85.3362
68.204
171.959
83.0239
1339.23
54.2207
760.265
1019.95
1294.45
1001.83
894.114
381.936
732.78
84.2896
733.178
68.9899
80.2376
92.925
139.664
777.731
779.387
809.448
834.239
72.7441
408.47
920.497
823.826
843.594
870.709
843.157
573.464
203.385
803.998
44.0829
97.455
93.9368
60.5861
61.044
82.9186
54.8618
244.749
120.52
144.528
189.553
79.4654
149.606
106.105
45.935
69.9244
45.2786
228.694
43.8876
91.1928
122.678
817.215
741.649
135
143.935
94.5819
208.165
269.014
639.775
558.539
984.682
1010.29
922.956
88.5005
1020
185.413
73.8856
68.0186
49.5553
55.9213
241.493
52.8814
42.9877
290.607
43.294
139.15
85.5917
79.3269
54.8245
55.109
43.763
75.7394
564.02
267.983
58.3651
210.395
74.1625
64.9518
83.0223
121.407
111.543
64.3114
54.8547
51.8847
44.6711
55.2755
69.6916
60.3671
145.044
80.1959
52.9349
48.7573
48.1947
84.7732
69.6546
53.5795
404.486
50.8916
445.061
536.284
91.0084
67.2016
101.349
408.828
110.74
77.1663
286.867
184.832
191.688
194.724
286.081
164.773
710.985
974.628
187.009
286.645
483.023
542.585
543.458
67.2287
65.8769
81.1859
89.7038
863.159
98.0034
61.7396
671.688
69.917
1219.25
109.788
74.6986
79.9406
239.841
276.239
1743.9
243.158
102.782
54.5294
825.033
476.536
78.2653
137.052
70.316
293.691
431.667
298.219
103.133
247.342
89.3223
524.994
753.091
55.8716
68.8547
63.4075
124.092
101.776
740.45
316.584
179.17
54.4102
62.8948
45.9352
61.8121
47.456
42.7221
49.1164
85.5493
662.732
390.46
170.243
83.5978
65.2486
97.406
317.139
57.3749
171.23
47.4253
85.8472
103.903
57.8328
127.738
60.111
905.313
388.743
77.6454
73.7521
987.978
81.6707
681.546
273.826
907.599
46.0994
50.769
87.7157
46.9473
447.057
731.497
408.731
470.981
64.1755
41.8703
47.2759
46.406
660.044
97.9666
122.689
43.8932
43.016
45.0582
46.06
232.468
468.626
252.369
754.48
190.698
463.322
649.183
42.8358
51.6201
48.8901
43.3062
598.568
48.7001
350.653
849.254
969.04
120.542
961.056
172.01
82.0288
146.064
80.9433
89.8757
592.043
178.775
143.671
138.036
72.3147
97.1796
1139.42
43.074
43.711
47.692
243.429
43.4652
699.665
158.1
250.364
188.118
72.4224
83.4764
245.043
1059.04
99.4068
50.4242
75.4511
60.0861
123.743
341.373
184.023
53.263
911.432
44.3348
113.412
60.0055
689.236
83.1461
65.2194
87.644
69.8239
75.393
58.7985
105.473
677.521
92.0892
87.2738
428.974
65.935
52.5667
46.4582
62.2573
62.6448
54.962
49.0853
46.3041
62.2639
46.5284
60.4203
72.7192
60.8025
63.7794
1036.16
60.7917
254.658
58.7398
371.957
73.9362
65.6217
123.965
189.092
82.1516
563.017
474.443
509.299
588.582
947.749
58.6534
1096.68
67.1573
67.7619
78.7949
1083.54
99.0192
83.3832
47.5878
952.283
428.546
96.2951
114.279
71.8327
118.927
53.3678
63.7044
96.3169
75.5875
276.58
56.3072
510.203
579.924
43.6158
99.262
48.3312
371.011
612.678
1213.32
843.493
482.996
1067.72
44.8001
43.0635
506.319
46.4688
237.748
57.4758
76.4203
95.1021
1055.88
58.4267
42.5222
63.9735
126.75
70.1698
71.9541
78.7812
163.397
87.1638
79.1429
96.0569
86.2562
53.5259
46.831
144.562
57.5015
95.0428
51.7915
71.6453
95.777
201.389
411.906
1009.35
63.4134
79.9114
147.855
91.0769
509.241
108.19
104.083
832.205
136.693
87.495
200.209
165.209
193.977
84.6634
129.392
153.53
915.072
46.0684
42.7719
62.7153
93.5341
55.2216
49.9468
658.16
110.139
639.88
53.5183
60.1168
62.8042
59.4692
62.6376
90.4538
805.398
187.373
236.986
95.8528
80.9755
47.1508
73.3135
75.9992
89.8915
60.224
62.8816
242.401
83.2274
519.396
62.0412
263.761
358.722
117.397
365.402
228.075
583.467
123.531
302.71
121.341
76.5334
876.918
65.8792
316.399
73.3365
933.583
347.301
60.7448
54.2872
898.506
601.157
48.0182
135.04
42.6473
606.069
549.444
135.59
48.2897
57.1144
189.975
45.7368
86.9581
46.5833
47.3316
45.3984
71.9508
68.7926
186.534
57.1236
533.01
92.8028
46.8183
287.806
57.0468
50.3673
545.07
73.8765
90.8476
61.0108
46.3325
660.801
81.5478
648.666
289.026
58.5158
950.345
52.6971
48.2455
446.692
90.4247
67.2599
208.733
259.944
363.707
423.311
179.445
201.245
46.8388
402.871
313.106
236.968
1046.88
693.844
211.565
400.115
184.405
108.837
221.939
140.733
854.043
42.2874
68.9298
746.164
84.0067
210.305
471.253
831.076
160.204
48.5177
79.1693
90.7199
50.0462
65.8311
179.167
137.84
61.0086
62.763
181.857
112.169
92.984
127.853
431.456
72.2794
158.031
93.6066
69.1839
398.409
49.3601
45.9724
48.4333
54.6726
50.1673
46.4775
79.8338
43.691
87.0931
126.725
67.0085
700.111
60.3158
54.6916
169.446
336.189
197.477
129.823
124.296
446.15
63.803
569.521
451.87
72.4273
79.9004
195.258
67.0977
389.781
1189.93
595.799
76.5468
99.9999
69.841
167.859
93.891
87.893
109.875
63.3551
102.034
58.916
61.7235
59.3691
56.7559
47.6395
61.6654
52.2837
46.705
45.481
118.831
77.62
125.444
466.053
71.6813
190.193
560.882
230.963
117.787
49.4911
79.4615
42.8412
42.301
47.379
363.802
87.5529
803.884
69.3574
55.834
56.196
47.8303
49.3939
50.9774
122.334
112.085
153.874
60.7907
93.8472
50.0025
133.334
48.8544
50.6852
60.0213
50.2642
73.9377
301.134
47.8595
213.563
165.528
48.6559
48.8119
49.0205
74.9662
73.8747
181.624
121.509
84.5277
50.0449
43.1741
111.441
81.4754
97.1679
47.1024
44.7547
58.9632
48.3955
81.9233
100.026
75.9886
96.6022
956.067
631.704
490.964
510.418
69.7815
49.8073
100.815
186.221
188.093
125.732
433.742
366.971
114.979
177.844
88.8958
452.901
985.372
946.125
1009.85
60.7042
85.6783
56.6519
100.259
65.4549
50.1376
47.7238
46.7804
43.9592
46.776
45.8086
46.4093
214.026
273.686
141.988
435.459
110.302
106.706
58.5308
89.4616
153.306
130.502
80.7183
49.7606
54.3695
155.652
86.0634
73.5547
90.6347
46.4745
1194.96
231.341
959.081
908.581
1010.37
198.04
1030.69
1312.71
964.833
50.7545
79.2564
816.234
44.0591
44.7399
150.79
134.269
57.95
1014.75
94.9963
131.08
645.586
481.473
395.883
645.615
970.138
1447.76
436.783
383.99
91.5864
775.306
463.858
299.036
377.865
589.143
69.0457
489.372
73.8847
729.731
653.632
208.87
148.777
69.9035
64.2112
1064.02
166.963
935.378
269.468
841.762
666.583
2163.15
711.607
523.357
549.461
346.992
50.3295
49.9502
125.32
42.8858
98.1833
631.86
44.2412
71.1513
95.4692
57.872
43.0195
42.494
45.7577
45.118
42.6425
43.3258
57.8341
81.932
42.7603
43.7736
47.7955
46.6879
73.0665
91.0192
79.2057
82.8529
45.9067
85.6178
60.7757
44.7656
45.5726
101.848
88.3047
60.4277
68.5214
72.4139
74.2554
237.568
48.5103
473.882
48.6588
78.8952
130.961
41.4925
43.3816
656.251
1019.24
70.9168
181.721
53.3329
62.5125
44.0232
277.16
61.8215
66.7325
86.3466
70.3112
65.9365
631.992
708.189
76.7193
206.133
802.017
42.2904
42.6372
214.291
43.374
43.409
58.3727
84.2816
43.0356
206.175
52.3689
51.8551
45.9978
81.0001
44.3136
46.6778
45.4746
42.6534
56.0343
107.909
374.397
1074.38
45.9852
46.4724
42.5856
61.6734
43.3511
50.6804
76.5222
78.2557
51.6944
43.2779
42.8371
101.511
48.8769
47.4236
74.2119
77.7121
95.4582
71.1109
793.174
647.238
69.5852
608.941
140.357
192.23
59.9302
90.4968
67.4726
267.82
160.779
127.939
42.4642
42.1686
42.1161
55.4374
45.8884
47.6758
65.3112
99.2241
81.9758
131.103
47.7842
47.5524
296.375
68.863
474.123
221.098
78.4204
186.494
442.781
63.2672
96.5904
61.7271
390.753
61.2958
821.567
1136.51
1053.56
64.6888
119.647
903.317
188.967
403.991
70.6693
176.385
260.354
81.8993
71.5268
1008.78
49.5788
150.893
77.8803
76.7125
138.075
634.38
240.991
521.533
945.561
70.1945
274.053
635.667
222.088
203.423
75.4293
51.8852
68.5092
54.0939
867.858
1169.24
790.733
113.738
1002.06
618.222
77.482
108.594
77.839
157.447
93.4842
48.0711
115.857
99.7614
126.101
87.9973
145.904
149.362
680.142
47.1575
45.5648
150.058
156.069
76.2887
75.714
414.851
163.488
738.351
179.946
71.365
628.825
58.3635
269.275
784.035
495.085
860.959
381.515
359.896
564.833
213.447
488.837
60.984
95.9632
112.605
70.1206
227.43
568.092
151.607
921.497
792.571
163.223
192.787
111.695
495.513
74.268
61.5318
143.731
800.863
331.523
47.3696
50.3386
314.215
130.721
144.689
60.4016
124.298
99.9631
65.5052
96.1156
81.7286
192.937
86.2859
153.371
50.9628
56.9157
61.3285
74.3801
101.951
79.8964
1009.57
61.8201
77.4802
86.2249
362.281
69.9599
113.7
248.075
1109.93
541.242
60.7152
788.948
73.329
107.266
83.1577
72.5431
371.064
132.248
72.4754
233.877
146.535
113.929
87.4482
179.068
57.5882
78.3301
71.6041
55.4171
44.6225
516.306
431.085
143.396
956.731
351.714
701.72
212.071
175.175
215.525
56.302
95.9814
88.1469
277.72
371.932
212.785
823.261
57.6176
452.886
828.091
101.895
1038.12
317.245
514.337
547.549
114.967
187.073
69.0842
64.5488
897.928
80.7988
146.933
102.627
55.9041
71.8789
883.367
1374.57
213.373
940.432
72.9132
378.959
192.859
432.901
189.744
417.582
827.166
125.963
625.958
46.1638
41.8332
99.7904
281.117
374.852
148.642
61.5253
53.7353
45.0532
45.0629
144.673
108.068
66.8988
59.3923
50.0759
47.6895
111.142
121.579
517.748
85.2284
79.5971
51.6625
56.1551
99.3684
118.528
62.677
79.7846
71.1963
74.8575
81.4203
44.0231
43.9378
64.5343
51.3659
233.636
44.9989
179.703
42.9306
59.2202
56.205
79.833
62.9584
149.886
70.6834
76.733
117.627
191.434
294.339
63.9165
133.753
343.573
50.2346
43.1945
46.7159
45.6815
42.8712
51.5392
59.7422
79.6965
147.578
165.729
458.276
163.399
223.297
67.6425
77.9969
116.383
85.2777
67.9103
70.7074
46.4475
46.7907
54.0919
257.603
55.2834
60.9923
138.974
236.035
400.6
182.75
49.0583
48.191
113.575
94.6214
74.0192
60.3797
68.312
76.7757
67.2004
154.767
88.0063
882.886
80.0166
47.9236
58.4406
83.0313
47.1642
90.7724
79.8698
132.931
48.7985
68.0201
427.357
48.1079
78.204
48.2718
49.7424
120.493
55.5123
57.9843
135.646
136.435
105.215
118.951
58.0599
68.0948
89.1358
108.74
55.0451
128.366
72.8266
69.3874
346.43
88.1545
242.447
44.9629
80.2885
160.844
253.37
1125.03
47.1707
457.174
342.281
121.285
92.2767
64.7902
80.3526
48.3486
49.421
111.771
47.9466
87.845
77.956
172.835
149.886
73.9145
51.6246
1131.91
96.0772
830.493
391.329
416.072
171.993
404.837
166.708
851.936
221.831
307.066
79.141
1086.74
865.499
53.5395
63.8766
641.193
798.804
966.374
63.8505
42.4754
792.464
1070.5
701.694
171.264
42.9794
166.854
200.413
151.721
149.09
123.849
138.569
556.848
87.2557
277.442
73.3363
590.998
65.5596
219.362
354.403
60.6147
398.619
121.843
87.5183
52.1407
53.8048
140.134
63.7241
195.573
305.746
391.663
898.191
65.5457
53.3026
508.23
74.5477
1047.22
59.3945
887.274
831.518
764.405
358.081
48.2479
211.9
49.0883
172.289
91.706
95.1366
48.7385
76.6034
48.1401
49.0096
49.7621
49.391
49.3225
49.8376
109.35
48.0019
45.4885
49.5019
1182.37
943.313
768.547
757.635
680.707
42.3952
45.9893
486.613
473.952
339.249
84.2316
45.4414
42.9148
42.6408
46.179
43.2567
59.0865
159.975
187.987
46.3312
524.752
221.186
836.618
448.839
54.8881
49.5843
141.112
128.142
92.0818
207.429
82.4769
452.444
240.516
99.0678
199.653
190.076
436.268
62.3463
738.141
150.02
949.96
72.6867
72.1327
936.106
228.333
164.646
136.768
214.812
97.5296
66.4237
103.388
49.9668
1050.82
1163.73
890.339
52.3973
60.4279
794.958
561.247
49.7175
866.991
1012.1
902.712
825.845
909.141
848.507
847.098
298.493
149.651
625.737
46.2298
688.261
242.452
136.706
56.7024
754.102
109.594
69.3064
333.492
96.5956
181.697
654.715
131.358
137.392
69.3354
78.0938
65.9327
50.9921
42.6226
43.0251
62.0634
45.9291
102.415
42.6141
42.6113
42.6578
42.4879
42.6552
71.4525
43.5266
142.038
43.6562
70.069
49.9574
85.3614
48.645
43.926
191.524
116.536
877.797
76.4311
174.282
52.5007
288.523
77.5786
79.9969
138.003
194.586
71.3041
53.2079
218.449
120.195
103.867
185.912
53.6867
947.076
611.628
129.215
69.8038
52.0815
561.574
146.885
71.5795
88.684
143.95
45.5193
54.0002
57.6934
59.902
43.2826
50.4343
74.0433
53.3426
51.6905
77.2441
209.838
72.0827
103.134
90.7152
69.8728
68.7348
201.373
70.0785
63.7165
139.766
59.9034
342.428
62.1379
76.1429
68.2262
206.511
698.6
93.9513
94.9227
217.695
216.484
157.294
85.5154
227.883
63.7351
74.8212
65.7273
53.0502
58.7218
97.6306
928.301
666.853
217.785
900.385
498.15
218.849
81.0779
91.479
54.5964
269.58
73.3334
94.0726
55.9631
58.9075
635.798
88.7373
610.338
135.636
103.668
246.743
646.854
234.535
694.868
590.17
560.292
159.199
546.206
956.081
627.053
43.9763
46.3666
43.3392
52.6507
59.5986
69.6082
43.6167
51.212
44.179
52.4097
59.9642
56.6827
64.3948
54.5274
208.545
94.1887
71.2911
79.7349
68.5238
124.525
54.3935
146.296
60.8563
138.449
547.172
804.315
304.802
448.819
1306.66
741.302
207.853
74.2321
92.7011
172.103
710.552
851.057
877.78
52.9262
46.8147
211.226
738.998
776.316
42.9657
265.203
51.7616
67.6375
118.375
43.6914
42.2353
142.425
593.399
375.067
43.3496
959.475
193.838
767.021
67.0583
76.7793
93.0906
450.407
854.89
591.536
338.156
613.207
51.9246
61.7052
73.919
65.7763
89.059
63.1646
619.849
82.5365
54.5887
52.5002
92.4236
402.332
78.195
59.8734
60.346
821.848
73.4103
69.7115
74.3148
99.4368
78.6547
64.1204
58.3427
662.521
267.121
133.787
43.6259
92.5029
77.1763
48.9774
53.7769
49.4384
73.5491
102.258
74.9688
116.551
74.4392
48.7339
89.0415
65.3407
83.0613
48.6061
47.047
270.418
68.6072
408.283
318.591
51.0208
151.012
254.857
379.383
517.629
94.8901
65.4811
52.6159
247.563
110.116
122.127
206.956
109.884
89.5602
578.788
57.955
83.6371
723.437
54.4499
53.711
55.1438
53.5855
80.8245
254.119
188.474
50.7524
101.042
111.854
45.273
44.4024
45.7041
48.9705
49.4146
89.5407
55.1925
69.4422
44.7606