/*--------------------------------*- C++ -*----------------------------------*\
| =========                 |                                                 |
| \\      /  F ield         | OpenFOAM: The Open Source CFD Toolbox           |
|  \\    /   O peration     | Version:  2506                                  |
|   \\  /    A nd           | Website:  www.openfoam.com                      |
|    \\/     M anipulation  |                                                 |
\*---------------------------------------------------------------------------*/
FoamFile
{
    version     2.0;
    format      ascii;
    arch        "LSB;label=32;scalar=64";
    class       surfaceScalarField;
    location    "0.0882685";
    object      phi;
}
// * * * * * * * * * * * * * * * * * * * * * * * * * * * * * * * * * * * * * //

dimensions      [0 3 -1 0 0 0 0];

oriented        oriented;

internalField   nonuniform List<scalar> 
7371
(
0.00660609
-0.0131988
0.0130304
-0.00643769
-0.00777173
0.00204801
0.00349931
0.00222442
-0.00095031
0.00154576
0.000211439
-0.000806889
-0.00499806
0.0109626
-0.000100898
-0.00586368
0.0165258
-0.00576588
-0.00502904
-0.00573084
-0.00275671
-0.000993729
0.00401795
-0.00026751
0.00056617
0.00110361
-0.000397541
-0.00127224
0.0467968
0.0111674
0.00211837
-0.0600826
0.00483594
-0.0329095
0.0118258
0.000829954
-0.00998567
0.00992613
-0.000770421
-0.0246622
-0.0578567
-0.00908309
-0.0581693
-0.086759
0.0572994
0.0876289
0.0282765
0.170899
-0.245633
0.046458
0.00164446
-0.00145746
-0.00138227
0.00119527
0.0535741
-0.0527189
0.0191559
-0.000552706
0.00139287
-0.000698301
-0.000141867
-0.00289145
-0.00567913
0.00174067
0.00682991
0.0611729
-0.0417191
0.0643202
-0.0837741
0.0572414
0.000993346
-0.0582347
0.00122028
-9.74877e-05
-0.000237384
-0.000885407
-0.000149847
-0.00222999
0.00146683
0.000913008
-0.000150689
-2.48708e-06
-0.00146884
0.00162201
-0.00266387
-0.00116361
-0.00141466
0.00524214
-0.000851046
-0.00268749
0.00138402
0.00215452
-0.0558448
0.0558053
3.95291e-05
-0.00583352
-0.0426518
-0.00735951
0.0460775
0.0133252
-0.0593701
-3.25817e-05
0.0913757
-0.00204307
-0.0432551
-0.000830957
-0.000392925
-0.00103479
0.00225867
-0.000657346
0.00833701
-0.00850519
0.000825516
0.00788592
-0.0147234
-0.000706838
0.0248652
-0.0144897
0.0167266
-0.0271021
-0.0664597
-0.0230876
0.0895473
0.0253577
-0.13567
0.126376
-0.0160635
-0.0551207
-0.0599565
0.115077
-0.0284236
0.0596856
0.0200909
-0.0513529
0.00306617
0.0037612
0.000866944
-0.00769432
-0.0342089
-0.0379631
0.0993314
-0.0271594
0.000968895
0.00230936
-0.00131329
-0.00196496
-0.0557562
0.0273325
0.0582886
0.0632936
-0.0618966
0.00279345
-0.000438017
0.00110272
-0.00345816
-0.01281
0.0015978
-0.0118821
0.0230942
0.00373641
-0.00351911
0.000687993
-0.000905287
-0.00177053
0.00361533
0.00611925
-0.00796405
-0.00181417
-0.000675811
-0.00117053
0.00366051
-0.00351342
0.0110494
-0.00744226
-9.36948e-05
0.000458434
-0.000411543
0.000819943
-0.000866834
0.0105418
-0.0613488
0.13299
-0.0821832
0.0299
0.0177
-0.0476
0.0341517
-0.0662287
0.061977
-0.00184932
0.00344604
-0.00113533
-0.000461393
0.00126714
-0.00169004
0.000238628
0.000184281
0.0198865
-0.0020362
0.0144502
0.015272
-0.0215399
-0.0211698
0.00553791
0.0300821
-0.0113387
-0.000872449
0.0088996
0.00331156
0.000885225
0.000382667
-0.000607377
-0.000660515
0.00308471
0.00465322
-0.00228238
-0.00545555
0.0115815
0.00508432
-0.00263517
-0.0140307
-0.00181167
0.00102183
0.000566087
0.000223755
-0.0349163
0.0528746
0.0418118
-0.0597701
0.00608156
-0.00912585
0.00075709
0.0022872
0.0206097
-0.055526
0.0266875
-0.0202002
0.0277802
-0.0342675
0.009117
-0.047572
0.0651425
-0.0517954
0.130592
-0.0176235
0.0347516
-0.0694494
0.0013149
0.000406849
-0.0025846
0.000862854
0.00716391
-0.0105147
-0.00202349
-0.023907
0.0347493
0.0791374
-0.0899798
0.00319473
-0.00982349
0.00274785
0.0038809
-0.00598459
0.0160076
-0.00357609
-0.00644696
-0.000997627
-0.00468439
0.00169054
0.00399148
0.0012527
-0.002869
0.00407538
-0.00245907
-0.000933139
0.000378139
0.00144023
-0.00173186
-0.000625259
0.00496638
-0.00260926
0.00699019
0.00746629
-0.00982479
-0.00463169
0.000957501
-0.00501702
0.0110497
0.00827946
-0.00714988
0.00139531
-0.00252489
0.019444
-0.0376119
0.00969382
-0.000516939
0.00058583
-0.000560386
0.000491495
-0.0862665
0.00347549
-0.0654048
0.0694635
-0.0040587
-0.00184265
-0.00195282
0.00785828
-0.00406281
0.0922074
-0.0518471
-0.0999847
0.0596245
-0.0271849
-0.0630427
-0.0410863
0.000527237
0.00280624
-0.00043122
-0.00290225
-0.000319961
0.00360404
-0.00110907
-0.00217501
-0.00337322
0.00428408
0.00083208
-0.00174293
0.000441395
-0.000204244
2.1713e-05
-0.000258864
0.000459997
0.000754099
-0.0018404
0.000626301
0.00211671
-0.0143115
-0.00540383
0.0175986
-0.0254984
-0.0531377
0.0877531
-0.0599499
-0.0689574
-0.0171589
0.146066
-0.000212223
0.00110345
-0.00186875
0.000977515
0.000592996
-0.00209619
0.000552885
0.0300248
-0.0597851
-0.0201236
0.0297943
-0.0351691
0.00136067
-0.00359725
0.00145541
0.000781173
0.00513964
-0.00204297
-0.00184397
-0.00143198
0.000220179
0.00076173
0.000450073
0.00198355
-0.00464622
-0.000152268
0.00281494
0.000779344
-0.000186348
-0.0166203
0.00348703
0.012383
0.000750294
0.0900634
-0.0277619
-0.032732
-0.0295695
-0.015468
-0.0433979
0.151073
-0.00779838
-0.00770554
0.0088312
-0.00060331
0.047683
-0.0611778
0.0161751
0.0666163
-0.020273
-0.0625184
-0.000663173
0.000343038
-0.00031606
0.000636195
0.000842788
0.00168593
-0.00337976
-0.00807991
-0.0163863
0.0168942
0.00757198
-0.00177583
-0.00284488
0.00288885
0.000439843
-9.72447e-05
-0.000841083
0.000498485
0.00343409
1.1206e-05
0.0385546
-0.0419999
0.0308968
0.00016069
-0.0276234
-0.00673943
0.00121734
-0.0494044
0.00659284
0.0374875
0.00532407
0.0351137
-0.0351282
1.45528e-05
-0.0188864
-0.0435146
0.0129966
0.0402034
0.00150306
0.00363342
-0.00165557
0.000561361
-0.00253921
-0.00337381
0.0112871
-0.00109589
-0.00681738
0.00749955
-0.0117889
-0.00139741
0.00568672
0.00800437
-0.0112541
0.0107493
-0.0186324
0.0122824
-0.00530746
0.0116575
0.0166499
-0.0141708
-0.0211115
-0.0253867
0.0133547
0.012203
-0.000170941
-0.0141744
-0.00320791
-0.00263577
0.000525929
0.00144018
0.000669657
-0.00101778
-4.25581e-06
-0.000539719
0.00156176
0.00115922
0.0016153
-4.49429e-05
-0.000583155
0.000628098
0.00832607
-0.00986012
-0.0184174
0.0199514
-0.00517978
0.0193202
-6.76282e-05
-0.0140728
-0.00324533
0.000959479
0.00204685
0.000239007
-0.000709491
0.000267792
-0.000124843
0.000566541
-0.00547598
0.00679709
0.00251628
-0.00383739
-0.000981228
-8.1497e-05
-0.0011873
0.00088076
-0.000674687
-0.00359809
0.00204122
0.00522139
0.00410734
-0.00230979
0.00325834
-0.00505588
-0.0377311
0.0659575
0.0381943
-0.0664207
-0.000259834
-0.00174219
0.000814724
0.00129639
-0.00041563
0.00121489
0.0233974
0.0161321
-0.0395295
0.0434883
-0.0559645
0.0428557
0.0427502
-0.0296414
0.0257341
-0.0225662
-0.0653158
0.0254834
-0.022329
0.105396
-0.0573326
-0.000652304
0.00159702
0.0115976
-0.0125423
-0.033024
-0.0520051
0.0236441
0.0613849
-0.00112473
-0.000419704
0.00206872
-0.000524294
0.00972018
0.0145406
-0.0242608
-0.00357663
-0.00679601
0.00896003
0.00141262
-0.0194178
0.0390152
-0.00763758
-0.0119598
-0.0258413
0.0258352
6.0691e-06
0.0638366
0.0391346
-0.154818
-0.0381962
-0.00706289
0.0358247
0.00320172
0.000290009
0.000151386
0.0016944
-0.00117398
-0.000550846
3.04296e-05
0.00171947
-0.00272225
-0.000934687
0.00193747
0.000481535
0.000745503
-0.000408012
-0.000819025
-0.00297841
0.00270558
-0.00138362
0.00165645
0.000782013
-0.000360788
-0.000589948
0.000168723
-0.00227316
0.00120416
0.0072095
-0.0061405
-0.00110991
0.000102809
0.000248127
0.000758976
-0.00398196
0.00212939
-0.00056782
0.00242039
-0.00123587
-0.00372553
0.00350571
0.00145569
0.00191905
-0.00167237
0.00144771
-0.00640813
0.003785
0.00415952
-0.00449803
-0.00138007
0.00171857
0.00160525
-0.000376139
-0.000919074
-0.000310042
0.00608926
-0.00192974
0.00255395
0.00134913
-0.000836911
-0.0505517
0.0580434
-0.00204731
0.000551019
0.00254606
-0.00104977
-0.0354924
-0.00715935
0.000990434
-0.00144438
0.000453941
0.00111384
-0.00140866
-0.00088163
0.00117645
-0.00756745
0.00426411
0.00217841
0.00112492
0.0355207
0.0130289
-0.0466977
-0.00185181
0.000690654
-0.000643969
-0.000177623
0.000130938
0.000643475
-0.000203431
0.00112049
-0.00156054
2.82324e-05
0.0450158
-0.0521751
0.00187635
0.00269665
-0.00133264
-0.00324036
-0.00057043
-0.00069269
0.00105888
-0.072819
0.0504907
-0.0149686
0.0372968
-0.0217446
-0.080066
0.0289916
-0.00152617
0.000876682
0.000649487
-0.00697611
0.00652832
0.00360917
-0.00316139
7.4694e-05
0.00276959
-0.00255263
-0.000291647
0.000406528
-3.39271e-05
-0.000372601
-0.0557592
0.0340146
-0.00540052
-0.000734047
0.00351608
0.00261849
-0.000876337
-0.00127892
-0.00283375
0.00498901
-0.0061094
0.0189948
-0.0571319
0.0442465
0.00117147
0.000698731
0.00079122
-0.00266142
0.000257293
-0.00290291
-0.00417952
0.00682514
0.00356767
-0.00194094
-0.000956193
-0.000670533
-0.0018244
-0.0119362
0.0065899
0.00717075
-1.29745e-05
0.00242626
-0.00364916
0.00264204
-0.00252023
-0.0128012
0.0126794
0.0072841
-0.00441934
-0.010712
0.00784719
-0.00191565
0.00397204
-0.00200334
-5.30525e-05
0.000308886
0.00113611
-0.00044305
-0.00100195
0.000980901
-0.0018384
0.000247034
0.000610467
-0.00146071
-0.00104672
0.000331714
0.00217571
0.00303108
-0.0100398
0.00444655
0.00256218
0.00118529
0.00290757
-0.00672943
0.00263657
0.00726863
-0.00474845
-0.00512107
0.00260089
0.000574152
-0.00044713
-0.00035382
0.000226798
0.0149091
-0.000530263
-0.00711024
0.00227625
-0.00755942
-0.0025681
0.00785128
-0.00606934
-0.000210581
0.00427828
0.00200165
0.00479385
0.000432347
-0.00488052
-0.000345674
-0.00122948
0.00280983
-0.00275434
-0.000318499
-0.000103055
0.000421554
0.000506909
-0.000282098
0.000349341
-0.000136528
0.000444692
0.00244554
-0.00275371
-0.00243141
0.000212967
0.000369121
-3.71426e-05
-0.00441548
0.00553565
-0.00108303
-0.00795918
0.00219027
-0.00541537
-0.00819297
-0.0242083
-0.0207364
-0.0403238
-0.00583116
0.00691036
0.0483899
0.0598191
-0.0643164
0.0142656
0.0521692
0.000163201
-0.0602458
-0.00122587
0.000366462
0.00138166
-0.000522253
-0.113577
0.0198937
0.0303508
0.0633326
-0.0555238
0.0807857
-0.0228521
-0.00240982
0.00232524
-0.00199879
0.00457986
-0.00490631
5.7249e-05
-0.0555811
-0.00197223
0.0017847
-0.00162664
0.00154926
0.00183176
0.000268447
-0.00364947
-0.00201351
0.00076643
-0.00258516
-0.000667125
-0.00365244
1.43736e-05
0.00430519
-0.0554125
0.103781
-0.000490441
0.00361142
0.00354275
-0.00666373
0.0244368
0.0172658
0.0248755
-0.0393243
0.0862443
-0.0363783
-0.00180173
0.000778009
0.000409553
0.04017
-0.0402136
4.36328e-05
0.06023
-0.0205839
0.000523837
0.0691676
-0.107698
0.0760182
1.01687e-05
0.0693442
-0.000186741
0.00450768
-0.011954
0.00884884
-0.00140252
-0.000250604
-0.00226701
0.00301017
-0.000492561
0.00340681
-0.000929509
-0.0027279
-0.00241584
-0.00408617
0.00250987
0.00399214
0.0236886
-0.0475956
-6.93706e-05
0.00141115
0.00210426
0.0695009
0.00224001
-0.000936401
-0.00243894
0.0027358
0.00277444
-0.00210343
0.0022835
-0.000322361
0.000278865
-0.00069528
-0.00100573
0.00138095
0.000320059
-0.00126376
-0.000167108
0.000735585
-7.93692e-05
-0.000203486
0.129877
0.00136012
-0.00117509
-0.000264397
0.000692083
-0.000337696
0.0641532
-0.0602988
-0.00385438
0.00642285
0.00380614
-0.00703426
-0.00742439
-0.00582367
0.0145037
-0.00125562
-0.0061961
-0.00482009
0.00519671
0.00581948
0.00432668
0.00475359
-0.00494021
-0.00414006
-0.00859463
0.0228645
-0.0194208
0.00515093
0.000534826
0.00181091
-0.00919573
0.00684999
-0.00188114
0.0114828
0.00090012
-0.0105018
0.00927821
-0.0136306
-0.000667055
0.00115325
-0.00723971
0.00854347
-0.00245701
0.0025233
0.0150035
-0.0177282
0.000201391
0.00271093
-0.00134451
0.000938791
-0.00230521
-0.00191754
-0.00240549
0.00164509
0.00267794
-9.72031e-05
-0.000668332
0.000765536
0.00613975
0.000452125
-0.00369681
-0.00289506
-0.000632981
-0.000828976
0.000299249
0.00116271
-0.00311278
0.000336607
-0.00161529
0.00439146
0.017782
-0.0236789
4.05634e-05
-0.000254264
0.000524773
-0.000311073
-0.00464238
0.00216225
-0.00063266
-0.00425014
-0.00473074
0.00528458
0.0036963
0.00960681
-0.010821
0.000255655
0.000958556
0.000743503
0.00479484
0.0115596
-0.0170979
-0.0176679
-0.00220826
0.0139726
0.00590352
0.000123731
0.000377044
-0.00154524
0.00104446
0.00101748
0.00284105
-0.00310912
-0.000749411
-0.00110198
0.00103905
-0.000187744
0.000250681
-0.00179102
-0.00187284
0.00102809
-0.00119104
-0.00514779
0.00750338
-0.00116456
0.000284539
0.000674844
0.000207322
-0.00116671
-0.000730186
0.000232777
0.000497409
-0.00186564
-0.000939899
0.000118051
-0.00275837
-0.0101111
-0.00130539
0.0141749
-0.000949891
0.00140295
0.00463739
-0.00509045
-0.000749691
0.000575871
0.00283689
-0.00266307
-0.000646183
0.00205281
-0.00498624
0.00357961
-0.0011766
0.000561977
0.000515466
9.91578e-05
0.00334931
0.00212988
-0.00580234
0.000323149
-0.0108539
0.000485066
0.00280139
0.000374697
-0.00070954
0.00160198
0.00694959
0.000590873
-7.41655e-05
-0.0104445
0.00508974
0.0101303
-0.00477547
0.0257454
0.0599894
-0.123466
-0.00489822
-0.00174678
0.00313159
-0.00218654
-0.0144541
0.00799603
0.00373411
0.00262499
-0.00872262
0.00236352
-0.00488663
0.00922148
-0.0142761
-0.00850614
0.0167521
-0.00445746
-0.00378851
0.00166898
-0.00329592
0.00322188
-0.00159494
-0.000399425
0.000636003
-0.000236578
0.00523547
-0.00579044
0.000150087
0.000404877
0.00409537
-0.00681262
0.000866297
0.00185095
0.000411212
0.00276954
-0.000231898
-0.00294885
-0.000498284
-0.00946507
-0.000135133
0.0100985
0.00482577
-0.0043335
-0.00117464
-0.000423006
-0.00380288
-0.00157418
0.000943737
0.000418222
0.00179443
0.00223811
-0.0112996
0.00726706
0.000973313
-0.00157234
-0.000609361
0.00120839
0.0535867
-0.0782839
0.0246972
0.00120915
0.00136356
-0.00149495
-0.00107775
-0.00277715
-0.00104073
0.00381788
-0.00147736
0.000826369
0.000650993
-0.0578832
0.0893867
0.00422408
-0.0357276
0.00156739
-0.00103352
-0.000387963
-0.000145905
-0.000435994
0.00200338
0.036134
0.0039704
0.0148167
-0.00392698
-0.0108032
0.00258004
0.0121502
0.00179595
-0.00246906
0.000237113
0.00134507
0.0102962
-0.00731462
0.00555669
-0.00376074
0.00397985
-0.00605829
0.00355492
-0.00147648
-0.00755503
0.0040308
-0.00518524
0.00870948
0.00125432
-0.00725923
0.00505502
-0.00452358
-0.0032835
-0.002075
0.00988208
-0.00435796
0.00373259
-0.000124329
-0.00239516
-0.00071656
0.00243552
0.000676202
0.00126435
-0.000441325
-0.000823021
0.00810008
-0.00894788
0.00210212
-0.00778434
0.00188267
0.00560549
0.000296181
0.000480581
0.000218006
-0.000497197
-0.00020139
-0.00155231
6.17586e-05
0.00306593
-0.00157538
-0.00528681
-1.11922e-06
0.00669088
-0.00139946
-0.000166943
0.00614814
-0.00458173
-0.0214732
0.000790683
0.002601
0.0180815
-0.000876423
0.00470312
-0.00129527
-0.00253143
0.00104042
0.000810115
-0.00115589
-0.000694646
-0.000589349
0.00882268
-0.00874105
0.00050772
0.00216161
0.000732938
0.00364389
-0.00653844
0.00373324
-0.0019095
0.00037453
-0.00219827
0.000556415
0.00262664
0.00847207
-0.0116551
0.0079579
-0.00400269
0.0117348
-0.01569
0.00194202
0.000882979
0.000228206
-0.00305321
0.000262002
0.00149171
-0.000780401
-0.000634233
0.00226418
0.00360552
-0.000980731
0.000628918
-0.000320718
0.000672531
0.000569307
0.00102696
-0.00181355
0.000217277
-0.000387908
-0.0024413
0.00180242
0.00102679
0.00180941
0.00131677
-0.00316144
3.52648e-05
0.00314683
-0.000758851
0.000347821
-0.00936542
-0.00515548
0.0164304
-0.000196189
-0.00091487
-0.000700608
-0.019185
-0.00873029
0.0112374
0.0166779
-0.00699735
0.0032631
-0.00609055
-0.00049884
0.00130284
-0.00378241
0.00337592
-0.0038823
0.00139445
-0.000888067
0.000839341
-0.000797239
-4.21028e-05
0.000387379
-0.000501639
0.000862743
-0.000748483
-0.0076244
0.00429056
-0.001453
0.00478684
0.000652392
-0.00044006
-0.000355522
0.000143191
1.8712e-05
0.000259109
0.000762598
0.00696909
0.0024923
-0.00762258
-0.00183881
0.0293778
-0.0175365
0.00224439
0.00113056
0.000809377
0.00129248
0.000618998
-0.00272086
0.00059814
-0.000553385
-4.47552e-05
0.00793147
0.00659216
-0.0229882
0.00846456
0.00018534
-0.00104806
-0.00205673
-0.00169847
0.00141637
-0.00313978
0.00342188
-0.000101479
0.00198028
0.00094495
-0.00282375
0.00370164
-0.00186345
-0.00357321
0.00173502
-1.76116e-05
-0.0040823
0.00212768
0.000811681
-0.000749746
0.000720079
-0.00550151
0.00323001
0.00163726
-3.54318e-05
-0.000463251
-0.000668796
0.00116748
-0.00227447
0.00106186
-0.0023074
-0.000256729
-0.00418157
0.000759431
0.00367887
0.00114358
-0.000639235
-0.0015582
0.00105385
0.000362811
-0.000118078
-0.00474931
0.00450458
-0.00124724
0.00183471
0.000148896
-0.000736368
-0.00338625
0.00386387
-0.00186379
0.00138618
-0.000135947
0.00200993
0.00116242
-0.00264642
0.00197115
-0.00248611
0.00815919
-0.00764423
0.00274619
0.00260696
0.00251574
-0.00786889
0.0235201
-0.00638727
0.0158445
-0.0329773
0.000717242
-0.00711928
0.00280929
0.00359275
0.00340578
-0.002737
0.000490441
0.00218297
-0.00151244
0.00303111
0.000920328
0.00585484
-0.00429139
-0.00248377
-0.0166929
-0.00192919
0.0233668
-0.00235617
0.00147908
0.000741147
-0.0188509
-0.0127223
0.0261996
0.0053736
0.0696657
0.0440788
-0.055428
0.00222971
-0.0020884
0.000366748
-0.000508057
0.00126437
-0.00080244
-0.000802007
0.000340081
-0.000194176
-0.00212516
-0.00166262
-0.00065013
-0.00298353
-0.00569095
0.00932461
-0.00228432
0.000664349
0.00206299
-0.000443014
-0.0486913
0.0466727
-0.00590766
0.00792622
0.00210021
-0.00259117
6.69959e-06
0.000484262
2.55288e-05
-0.00248546
0.00287114
-0.00390628
0.0754758
-0.129453
0.000175081
-0.000228592
0.00298338
0.0132533
-0.00702061
-0.00676295
0.000149359
0.00119246
0.00102946
-0.00237128
-0.00795262
0.0041088
-0.00357845
0.00742227
0.000800858
0.00276061
-0.00144882
-0.00211265
0.00208973
-0.00181515
0.00146185
-0.00173644
-0.0011592
0.00144106
-0.00268939
0.00240752
0.000204377
0.00151645
-0.00116124
-0.000559587
0.00078874
0.00213458
-0.000823108
0.0026321
-0.00158136
-0.00310663
-0.00286409
0.00116538
-0.00465729
0.00563763
-0.00168815
-0.00550087
-0.0100763
5.26836e-05
-0.0020086
-0.00203381
0.00374352
0.00185796
-0.041683
0.0101721
0.0202319
-0.00301679
0.0143473
0.0122922
-0.0236227
0.00210309
-2.30955e-05
-0.00174447
-0.000335527
0.00190243
-0.00134166
0.00154233
-0.00760516
-0.0247737
0.0079707
0.0244081
-0.00118875
-0.00167304
0.000288993
0.0025728
0.0179006
-0.00574223
-0.00316147
-0.00899686
-0.00151733
0.000528686
-0.00086345
0.00277711
-0.00274098
-0.00557601
0.00553988
-0.00502776
-0.00268644
-5.75351e-05
-0.00424393
0.00410404
0.0034948
0.00439952
-0.00688593
-0.00100839
-0.00214189
-0.00172525
0.00143241
0.000268376
-0.000271566
-0.000726996
-0.000635763
-0.00328983
0.0017085
0.00221709
-0.0241223
-0.00391352
0.000921512
-0.0139765
0.00220113
0.0112254
-0.00676267
0.00250633
-0.00581696
0.00605425
0.00349911
-0.00675807
-0.00600091
0.00564874
0.00389073
0.00448606
-0.0059077
-0.00246909
-0.00226657
0.000858107
0.00709703
-0.00568856
-0.00124902
0.000233144
0.0042436
-0.00322772
-0.0340223
0.0117994
-0.0033359
-0.00219781
-0.000804583
-0.002217
0.00361272
-0.000591142
-0.00762849
-0.000727254
-0.00115887
-0.000423547
-0.00116269
0.00141252
-0.000680806
-0.000429107
0.000712761
-0.000908523
0.000195762
0.000453059
-0.00132411
0.000646961
0.000224086
-0.00149941
-0.0105727
0.0145645
0.00136233
-0.00132859
-0.000901621
0.000867875
0.00209913
0.00406129
0.00222815
-0.00482209
-0.00146735
0.00066977
0.000395515
0.00256813
-0.00180795
0.00897186
0.00407509
-0.0049702
-0.00262399
0.0425587
0.0209758
-0.025324
0.00270833
0.00163992
0.0142423
-0.00210858
-0.00879314
-0.00334058
0.00517844
-0.0117676
0.00906369
-0.00247457
-0.0217035
0.011535
-0.00868243
-0.00825412
0.0074245
0.00959916
-0.00876953
0.0842647
0.0136206
-0.0978853
-0.00413484
0.00911484
-0.00189529
-0.00125601
0.00127473
-0.000473705
0.0029768
0.00140685
0.000374619
-0.00168343
-9.80371e-05
-0.00188373
0.00992998
0.000785462
-0.00883171
-0.000597844
0.000114034
0.000871189
-0.063393
0.0615941
0.00179884
0.00846345
-0.00563086
-0.0111728
0.00834019
0.016084
-0.0174877
-0.000986461
0.000935228
-0.00292137
0.00181475
-0.00115762
0.000193552
0.00286333
-0.00125654
-0.000637896
0.0032599
-0.00506629
0.00141848
0.000465603
0.00110178
-0.000854626
-0.00210221
0.0015867
-0.000592254
0.00293879
0.000894081
-0.00144178
-0.00150055
-6.497e-05
-0.00117078
0.00102428
0.00805891
-0.00973549
-0.000165969
0.000546152
-0.000520147
-0.00124133
-0.00380718
0.00293235
0.00284483
-0.00258076
-0.00319642
0.00129018
-0.000136588
0.00177876
-0.000907117
0.00141502
0.00233692
0.000424687
-0.00392517
0.000865312
0.000911316
0.00214854
0.00263508
0.000137585
-0.00393186
0.007438
-0.00639691
0.0075022
-0.00854329
0.00803736
-0.0097757
0.00421249
0.00128908
-0.001459
-0.00404258
0.000690378
-0.000183469
-0.00646108
-0.0138277
0.00442214
0.00420032
0.0052052
-0.00224249
-0.00126009
-0.0028608
-0.000291226
0.00134676
0.00180527
-0.000873777
0.00161185
-0.00335014
0.00108527
-0.000607275
-0.000103301
0.00104406
0.00576415
-0.00454402
-5.37281e-05
-0.000936625
-0.00209564
0.003086
0.000636846
0.0030418
0.140463
0.00498343
-0.09435
0.00158135
0.00074224
-0.000916739
0.00101425
-0.00589893
0.00136709
0.00351759
-0.00266182
-0.00561132
0.00494823
0.00332491
-0.000490993
0.00374932
-0.00305755
0.00309363
-0.00348468
0.0034486
-0.00168579
-0.00125692
-0.000426706
0.00336941
-0.00394203
0.0023543
0.000328198
0.00415207
-0.00727064
-0.00769242
0.00209215
-0.00316629
-0.000928291
0.00370932
0.000525557
0.0024522
-0.00153669
-0.00425309
0.00169301
-0.000497471
-0.000213065
-0.00184213
-0.00350874
0.00214241
-0.000912588
-6.70506e-05
-0.0025291
-0.0021334
0.0052271
-6.41487e-08
0.00200601
-0.00354547
-0.000494347
-0.00189324
-0.000696367
0.00165298
-0.000183085
8.9851e-05
0.00198618
-0.00189295
-0.00315208
0.00350589
-0.000536899
-0.0306201
-0.0251449
-0.000205999
-0.00185059
-0.00109549
0.00142822
-0.000119117
-0.000195262
0.000839342
0.000422364
0.000166513
0.127006
-0.0482054
-0.11301
0.0391047
-0.0318933
-0.00570831
0.000379082
-0.00213202
0.000344274
-0.00179788
0.000624182
0.00029207
2.66682e-05
-0.00243011
-0.00152546
-0.00508606
0.00439452
-0.00244729
0.00416591
-0.00272979
0.00101117
0.00463741
-0.00231852
-0.00263886
-0.000653748
0.00119058
0.00343386
0.00129852
-0.00348116
-0.00196275
-0.00128825
0.00361724
-0.000366242
-0.00272954
0.0020535
0.000574565
-0.000724699
-0.00193015
-0.00338112
-0.00168944
0.00328231
0.00178825
-0.00110886
0.00180369
0.000796887
-0.0021064
0.0413886
-8.57807e-05
-0.000344979
0.0166077
0.0172346
-0.0334974
0.0131109
-0.027295
0.0138391
0.0086956
-0.0189949
0.0102614
3.78934e-05
0.00950327
0.0100254
-0.0108331
-0.00742937
-0.0122688
0.000703272
-0.0253866
0.0290278
-0.011397
0.0146672
-0.00062812
-0.00157932
0.000443679
0.00647696
-0.0017104
-0.014442
0.00967544
0.0062749
-0.00678242
0.00568596
-0.0166288
0.0207938
0.00210991
-0.0166538
-0.000944149
0.0154637
0.00213427
-0.00768305
0.012116
-0.00423119
0.00348608
-0.00799891
-0.000168491
0.000386208
-0.00152512
0.0013074
0.00220592
-0.00117232
-0.00122778
-0.000669611
0.000773482
-0.00255116
0.00592216
-0.00915221
-0.0114786
-0.0106951
0.00176975
0.00067119
0.0062358
-0.00797688
-0.0124333
0.0014084
-0.00849955
0.00982465
-0.0216678
0.002149
-0.00824558
0.00648871
-0.0071303
0.00888716
0.00429037
-0.00110925
-0.00411063
0.00393391
-0.00322557
0.00260311
-0.00331144
-0.00277376
-0.00215783
0.00368257
-0.00190284
-0.00341304
0.00185806
0.00345782
-0.000168492
-0.000953064
-3.60646e-05
0.00316374
-0.00231982
0.0023029
-0.00263662
0.00279073
-0.00139531
0.0012412
0.00356026
0.00109248
-0.00293326
-0.00562871
-0.00114001
0.00215599
0.00461273
-0.00111891
-0.000320119
0.000213158
0.00281618
-0.00469678
0.00301286
-0.00113226
0.00302007
-0.00381615
-0.00598053
0.00677661
0.00464202
-0.00299705
0.0011712
0.00845997
-0.000797875
0.00236434
-0.00504837
0.00326436
-0.000580329
0.00138925
0.00342074
-0.00244566
-0.0102241
0.00395794
-0.00466524
0.0109314
0.0147035
0.00359761
-0.011695
-0.00719477
0.00594097
0.00680036
-0.00554657
-0.00143879
0.0119867
-0.00651708
0.140721
-0.0691271
-0.00597689
0.0202644
-0.00979445
-0.0069839
-0.00610243
0.00989102
-0.00389283
0.000104236
-0.0012522
0.00120755
-0.00184859
0.00195235
0.00189161
0.0022376
0.00418223
-0.00679692
0.00456705
-0.00235917
0.000438964
0.00571009
-0.00124379
0.00542472
0.00239824
-0.00106349
-0.0027953
0.00146055
-0.00112224
0.0045252
-0.00100471
-0.0084903
0.0234927
0.00289986
-0.000563673
-0.00196972
0.000117964
0.00160107
0.00118082
0.00125176
-0.000543995
-0.00127143
0.00259251
-0.00087935
-0.000461409
-0.00190383
0.000603335
0.00141846
0.000800104
-0.000747544
0.000725462
-0.00291302
-0.000228282
-0.00157992
0.00506969
-0.0043661
0.00631609
0.00318415
-0.00901517
-0.00204602
0.00454643
0.0017637
-0.000109054
0.00437912
0.00211719
-0.00654201
0.00431576
-0.00788523
-0.000528957
0.00782484
-0.105621
-0.0323977
-0.0427162
0.180735
-0.0090079
-0.00245396
-0.00873291
-0.00354816
0.00548505
0.153045
-0.0624665
0.0838295
-0.174408
-0.0474291
-0.0783368
0.124394
0.00137187
-7.72361e-05
0.00828422
-0.00886433
0.00256896
-0.000938618
0.0129257
-0.0145561
-0.000301089
-0.0192583
0.00954537
0.010014
0.00540443
-0.0367484
-0.00383846
0.0351824
0.00369626
-0.0150305
0.0118907
-0.00506842
-0.0103817
0.00532691
-0.00383296
0.0112105
0.0324918
0.0388737
-0.00185287
0.0615933
-0.0755313
0.00756462
0.00214592
-0.00227254
0.00402276
-0.00151021
-0.00376725
0.00125469
-0.000451875
0.00558897
-0.00111433
-0.000495683
0.00301781
-0.00196938
-0.000552749
0.00282257
-0.00162968
-0.00168857
0.00273467
-0.00236592
-0.00959718
0.00922844
-0.000836387
0.00142294
-0.00157621
0.000989659
-0.00113557
-0.00138066
0.00205484
0.000650696
0.000846547
0.000147214
0.00167162
-0.00133658
-0.00129538
0.000960335
0.00243341
-0.000185914
-0.000520215
-0.00253631
-0.000540188
0.00359671
-0.0138241
0.0287055
-0.0309585
0.0160771
-0.00840925
-0.00768737
0.00346982
0.0100344
-0.00776552
-0.00573868
0.025237
-0.0190139
-0.000818661
-0.029398
0.00917086
0.0245445
-0.00431735
-0.0101567
-0.0319636
0.00462592
-0.00811304
0.00809386
-0.00460673
-0.0118048
0.000142677
0.0134751
-0.017561
0.00881857
0.00844129
-0.00554326
-0.0010003
0.0144602
0.00747869
0.00426079
-0.00942916
0.0183461
-0.00241688
0.00167225
0.0008116
-6.69704e-05
-0.00316393
0.00131482
-0.000510532
0.00235965
0.000740286
0.000349865
-0.00425408
-0.000173237
-0.000134248
-0.00210939
0.000941759
-0.000626168
0.000717927
-0.00103352
0.000124245
-0.00112611
-0.000229345
-8.39878e-05
0.000771767
0.00118314
0.000800248
-0.00112542
-0.000857963
-0.000258605
0.000339315
0.000569334
-0.000650044
0.00054596
0.000378575
0.00224569
-0.00162191
0.00358872
0.000237129
-0.000939298
0.00294785
-0.0104567
0.00734231
-0.00869041
-0.00308579
0.0116471
-0.00578416
-0.00910371
0.0104506
-0.00336944
0.00825278
-0.00462605
-0.00553378
-0.000249391
-0.00582693
0.00545278
0.00379879
-0.00299476
-0.00625681
-0.000112622
0.00539552
0.000169883
-0.00296214
-0.00800856
0.00821233
0.00885059
-0.00832571
-0.00813139
0.000710542
0.0111972
-0.0037764
-0.00174771
0.000676224
0.00194298
-0.000871493
0.00451696
-0.00330206
-0.00934629
-0.000797669
0.003611
-0.00208787
-0.00219735
0.055784
-0.00067678
-0.0334202
0.0204067
-0.00210006
0.00906469
0.00852379
-0.00803686
-0.00437975
0.0548806
-0.0287628
0.056566
0.00513489
-0.000493074
-0.00501623
0.000374413
-0.00127338
0.0681255
-0.0668522
-0.0659231
-0.0801819
0.0809387
0.00662689
0.0025802
-0.0040722
-0.0022701
0.0002906
-0.00770957
0.00692589
0.00260179
-0.00643162
0.00521385
-0.00138401
0.000859916
-0.00935382
0.00266913
0.000930261
0.00161446
-0.00664257
0.00685838
-0.0101161
0.0172383
-0.00973178
-0.163629
-0.0539637
0.0417631
-0.0280233
0.021167
-0.000853057
1.89965e-05
0.000834061
0.000944981
0.00450906
-0.00471375
0.000162644
-0.0032931
0.00407543
0.000360263
-0.00121332
-0.00339355
0.00438296
0.00315095
-0.00414036
0.00274593
-0.00541271
-0.0045038
0.00717059
-0.000545003
0.00490827
0.00162104
-0.00598432
0.0224352
-0.0231508
-0.00151715
0.00223271
-0.00750055
-0.000344087
0.00518308
0.00266155
-0.00294861
0.00161493
0.00191896
-0.000585271
0.00260552
-0.0069882
0.00246515
0.002151
-0.00249409
-0.000670849
0.00264465
-0.000358868
0.00289771
-0.00116252
0.000415806
-0.00942415
0.00855152
-0.000758081
0.000397292
0.00843792
0.000135341
-0.015768
0.0019243
-0.00231711
0.00262252
-0.00136458
0.00218646
0.000199556
-0.00104298
0.00278606
0.00103345
-0.00277653
-0.00498154
-0.00379382
-0.0013288
-0.00237793
0.00104171
-0.000724378
0.00347155
-0.0245399
0.0160507
-0.00070527
2.1666e-05
0.0014308
-0.000747193
-0.00492606
0.00204785
0.00389245
-0.00122577
-0.00152213
0.00206709
-0.000150156
-0.00112495
0.000446602
0.0008285
0.000627275
-0.000394497
0.00264572
-0.000133695
-0.00700737
-0.000377974
-0.00565353
0.00944044
-0.00340894
-0.0023969
0.00343447
-0.00178034
0.000742772
0.00160567
-0.0017055
0.00855981
-0.00308286
0.00730881
-0.00460393
0.000703176
-0.000222595
-0.00460444
0.0108348
-0.00348439
-0.00753229
0.00243976
-0.0040145
0.00611802
0.00183039
0.0021542
0.00170668
-0.00216043
-0.0039042
-0.00155367
0.00295706
8.94439e-05
-0.00149283
0.0050668
-0.000763317
-0.00312494
-0.00117855
-0.00367946
0.00540819
-0.00383427
0.00210554
-5.66398e-05
0.00127481
-0.00153666
0.00382802
-0.00356617
-0.000445336
0.000685003
0.000166861
-0.00050882
-0.00562604
0.00383926
0.0022956
-0.00023485
0.00280917
-0.000229137
-0.00234518
-0.000464082
0.00233227
-0.00223042
0.000362239
0.000923256
0.000892781
0.00958193
-0.00535882
-0.00511589
-0.000440868
0.00602588
-0.000445373
0.00538813
0.00798892
-0.0103291
-0.00230354
0.00393896
0.000494462
0.00492489
0.00760071
-0.00801792
0.00168246
0.00305656
0.00329834
0.000210323
-0.000726913
0.00051659
0.00109659
-0.00166567
4.81429e-05
0.000520927
-0.000595355
0.000301334
0.00292228
-0.00262825
-0.00181551
0.00204443
-0.00347425
0.000966081
0.000750702
0.00123116
-0.00294794
-0.00103525
-0.000875507
0.00191075
0.00224662
-0.000693295
-0.000752469
0.00271723