/*--------------------------------*- C++ -*----------------------------------*\
| =========                 |                                                 |
| \\      /  F ield         | OpenFOAM: The Open Source CFD Toolbox           |
|  \\    /   O peration     | Version:  2506                                  |
|   \\  /    A nd           | Website:  www.openfoam.com                      |
|    \\/     M anipulation  |                                                 |
\*---------------------------------------------------------------------------*/
FoamFile
{
    version     2.0;
    format      ascii;
    arch        "LSB;label=32;scalar=64";
    class       volScalarField;
    location    "0.0501868";
    object      nut;
}
// * * * * * * * * * * * * * * * * * * * * * * * * * * * * * * * * * * * * * //

dimensions      [0 2 -1 0 0 0 0];

internalField   nonuniform List<scalar> 
3948
(
0.00199665
0.00271726
0.00440423
0.00132926
0.00131751
0.0055675
0.0013293
0.00133682
0.0024917
0.0072916
0.00365119
0.00492201
0.00168391
0.00181737
0.000860432
0.000744791
0.000940637
0.00375672
0.00119057
0.00435464
0.00299401
0.0013347
0.00324052
0.00537852
0.00421328
0.00110784
0.00438617
0.00211582
0.00270159
0.00439515
0.00269338
0.00210754
0.0020589
0.00234363
0.00107482
0.00439914
0.000660727
0.00165836
0.000617657
0.000844055
0.000716434
0.00175511
0.00207386
0.00206759
0.00532312
0.00193564
0.00209352
0.00218484
0.000818579
0.000782821
0.00430208
0.000793379
0.000532859
0.000531976
0.000647612
0.00106805
0.00691036
0.00239491
0.000881053
0.00509062
0.00168529
0.00148201
0.0016575
0.00273046
0.00258866
0.00213199
0.00266272
0.00284702
0.00286066
0.000395445
0.0026246
0.00181992
0.000416354
0.00730605
0.00394376
0.00559173
0.00374058
0.0028649
0.00114367
0.00320422
0.00148268
0.00160296
0.00318114
0.00539674
0.0017774
0.00122072
0.000601655
0.00118831
0.00236237
0.00658511
0.00354106
0.00578419
0.00183352
0.00308776
0.0046782
0.00242815
0.00250728
0.000860426
0.00625067
0.00549276
0.00413196
0.00324541
0.00191539
0.00485398
0.00417492
0.00276816
0.00437628
0.0028739
0.000962814
0.00367917
0.00309958
0.00182052
0.00293211
0.0035166
0.00391569
0.00500571
0.00327272
0.0018052
0.0037248
0.000164809
0.00362009
0.00495557
0.00174755
0.000572086
0.00265266
0.00513874
0.00192493
0.00125348
0.00127568
0.00242314
0.00314243
0.0057849
0.00137738
0.00114216
0.00569137
0.000994318
0.00368554
0.00114328
0.000785021
0.00327579
0.00122117
0.00280984
0.00699723
0.00505721
0.0024493
0.00507515
0.0049467
0.00205153
0.000695575
0.0023587
0.00512876
0.00195957
0.00336561
0.00203487
0.00342945
0.00467306
0.00523094
0.00307598
0.00174548
0.00242304
0.00390088
0.00241556
0.00530159
0.00671202
0.00680826
0.00600752
0.00185538
0.000943933
0.00257115
0.00227124
0.00405053
0.0041025
0.00320119
0.00141609
0.000548661
0.00596236
0.00333809
0.00146274
0.00453469
0.0048212
0.00256176
0.000948176
0.00218074
0.00209422
0.00553636
0.0019022
0.00192934
0.00485315
0.00277311
0.00356613
0.00306367
0.00260906
0.00505964
0.00295303
0.00424553
0.00537297
0.00441869
0.00212507
0.00334082
0.00290297
0.00278463
0.00511375
0.000448092
0.00354358
0.00195349
0.00369775
0.00218961
0.00108088
0.0018497
0.00223758
0.00473174
0.00100577
0.00376136
0.00332274
0.00430615
0.000644216
0.00458074
0.00141434
0.000947977
0.00382941
0.000918714
0.00240045
0.00209169
0.0058208
0.00324197
0.00458005
0.00226838
0.00366135
0.00720752
0.0023489
0.000996196
0.000794329
0.00330032
0.00226329
0.00204154
0.00138032
0.00401429
0.00273198
0.00489666
0.000180453
0.00271883
0.00385333
0.00396442
0.00257508
0.00172976
0.00394979
0.00236459
0.00196401
0.00519337
0.00656986
0.0054379
0.00469691
0.00734794
0.00320649
0.00106269
0.00187583
0.00202772
0.000493545
0.00308041
0.00437491
0.00361434
0.00161861
0.00191598
0.000291755
0.000588209
0.00180066
0.00164618
0.00333511
0.000891318
0.00107477
0.0040695
0.0034717
0.00413187
0.00140186
0.00175641
0.00296085
0.00168124
0.00253642
0.00278544
0.00165844
0.00212524
0.00269708
0.000985855
0.00107055
0.00337487
0.0041121
0.00301251
0.00230262
0.00201391
0.00291858
0.00157302
0.00259848
0.00263824
0.00224844
0.00185394
0.00256649
0.0017934
0.00085143
0.00125994
0.00119358
0.00122276
0.000432811
0.00604709
0.0016893
0.00358425
0.00488878
0.00500997
0.00220622
0.000581571
0.0030831
0.00654549
0.00362196
0.00198831
0.00133768
0.00626964
0.00475607
0.00101277
0.000765659
0.00205242
0.0013263
0.000798709
0.00187854
0.00191432
0.0014632
0.00536757
0.00439397
0.00510121
0.00489806
0.00377131
0.00446428
0.00144044
0.000627281
0.000546063
0.0018958
0.00105042
0.00605547
0.000168044
0.00326653
0.00174509
0.00123361
0.00105469
0.0021105
0.00157122
0.00185848
0.00255527
0.0021686
0.00262959
0.0013038
0.00195672
0.00196994
0.00352921
0.0011322
0.00220701
0.000942479
0.0020614
0.00544039
0.00480884
0.00177391
0.0049441
0.00372904
0.000903944
0.00364413
0.000481779
0.00163166
0.0030043
0.0014576
0.00385149
0.00515427
0.00408259
0.00392638
0.00339012
0.00315104
0.00263552
0.00187931
0.00182842
0.000972566
0.00125181
0.000945447
0.00434959
0.00292112
0.00240214
0.00200817
0.00395469
0.00283779
0.00131722
0.00119478
0.00155447
0.000569941
0.00176452
0.00196901
0.00227446
0.00298691
0.00262118
0.0028493
0.0061287
0.00593851
0.00537056
0.00635828
0.00570534
0.00081506
0.00343153
0.00534773
0.00578472
0.00394103
0.00625882
0.0045557
0.000907986
0.00238883
0.000624356
0.00270949
0.00693662
0.00680027
0.0042191
0.00288127
0.00353669
0.00381155
0.00372941
0.00473898
0.00271082
0.00645322
0.00625513
0.00553905
0.0011963
0.00121855
0.00116085
0.00142118
0.00562547
0.000749122
0.0063236
0.00272119
0.00389603
0.00277007
0.00239104
0.00229406
0.000617743
0.00108388
0.00140542
0.00135087
0.00135132
0.00240171
0.00356693
0.00394596
0.000314372
0.00219587
0.0028375
0.00237154
0.000471824
0.00494377
0.0018063
0.00506839
0.00122461
0.00290462
0.00406045
0.0063316
0.000677736
0.00372629
0.00248139
0.00260657
0.00317926
0.00475239
0.00276277
0.00340051
0.00548294
0.00145999
0.00320004
0.00218886
0.00220572
0.00328723
0.00231938
0.00079163
0.000707595
0.00192905
0.000427644
0.00163763
0.00313708
0.00299311
0.00272249
0.00395387
0.00383504
0.00186015
0.00223316
0.00185691
0.00232813
0.00703339
0.00730159
0.00586473
0.00488545
0.00170667
0.00234472
0.00238575
0.00111152
0.00145372
0.00192571
0.00194041
0.00370713
0.000522477
0.000581123
0.00139146
0.00280951
0.00176739
0.00178335
0.00253744
0.00274809
0.00216759
0.00164392
0.00404694
0.0030164
0.000633876
0.00340815
0.00321643
0.00484907
0.00308269
0.00247088
0.0018311
0.00184055
0.00175171
0.00162283
0.00578563
0.000921315
0.000921133
0.000905084
0.000817514
0.00114295
0.0024902
0.00115347
0.00131631
0.00162393
0.00237505
0.00371822
0.00225926
0.00243451
0.000677821
0.0043773
0.00525201
0.00515731
0.00364595
0.00343211
0.00201787
0.00239711
0.0061886
0.00519013
0.00532852
0.00193245
0.00166347
0.00174847
0.00145413
0.00378447
0.00410299
0.00477946
0.00494349
0.00501503
0.00338159
0.00536863
0.00636442
0.0046135
0.00387813
0.00326517
0.00303044
0.00336795
0.00543906
0.00457897
0.00264916
0.00292978
0.00304716
0.00304132
0.00600426
0.00290003
0.00169946
0.00266848
0.00282585
0.00239795
0.00652707
0.00648314
0.00597306
0.00391831
0.00335314
0.00654159
0.00490105
0.00633312
0.00314876
0.00314258
0.00429681
0.0029504
0.00281672
0.00304119
0.00296112
0.00246089
0.00255518
0.00689966
0.00728567
0.00689072
0.00474082
0.00320524
0.00339601
0.00326462
0.00359828
0.00327138
0.00329383
0.00167941
0.00147427
0.000882448
0.00156197
0.00268234
0.00192112
0.00352792
0.00743321
0.00665787
0.00697645
0.00241666
0.000910841
0.000835816
0.000670425
0.000844208
0.00446994
0.00475352
0.00310534
0.00543017
0.00422539
0.00219947
0.0050827
0.00365342
0.003496
0.0034174
0.00386584
0.00252938
0.0017865
0.00300093
0.0021272
0.00175583
0.00547657
0.00264448
0.00423305
0.0036424
0.00202835
0.00407034
0.00635948
0.00441788
0.00291468
0.00468497
0.00390517
0.0018065
0.00288929
0.00619675
0.00196995
0.00196163
0.00495961
0.00310292
0.00328236
0.0019992
0.00374419
0.00357045
0.00281171
0.00266808
0.00313768
0.00401833
0.00627278
0.00250923
0.00236872
0.00420928
0.00312255
0.00111455
0.00250685
0.0016285
0.00285818
0.00200673
0.000351501
0.00301556
0.00693024
0.00247754
0.00540225
0.00312487
0.00562726
0.00540401
0.00356571
0.00258695
0.00473742
0.00175447
0.00158382
0.00274186
0.00270715
0.0029123
0.00283801
0.00633473
0.00174262
0.000650376
0.00248195
0.00376411
0.00221257
0.00325226
0.000667582
0.00396932
0.00147635
0.00212766
0.00135803
0.00297208
0.00188231
0.00164888
0.00176203
0.00153073
0.00152463
0.00499414
0.00398566
0.00133299
0.00218702
0.00221598
0.00537696
0.0020344
0.00391759
0.0045123
0.00319416
0.00254173
0.00419434
0.00290285
0.00291656
0.000475987
0.00189418
0.00297722
0.00263529
0.00187078
0.00129913
0.00299926
0.00171814
0.00516405
0.00176724
0.0070643
0.000194085
0.00320524
0.00394089
0.000409638
0.00058895
0.000771659
0.00402333
0.000908014
0.000903418
0.000978504
0.00329919
0.00201907
0.000817304
0.00210799
0.00203438
0.000777436
0.00107944
0.00211198
0.00188189
0.000727933
0.000526015
0.000996263
0.00110665
0.005326
0.00256716
0.00103886
0.00295009
0.00392038
0.000958099
0.00202157
0.000689726
0.00180583
0.00270617
0.00220989
0.00334593
0.00697436
0.0020598
0.00407824
0.0045133
0.002829
0.00104183
0.00257484
0.00572262
0.00454289
0.00730359
0.00690809
0.00634725
0.000542438
0.00437349
0.00131514
0.00204615
0.00175265
0.00653918
0.00330223
0.00519795
0.00237638
0.00519105
0.00393435
0.00537246
0.00189479
0.00177473
0.00506396
0.00121692
0.00604828
0.00526449
0.00264743
0.00137124
0.00101944
0.00296401
0.0010807
0.00138096
0.00404162
0.00234308
0.00205078
0.00278878
0.00385732
0.00307622
0.00646547
0.00440638
0.00115503
0.0012235
0.00423132
0.00280246
0.00107513
0.00198172
0.00429382
0.004807
0.00258298
0.00277547
0.00149733
0.00667597
0.00296482
0.000632028
0.000777193
0.000852991
0.00187226
0.00122445
0.000502612
0.00197506
0.000732567
0.0013503
0.00224603
0.00055026
0.00280009
0.00294614
0.000721107
0.000728382
0.00508708
0.000495559
0.00337126
0.00123473
0.00136909
0.00370422
0.00171403
0.00421512
0.00358001
0.00156053
0.000855891
0.000852765
0.00061413
0.00112117
0.00328021
0.00316033
0.000851444
0.00419222
0.0039996
0.00354267
0.00389872
0.00285039
0.00392295
0.00323893
0.00145501
0.00192073
0.00321207
0.00518679
0.00314815
0.00392214
0.00408237
0.000420108
0.00279964
0.0017245
0.00100419
0.00140827
0.00147564
0.00177451
0.00501778
0.00297671
0.00147696
0.00214521
0.000455336
0.00459622
0.00226017
0.00182071
0.00222372
0.0014383
0.00150893
0.0017313
0.00278467
0.00181843
0.00155206
0.00611374
0.00232487
0.00127642
0.00140474
0.000986215
0.00545384
0.00164218
0.00299612
0.00127271
0.00107968
0.00106569
0.000662659
0.00519998
0.00295307
0.00475117
0.000616277
0.000599523
0.0018018
0.00152368
0.00256156
0.000623665
0.0018906
0.00117515
0.00675152
0.00326408
0.00647952
0.00233084
0.00627312
0.00337258
0.00427561
0.00715281
0.000563906
0.00312834
0.00185493
0.000542623
0.000881877
0.00156775
0.00530549
0.00330647
0.00175889
0.00619039
0.00239218
0.00097867
0.00126431
0.00319539
0.00453289
0.00354193
0.00100984
0.00107775
0.000895627
0.00363112
0.00129481
0.00565094
0.0049348
0.00285046
0.00187715
0.000967168
0.00263298
0.0052745
0.00605876
0.000689039
0.000845586
0.00214749
0.00360342
0.00190848
0.00292524
0.00594264
0.00122943
0.00132468
0.00175878
0.0020355
0.0015299
0.00211023
0.00126842
0.00147496
0.000634426
0.00180028
0.00532015
0.00414425
0.00415191
0.00248963
0.00274795
0.000732306
0.00139321
0.00719305
0.00305047
0.0037777
0.00495371
0.00488536
0.0023611
0.00566646
0.00278257
0.00230422
0.00489939
0.0022651
0.00508478
0.00500121
0.0045235
0.00293584
0.00587484
0.003116
0.00538528
0.000927205
0.00109582
0.00126288
0.00153976
0.00101074
0.000838703
0.00163502
0.00202156
0.00408477
0.000996979
0.00258262
0.00211672
0.000679504
0.000584607
0.00575541
0.0036606
0.00677062
0.00226416
0.00449221
0.00349186
0.00546946
0.00743146
0.00378912
0.00209313
0.000843129
0.00184728
0.00457928
0.00146884
0.00134558
0.00469514
0.00437692
0.00277235
0.00400616
0.00274764
0.00336989
0.00213556
0.000707464
0.00273427
0.00352983
0.00297075
0.00283149
0.00587424
0.00516965
0.00187098
0.00119871
0.00356082
0.00301483
0.00176732
0.00533862
0.0013228
0.00272099
0.00227065
0.00292055
0.00193712
0.00343448
0.00315372
0.00306093
0.00252225
0.00133709
0.00170802
0.000735608
0.000199549
0.00162119
0.00242918
0.00290006
0.000413899
0.000499488
0.000602638
0.000425735
0.00134671
0.00470672
0.00250944
0.00069417
0.00140689
0.00256571
0.00460073
0.00154776
0.00142405
0.00252737
0.000988868
0.000461514
0.000489905
0.00149067
0.00563004
0.00230795
0.00447075
0.00192759
0.00190791
0.00160737
0.00166344
0.00166817
0.00115732
0.000954452
0.00533736
0.00484435
0.00596005
0.00292782
0.00356886
0.00151226
0.000576437
0.00374884
0.00100379
0.00145239
0.00195916
0.00529941
0.00332859
0.00359619
0.00286134
0.00170474
0.00152728
0.00145578
0.00157216
0.000900374
0.00187534
0.0010673
0.00158515
0.00573847
0.000181438
0.00271907
0.00714998
0.00356575
0.00395568
0.00673172
0.00583181
0.00701031
0.0012981
0.00196765
0.00106094
0.00183535
0.000492784
0.00194776
0.00128796
0.00460759
0.00331716
0.00313768
0.00505916
0.00251253
0.00252292
0.000890371
0.0048166
0.00201569
0.00143181
0.00154813
0.000964464
0.00456338
0.0045921
0.00314161
0.00173178
0.00299417
0.00201727
0.000745927
0.00186897
0.00125156
0.000397127
0.000553555
0.000244026
0.00312617
0.00223879
0.00408287
0.00521744
0.00497205
0.00234745
0.000737028
0.00132102
0.000758538
0.000876713
0.0020891
0.0019647
0.00229293
0.00171272
0.0014815
0.00194862
0.00173166
0.00258305
0.001515
0.00175433
0.00402942
0.00223785
0.00530855
0.00536151
0.00205997
0.00064099
0.00044221
0.00118177
0.0010586
0.000381411
0.00269596
0.000854618
0.00374037
0.00106354
0.00159337
0.00171839
0.000849575
0.00093862
0.000975037
0.00115085
0.00536925
0.000815514
0.00494648
0.00397291
0.00147384
0.0023878
0.00332847
0.00368745
0.00338478
0.00347216
0.00316659
0.00157062
0.0015693
0.00146553
0.00193551
0.00135097
0.00131171
0.00111607
0.00204008
0.00165881
0.002005
0.00178128
0.00246992
0.00165293
0.00200498
0.00172887
0.00194075
0.00162362
0.00560665
0.00175099
0.00203342
0.00285178
0.00397672
0.00154857
0.0010438
0.00280578
0.00333003
0.000848679
0.00288609
0.00298005
0.00563954
0.00259464
0.00240736
0.00177665
0.00344745
0.00216049
0.0028892
0.0017021
0.0018216
0.00175493
0.00395437
0.000839486
0.00132083
0.00222819
0.000911896
0.00233753
0.00548689
0.00631559
0.00201269
0.00224299
0.00205935
0.00201133
0.00236044
0.00257967
0.00140484
0.00197061
0.00588326
0.000944294
0.00130206
0.00100461
0.00231789
0.0024293
0.00232349
0.00125291
0.00210952
0.00218267
0.00176843
0.00206641
0.00093926
0.00150874
0.00228256
0.000450287
0.000400671
0.000682996
0.000871981
0.00185953
0.00187743
0.0016142
0.00216631
0.000748907
0.00258982
0.00164459
0.000601005
0.00461205
0.00279844
0.00249712
0.00228403
0.0017878
0.00524119
0.00211078
0.00132879
0.00197218
0.00174432
0.00486013
0.000271492
0.000817011
0.00149942
0.000427596
0.000767593
0.00407489
0.0057385
0.00153019
0.00537954
0.00385341
0.0033195
0.00470388
0.00312208
0.00545799
0.00689045
0.00200377
0.0055337
0.00163741
0.00701318
0.0060074
0.000327604
0.00432136
0.00338223
0.000642133
0.0028179
0.00274861
0.00067698
0.00347233
0.00128579
0.00169985
0.000432338
0.00196715
0.00100576
0.000234716
0.00239692
0.00121667
0.000652398
0.00212755
0.00061228
0.000793858
0.000767276
0.00185989
0.00137731
0.00451936
0.00240535
0.00299887
0.00262479
0.00112126
0.00111455
0.00248459
0.000907157
0.0016657
0.00258998
0.000518841
0.00214975
0.00105528
0.00531067
0.00732792
0.00168592
0.00158248
0.00195725
0.000518392
0.000727848
0.00369694
0.00543854
0.00142613
0.000325322
0.00107647
0.00572806
0.00248617
0.00480023
0.00273634
0.00652256
0.00219591
0.0025538
0.00405794
0.0024575
0.00487693
0.00718241
0.00363945
0.00303843
0.00380072
0.00494209
0.000534246
0.00706924
0.000686273
0.00201888
0.00551622
0.00133993
0.00155185
0.00520254
0.00119146
0.00224904
0.00516264
0.000526264
0.00207729
0.00213138
0.00521422
0.00135231
0.00520858
0.00107047
0.00397362
0.000689302
0.00142952
0.00139939
0.00372269
0.00276161
0.00283714
0.0029877
0.00168486
0.00198671
0.00406658
0.00169862
0.00119181
0.000608746
0.00133048
0.00085408
0.00416078
0.0055792
0.00375925
0.0042457
0.00277089
0.00173134
0.00503453
0.00404299
0.00268882
0.0016942
0.00132939
0.00343392
0.00104457
0.00214757
0.00189956
0.00246834
0.00168634
0.00161016
0.00170496
0.001209
0.00544755
0.00415102
0.00347083
0.00379693
0.00210011
0.000974275
0.00209269
0.00382934
0.00517059
0.00184972
0.000624077
0.00345822
0.00297675
0.00641703
0.00148447
0.00304663
0.00406186
0.00247188
0.00360323
0.00365689
0.00294013
0.0027488
0.0035361
0.00238465
0.00186436
0.000705978
0.00607941
0.00258718
0.00696047
0.00119267
0.00548019
0.00701319
0.00740256
0.00184066
0.00202076
0.00357136
0.00405848
0.00126425
0.0019824
0.00351028
0.00175844
0.00277367
0.000489589
0.0013256
0.00530074
0.00398944
0.00237664
0.00382633
0.00130951
0.00394659
0.00283601
0.00204148
0.00550748
0.00185484
0.00188135
0.000303014
0.00477353
0.000968453
0.00228913
0.00684049
0.00614298
0.00188343
0.00485854
0.00323342
0.00150125
0.00517459
0.00684109
0.00375464
0.00213247
0.00354671
0.00151767
0.00124061
0.00574533
0.00269662
0.0049084
0.000658235
0.00526156
0.00246307
0.00263433
0.00444624
0.00347822
0.00220013
0.00516838
0.00369576
0.00321441
0.00190266
0.0034287
0.00511085
0.00250714
0.00254642
0.00539002
0.00463492
0.00238802
0.00388088
0.00517936
0.00510559
0.00315044
0.0029256
0.000760133
0.000971128
0.000391221
0.000517387
0.00180685
0.00159054
0.00149495
0.00187182
0.000801067
0.002583
0.00165547
0.00419553
0.00636807
0.000637498
0.00322885
0.00573906
0.00474884
0.00449442
0.00397265
0.00508973
0.00450063
0.00203425
0.00248781
0.00137558
0.000904692
0.00242463
0.00288243
0.0053377
0.00533748
0.00102467
0.00078043
0.00304555
0.0020971
0.000480817
0.000687784
0.0016416
0.00147764
0.0012453
0.00160381
0.00648672
0.00462481
0.00502405
0.00605152
0.00207767
0.0010747
0.00113972
0.000533181
0.000757135
0.00122242
0.00191508
0.00409358
0.000586543
0.00193379
0.00191342
0.00182829
0.000964966
0.00101969
0.00104294
0.00126723
0.00100797
0.000696468
0.00220361
0.000974629
0.00380878
0.00453914
0.00367541
0.00168605
0.00259416
0.00478109
0.0042005
0.00701547
0.00487425
0.000416662
0.00311719
0.000545997
0.00188772
0.000359752
0.00151044
0.0034915
0.0033955
0.00165429
0.00290198
0.00258027
0.0073792
0.000460727
0.000422078
0.000951032
0.00129262
0.00120934
0.00171084
0.0035472
0.00634733
0.00359088
0.000634292
0.000828953
0.00133322
0.00376759
0.000377943
0.00630612
0.00371292
0.000899082
0.00056765
0.00365051
0.00296896
0.00143943
0.00281848
0.000564774
0.00164775
0.00305874
0.000359288
0.000814166
0.000977505
0.000744514
0.000700699
0.00172541
0.00162885
0.00186424
0.000998174
0.00107464
0.00143776
0.00174967
0.00071564
0.00111106
0.000823487
0.00307226
0.00130591
0.00146656
0.0012384
0.00587908
0.00671483
0.0072925
0.0054626
0.00505016
0.0014843
0.00283014
0.00408093
0.00145971
0.00224664
0.00128017
0.00281592
0.000595938
0.00383996
0.00170505
0.00147732
0.00105303
0.0054019
0.00246485
0.00181276
0.00733371
0.00399675
0.000606617
0.00154393
0.0018567
0.00211995
0.00323835
0.0010998
0.00328198
0.00185683
0.00494796
0.00528858
0.00143131
0.00593972
0.00506232
0.0036359
0.00498479
0.00518712
0.0038576
0.00170848
0.00197306
0.00202142
0.00196745
0.00541111
0.00442345
0.00205182
0.00171716
0.00601271
0.00714362
0.00134431
0.00142757
0.00176521
0.00281249
0.00247394
0.00432483
0.00291224
0.00440317
0.00506316
0.00096529
0.00545333
0.00123724
0.00230057
0.0022573
0.00214976
0.0045627
0.00226423
0.00251708
0.000404163
0.00227799
0.00387799
0.000629114
0.00250362
0.00254828
0.00474817
0.00229043
0.00130607
0.000660277
0.00157277
0.00121783
0.00115899
0.0048778
0.00141725
0.00119082
0.000738635
0.00259967
0.000960481
0.00146602
0.00259259
0.00423886
0.00190081
0.00230878
0.00437291
0.0043333
0.00378498
0.00240704
0.00160072
0.000779158
0.002328
0.00386543
0.00303006
0.00230511
0.000689967
0.00223264
0.000614112
0.00227306
0.00162286
0.00330895
0.00416033
0.000319876
0.00111701
0.000827742
0.00126819
0.00371946
0.00118143
0.00132445
0.00124412
0.000829179
0.00181517
0.00100387
0.00174184
0.00125482
0.00128195
0.00168444
0.00170008
0.00101021
0.00350355
0.00500605
0.002928
0.000830012
0.00385368
0.00328417
0.000949947
0.00252427
0.00113818
0.00129134
0.00174503
0.00151581
0.00170047
0.00207946
0.00429446
0.00141813
0.00177994
0.000758277
0.000993841
0.00144376
0.00153981
0.00323963
0.00378613
0.00457436
0.00281875
0.00220874
0.00266663
0.0025245
0.00541321
0.0057367
0.00155392
0.00263127
0.00422118
0.000816579
0.00129059
0.00245613
0.00420158
0.00349386
0.00147413
0.00253605
0.00316673
0.00484941
0.00435848
0.000746696
0.00126267
0.00353585
0.00112998
0.000716646
0.00131114
0.000855431
0.000623423
0.00113635
0.00037476
0.00125642
0.00377386
0.00161564
0.00399262
0.000568374
0.00274277
0.000615166
0.000865596
0.00212922
0.00187451
0.00137699
0.00263473
0.00262134
0.00244625
0.000448789
0.00291452
0.00737183
0.00507554
0.00060258
0.00347074
0.00251981
0.00343563
0.00163665
0.00251777
0.00624771
0.000441397
0.000916009
0.000939039
0.0010551
0.00119087
0.00100178
0.0011232
0.0029574
0.00339465
0.00156222
0.0055131
0.000846981
0.00256378
0.00232679
0.000722886
0.00240541
0.00288381
0.00309024
0.00236809
0.00240665
0.00257748
0.00205697
0.00208292
0.00273268
0.00414279
0.000920095
0.000422786
0.00217865
0.00198198
0.00280065
0.00283204
0.00379984
0.00397901
0.00514438
0.00116868
0.00375959
0.00242028
0.0023856
0.00202775
0.00330823
0.00327012
0.00246231
0.00286948
0.00212905
0.00250836
0.00497642
0.00581902
0.00226519
0.00250689
0.00545341
0.00181044
0.0059371
0.00154347
0.00230712
0.00181605
0.00111664
0.000820757
0.000498516
0.000509643
0.000454384
0.000636678
0.000350075
0.000943026
0.00102959
0.00010996
0.00175058
0.00384394
0.000653935
0.00108817
0.00118424
0.003593
0.00106698
0.000619899
0.000524476
0.000586903
7.8796e-05
0.00172349
0.00238646
0.00398952
0.00293296
0.00271931
0.00277588
0.00176953
0.0004298
0.000543948
0.00107762
0.00264481
0.00163598
0.00705036
0.00422001
0.00340079
0.00354422
0.00336235
0.00521939
0.00628089
0.00542896
0.00152492
0.001259
0.00356305
0.0020115
0.00383719
0.00256722
0.00220281
0.00227513
0.00249028
0.000727685
0.00236516
0.00164346
0.00180926
0.0038078
0.00485933
0.00273875
0.00286245
0.00371957
0.00206439
0.00246388
0.00125653
0.00359971
0.00226534
0.00210644
0.00455956
0.00549625
0.00359069
0.00432672
0.00228903
0.00406359
0.00274014
0.0014057
0.00306715
0.00638933
0.00188509
0.00155095
0.00326615
0.00271163
0.00115499
0.000999229
0.00317173
0.000812271
0.00376859
0.00393574
0.0033812
0.00263728
0.00419555
0.00499927
0.00314516
0.00377307
0.00263739
0.00343116
0.00274677
0.00321351
0.000683729
0.00454475
0.00385635
0.00210181
0.00287013
0.00119369
0.000562798
0.000987344
0.00106065
0.000810234
0.00540234
0.0044828
0.00556643
0.0051784
0.00498326
0.00531791
0.00240302
0.00108456
0.00098667
0.00141591
0.00118731
0.00159441
0.00220437
0.00235781
0.00132545
0.00199093
0.00307342
0.00248602
0.00180011
0.00175241
0.00133311
0.00164971
0.00269626
0.00210657
0.00177015
0.00156106
0.00190231
0.00171256
0.00151657
0.00107876
0.00189419
0.0018613
0.00235594
0.00179836
0.00140856
0.00215354
0.00176272
0.00246043
0.00128761
0.00252986
0.00576724
0.00230322
0.00161113
0.000479599
0.00111165
0.00493977
0.00473304
0.00634453
0.00340721
0.00606651
0.000822543
0.000693817
0.000653771
0.00701486
0.000406871
0.000868046
0.00261164
0.00126651
0.00334204
0.00202427
0.00154403
0.00171287
0.00192878
0.00110249
0.00252128
0.00293649
0.00280239
0.00162833
0.00277981
0.00376708
0.00320171
0.00309369
0.00347031
0.00407938
0.00276137
0.00151276
0.00206026
0.00155746
0.00641068
0.0043564
0.00294174
0.00421131
0.00599017
0.00646992
0.00338568
0.00451716
0.00192692
0.00634109
0.0029939
0.00532599
0.0036701
0.00368835
0.00158796
0.00372799
0.00412618
0.00216066
0.00615043
0.00371538
0.00565346
0.00236581
0.000996569
0.00253142
0.00294991
0.00536647
0.00272048
0.00525492
0.00122259
0.00355905
0.00142017
0.00301474
0.00198831
0.000507733
0.00104208
0.00353506
0.00346155
0.00114781
0.00270111
0.00294232
0.00310654
0.0046797
0.00477475
0.00276635
0.00076213
0.00175104
0.00531517
0.00104211
0.000481323
0.00100918
0.00263624
0.00256418
0.00186162
0.0010068
0.00282594
0.00165733
0.00193296
0.00111076
0.000916545
0.00135154
0.000733533
0.000441863
0.00490353
0.00224214
0.00301407
0.00379043
0.00675823
0.00652084
0.00382136
0.00369396
0.00463459
0.00573426
0.00566904
0.00294087
0.0022803
0.0026377
0.00287549
0.00170282
0.00193666
0.0038349
0.00155621
0.00184919
0.00218979
0.00284367
0.00176449
0.00421461
0.00459075
0.00422824
0.00131491
0.000296674
0.00178958
0.0010569
0.00161378
0.00090837
0.00228411
0.00251027
0.00280434
0.00438071
0.00133598
0.00165629
0.00626666
0.00180628
0.00140586
0.0021748
0.00313839
0.00236326
0.000849391
0.00162612
0.00147705
0.006093
0.00672637
0.0045545
0.00641826
0.00114569
0.00364853
0.000668993
0.00382295
0.00382643
0.00401104
0.00735947
0.00457472
0.000914154
0.00199741
0.00136779
0.000681495
0.00131078
0.00177008
0.00142739
0.00240075
0.00453966
0.00399953
0.00163964
0.00250436
0.00659318
0.00564413
0.000945162
0.00360154
0.000592791
0.000859788
0.00140664
0.00156647
0.000432826
0.00254658
0.000564944
0.00220185
0.000946148
0.00225712
0.00404676
0.00117153
0.00324885
0.00182309
0.00391563
0.00135348
0.00101043
0.000682902
0.000889805
0.000717011
0.00166295
0.000115424
0.000642254
0.000690654
0.000276552
0.00207714
0.00148075
0.00436716
0.00373212
0.000889973
0.00125289
0.00129412
0.00331272
0.00151365
0.00282796
0.00332458
0.00150596
0.00302437
0.00357815
0.00364735
0.0020722
0.00356418
0.00212917
0.00361101
0.00367274
0.00734953
0.00397171
0.00379351
0.00331428
0.00164569
0.00319154
0.00351496
0.00331342
0.00381054
0.00232813
0.00403044
0.00428047
0.00297275
0.00205386
0.00235471
0.00387527
0.00396551
0.00298404
0.0037312
0.00509998
0.00297438
0.00357562
0.00222564
0.00226169
0.00228094
0.0027049
0.00205444
0.000870057
0.00139944
0.00178826
0.000474446
0.00152866
0.0016248
0.00474121
0.00454364
0.00530194
0.00487363
0.00547766
0.00221759
0.00442464
0.00705559
0.00468748
0.0056524
0.00331161
0.00321983
0.00390192
0.00650642
0.00695334
0.00402079
0.00743684
0.00684476
0.006852
0.00373923
0.00378888
0.00473017
0.00152614
0.00500514
0.00146962
0.00102891
0.000343853
0.00121008
0.00160396
0.000785906
0.00158781
0.000642584
0.00135369
0.000934214
0.000966763
0.00256996
0.00391088
0.00245302
0.00279433
0.00331877
0.00273689
0.0015617
0.00199478
0.00156827
0.00295196
0.00173907
0.00198065
0.00447728
0.00527065
0.00533191
0.00182565
0.00417766
0.00180471
0.00319862
0.00161655
0.00436444
0.00694109
0.00068824
0.00420552
0.00414171
0.00144383
0.00446183
0.0049843
0.00195733
0.000129738
0.00382724
0.00387477
0.0054782
0.00533191
0.00632358
0.00627494
0.00634847
0.00100622
0.00514554
0.00452728
0.00242864
0.00200091
0.0021643
0.00264364
0.00204698
0.00177942
0.00156442
0.000201384
0.00190359
0.00298287
0.0036625
0.00594059
0.00729522
0.00301824
0.00513815
0.00585159
0.00121357
0.00336555
0.00135162
0.00371323
0.00387101
0.00396888
0.00250149
0.00271603
0.00426685
0.00115747
0.000704917
0.00139324
0.00437405
0.00517843
0.0014322
0.00199846
0.00159295
0.0013404
0.00149553
0.00416558
0.00508836
0.00409327
0.00139807
0.00180076
0.00181119
0.00186842
0.00588323
0.00571416
0.000969901
0.00100863
0.000512895
0.000446546
0.00085089
0.000768868
0.00439989
0.00442585
0.00527693
0.000982027
0.00114916
0.00174543
0.0014162
0.00152527
0.00141097
0.00137209
0.00337981
0.00326234
0.00310698
0.00123116
0.00133529
0.00127475
0.000981981
0.0019809
0.000673626
0.00316673
0.0030324
0.00181713
0.0013974
0.00409472
0.000896356
0.00108629
0.00042974
0.00109761
0.000504615
0.00186759
0.00587588
0.00106453
0.00583106
0.0024143
0.00347198
0.00340291
0.00189903
0.0039143
0.00144424
0.00565757
0.00416635
0.00110886
0.00371577
0.00205561
0.00199825
0.000632702
0.00300982
0.00252839
0.00163535
0.00219759
0.00209699
0.00258645
0.00108588
0.00175517
0.00167026
0.00187133
0.00227811
0.00172363
0.00185776
0.00173579
0.00197185
0.00180243
0.000567672
0.00165506
0.000646802
0.00397176
0.00144826
0.00161821
0.00161676
0.0016282
0.000875092
0.000735592
0.00145705
0.00137782
0.000466882
0.000842285
0.00140644
0.000241256
0.000808693
0.00282523
0.00190779
0.00160287
0.00111634
0.000474674
0.00162776
0.00147033
0.000480461
0.0026174
0.00467194
0.00165812
0.000321139
0.000889953
0.00133673
0.00118657
0.000698637
0.00242366
0.00387328
0.00239167
0.00518966
0.00171135
0.00305659
0.0017035
0.00106858
0.00670756
0.00102857
0.00101887
0.00302147
0.0016543
0.00199769
0.00597622
0.00524574
0.00465407
0.00168671
0.000136587
0.00176602
0.00185417
0.00318266
0.00374828
0.000482039
0.0033696
0.00352097
0.00520176
0.00328192
0.00204599
0.00175907
0.00306852
0.00291554
0.00333526
0.00201546
0.00544859
0.00517602
0.00531428
0.0060006
0.00443847
0.00210701
0.00255411
0.00129253
0.00127853
0.00125911
0.00177492
0.00179052
0.00461981
0.000889136
0.00499803
0.00537943
0.00454543
0.00535075
0.00480942
0.0043959
0.00450166
0.00479216
0.00229186
0.00536134
0.00152909
0.00110295
0.00433458
0.00298367
0.00380281
0.00415035
0.000668353
0.00108626
0.00107178
0.00181274
0.00151051
0.00379588
0.000199
0.00453622
0.000365121
0.00375675
0.000845654
0.00323621
0.00292634
0.00395131
0.00281238
0.00446503
0.00200135
0.00526098
0.00471953
0.00267395
0.00428043
0.00472443
0.00518567
0.0037388
0.000580531
0.00434349
0.00552438
0.000954879
0.00139743
0.00092212
0.00503443
0.00169408
0.00466861
0.00623876
0.00504392
0.000782094
0.00266487
0.00603772
0.00651557
0.00656055
0.00187533
0.00198774
0.00194021
0.00204518