/*--------------------------------*- C++ -*----------------------------------*\
| =========                 |                                                 |
| \\      /  F ield         | OpenFOAM: The Open Source CFD Toolbox           |
|  \\    /   O peration     | Version:  2506                                  |
|   \\  /    A nd           | Website:  www.openfoam.com                      |
|    \\/     M anipulation  |                                                 |
\*---------------------------------------------------------------------------*/
FoamFile
{
    version     2.0;
    format      ascii;
    arch        "LSB;label=32;scalar=64";
    class       volScalarField;
    location    "0.0441308";
    object      nut;
}
// * * * * * * * * * * * * * * * * * * * * * * * * * * * * * * * * * * * * * //

dimensions      [0 2 -1 0 0 0 0];

internalField   nonuniform List<scalar> 
47425
(
0.00573325
0.00527776
0.00457769
0.00201673
0.00350032
0.0046836
0.00482598
0.00332166
0.00742783
0.00195073
0.00249557
0.00733738
0.00554861
0.0041419
0.00343523
0.00383982
0.00477123
0.00273227
0.000282181
0.00305725
0.00387962
0.00718831
0.00320324
0.00518531
0.00700998
0.00719296
0.0040961
0.000518235
0.00451944
0.00582447
0.00747147
0.00709827
0.0074594
0.00492203
0.00605407
0.00502558
0.00724072
0.00537855
0.00506167
0.0044472
0.00512648
0.00532851
0.00518524
0.00260982
0.000754307
0.00343635
0.00353907
0.00452587
0.00416191
0.00671522
0.000681305
0.0027066
0.00643375
0.0010047
0.00331901
0.00298516
0.00723927
0.00566968
0.00232865
0.00536821
0.000877539
0.000740928
0.000990149
0.0034356
0.00738493
0.00716421
0.00555697
0.00456619
0.00109857
0.00539147
0.00416078
0.00631118
0.00676568
0.00368251
0.00129853
0.00746319
0.00102047
0.00404796
0.000261841
0.00216016
0.0012888
0.00515953
0.00747333
0.00742597
0.00703603
0.00404697
0.00604479
0.00647434
0.00498162
0.00143681
0.00731783
0.00454241
0.00731426
0.00325859
0.00261651
0.00189994
0.00660573
0.00624593
0.00368883
0.00464274
0.00558149
0.00105319
0.00637634
0.00103852
0.00659493
0.00683632
0.00686334
0.0035415
0.00714588
0.00706714
0.00286391
0.00531896
0.0061166
0.00230067
0.00726212
0.000361223
0.00726203
0.000785028
0.00443149
0.00578684
0.00417847
0.00747147
0.00593016
0.00301761
0.00367226
0.00690744
0.00395939
0.00741799
0.00339189
0.00738391
0.00730982
0.00352893
0.00107596
0.00297853
0.00584208
0.00547474
0.00694593
0.00673784
0.00478517
0.00332459
0.00499673
0.00285792
0.00480244
0.00551014
0.00656545
0.00742418
0.00415272
0.00544419
0.0024354
0.00500079
0.00556949
0.000561644
0.00739032
0.000437675
0.00334717
0.00400552
0.00321946
0.000309746
0.00392101
0.004713
0.00747321
0.00726551
0.00648173
0.00704042
0.00126472
0.000540776
0.00744128
0.00130057
0.00326559
0.00085471
0.00130293
0.00418314
0.00479286
0.00391217
0.00497978
0.0013586
0.00040784
0.00454758
0.0061748
0.00721046
0.000334864
0.00681888
0.00532504
0.00704417
0.00687264
0.00694156
0.005858
0.00117691
0.0024115
0.00592446
0.0074698
0.00453778
0.00538595
0.00474259
0.00690131
0.00742877
0.00582721
0.0046582
0.0075474
0.00382787
0.00525219
0.00298564
0.00712359
0.00735134
0.00269662
0.00237401
0.00600251
0.00734681
0.00407252
0.00747128
0.00508515
0.00493805
0.00745942
0.00341755
0.0052677
0.00528605
0.00443313
0.00170498
0.00365544
0.0038541
0.00205568
0.0025785
0.00521344
0.00334244
0.00239181
0.00167072
0.00687354
0.00262317
0.00726365
0.00451219
0.00460367
0.00460888
0.00343179
0.00748895
0.0022538
0.00358456
0.00188343
0.00307024
0.00213424
0.00204498
0.00409394
0.00555334
0.00735054
0.00322152
0.00726324
0.00733078
0.00477327
0.00590078
0.00727166
0.00423248
0.00740227
0.00246005
0.00496773
0.00742028
0.0036644
0.00731505
0.00699495
0.00308154
0.0034047
0.00739638
0.00309528
0.00746275
0.00421847
0.00271919
0.00571912
0.00398862
0.00718879
0.00541317
0.00520246
0.00412801
0.00418425
0.00236359
0.00191518
0.00676978
0.0024762
0.00211239
0.00247358
0.000557724
0.00196381
0.000653602
0.000941222
0.00586276
0.000937588
0.00301722
0.0041653
0.00369471
0.0034573
0.00365792
0.00408107
0.00729268
0.000796388
0.00557453
0.00737543
0.00569334
0.00482852
0.00345188
0.00309564
0.00697818
0.00503323
0.00477694
0.00394347
0.00720601
0.00393995
0.00538294
0.00111372
0.00084997
0.000595704
0.00735546
0.00665309
0.00735553
0.00331609
0.000865014
0.00386298
0.00291496
0.00165448
0.00479936
0.00337671
0.00307649
0.00361197
0.00165271
0.0018079
0.00723669
0.00537517
0.00680251
0.00425238
0.00722214
0.00419031
0.00530104
0.00620765
0.00451427
0.00395666
0.0011131
0.00454609
0.0043299
0.00297306
0.00733581
0.000892382
0.00644771
0.00699033
0.00629659
0.00713974
0.00709177
0.00721035
0.00623427
0.00660078
0.00636231
0.00551707
0.00694164
0.00398156
0.0041842
0.00698308
0.00716188
0.0053509
0.00686796
0.00680393
0.00284728
0.0042219
0.00748882
0.00667206
0.00385768
0.00196409
0.00612356
0.00432373
0.00360372
0.00678904
0.00676213
0.00284992
0.00743432
0.005018
0.00731165
0.0028359
0.000907006
0.00415516
0.007431
0.0019261
0.00741158
0.00524258
0.00390833
0.00502347
0.00720143
0.00563173
0.00731927
0.00726316
0.00481781
0.00413481
0.00439963
0.00404963
0.00632135
0.00717632
0.0040362
0.00687371
0.00687643
0.0042199
0.00577486
0.00506466
0.00681823
0.00530074
0.00373729
0.00319814
0.00666267
0.000838745
0.00701719
0.00214637
0.00489323
0.00352728
0.00352017
0.00679421
0.00246287
0.0068446
0.00366632
0.00712353
0.00108254
0.00107036
0.00731237
0.00306662
0.00402832
0.00375229
0.00412077
0.00444126
0.00400259
0.00406661
0.00499841
0.00722139
0.00317202
0.00465553
0.00653492
0.0033781
0.00416272
0.00628323
0.00097901
0.000424873
0.00684337
0.000516225
0.000522742
0.00403952
0.000502292
0.000722399
0.00668014
0.00401568
0.00427902
0.00409931
0.0009416
0.00393539
0.00651987
0.00648854
0.00440904
0.00437657
0.00411506
0.00407104
0.000918915
0.000734537
0.00137245
0.00543762
0.00112375
0.00370584
0.00582612
0.00735365
0.00564317
0.00740078
0.00423162
0.0047898
0.00284694
0.00482386
0.00748961
0.00417976
0.00551091
0.00445772
0.00743332
0.00510341
0.00488579
0.00523173
0.00562926
0.00343169
0.00288362
0.00522377
0.00425811
0.00740021
0.00116687
0.00280871
0.00228303
0.00744187
0.00267136
0.0031907
0.00332798
0.00733696
0.00435994
0.0074021
0.00491241
0.00325438
0.00338703
0.00381256
0.00363149
0.00603318
0.00236418
0.000924348
0.00689115
0.00176705
0.00566644
0.00174451
0.00677601
0.00631252
0.00720726
0.00477242
0.00574986
0.00308055
0.00538391
0.00675351
0.00734166
0.00731689
0.00455868
0.00273687
0.00416726
0.00733457
0.00590398
0.00576773
0.00570978
0.00555744
0.00495344
0.00451473
0.00281886
0.00472329
0.00372047
0.000722057
0.00544669
0.00479027
0.00643889
0.00741184
0.00182938
0.0019652
0.00455333
0.00663997
0.00438189
0.00439393
0.00685145
0.00191233
0.0074786
0.00241313
0.00254922
0.00284811
0.00563572
0.00299761
0.0074423
0.00456341
0.0046246
0.00696579
0.00722778
0.00629878
0.000898494
0.00523093
0.00251829
0.00704462
0.00179012
0.00695857
0.00557815
0.00229853
0.00251271
0.00477099
0.00702017
0.00073966
0.00599803
0.00565155
0.00595843
0.00656399
0.00723353
0.00238479
0.00299562
0.00642855
0.00612969
0.00498273
0.00723434
0.00222536
0.00732433
0.00539729
0.000525422
0.00463183
0.00727825
0.000990706
0.0013981
0.00719933
0.000335224
0.000350516
0.00449736
0.00744454
0.00617733
0.00731493
0.00430617
0.00396625
0.00135775
0.00732167
0.00279415
0.00646396
0.00213118
0.00231363
0.00433632
0.00494761
0.0016237
0.00550552
0.0063
0.00360054
0.00354208
0.00285425
0.00304491
0.00305941
0.00669617
0.0035032
0.00285137
0.00341187
0.00534368
0.00324621
0.00374232
0.00680462
0.00276777
0.00376547
0.00420666
0.00280254
0.00343468
0.0047892
0.00493082
0.00655262
0.00188327
0.0050806
0.00680389
0.00692453
0.000317131
0.00402474
0.0055097
0.000587127
0.000799602
0.00732752
0.00475605
0.000224716
0.00211343
0.000862174
0.00264602
0.00315417
0.000658092
0.00554462
0.00669868
0.00591288
0.00325515
0.00335492
0.00332839
0.00696531
0.00317352
0.00495383
0.00398815
0.00666227
0.00437058
0.00418791
0.00178493
0.000956091
0.00288427
0.00318506
0.00411636
0.00655555
0.00344432
0.00741412
0.00605303
0.00567831
0.00527115
0.00659122
0.00200224
0.00469587
0.00681209
0.00184696
0.00198335
0.00101458
0.0013127
0.00403485
0.00750922
0.00486158
0.00725743
0.00106218
0.00467622
0.00114534
0.00428331
0.00424471
0.00556509
0.00486183
0.00570505
0.00367606
0.00214949
0.00375716
0.0057244
0.00191131
0.00458537
0.0074859
0.00444602
0.00403047
0.000936659
0.00558083
0.00186996
0.00381447
0.00747329
0.0071847
0.00257147
0.00423129
0.00413273
0.00742692
0.00523815
0.00449337
0.00458343
0.00425035
0.00414375
0.00510645
0.000980743
0.000662555
0.00459423
0.000866193
0.00485063
0.0030001
0.00347435
0.00672119
0.00380282
0.00521885
0.00429361
0.00420547
0.0071613
0.000608125
0.0027082
0.00348319
0.00509707
0.00688211
0.0038272
0.00595756
0.00249009
0.00747924
0.00129859
0.00415048
0.00710935
0.00434198
0.00679274
0.00555245
0.00471097
0.00653771
0.00367239
0.00737081
0.00699287
0.00441295
0.00105467
0.00742398
0.000716673
0.00229783
0.00233752
0.000700202
0.00433296
0.0038359
0.002332
0.00389984
0.000812022
0.00046103
0.000960158
0.00340325
0.00535352
0.00369662
0.00300124
0.000946421
0.00258337
0.00376882
0.00614242
0.00469046
0.00441519
0.00316858
0.00602952
0.00432626
0.00133055
0.00218078
0.00556253
0.00246469
0.00115327
0.00074434
0.00359603
0.000505039
0.00206528
0.000695286
0.000892391
0.00450136
0.00305148
0.00728199
0.00683948
0.00491037
0.000593723
0.00140924
0.00484796
0.00490307
0.00727128
0.0008149
0.000531598
0.00732043
0.00229418
0.00375364
0.00732593
0.00224965
0.00732344
0.00737024
0.00451982
0.00490348
0.00168548
0.00662932
0.00731015
0.00532307
0.00529452
0.00527388
0.00113896
0.00182101
0.0072111
0.00143932
0.00670138
0.00707027
0.00700203
0.00182261
0.00459847
0.00208388
0.00274689
0.00599044
0.00736417
0.00137831
0.000711827
0.00465409
0.00402596
0.00191957
0.00546234
0.00561904
0.00308947
0.00284468
0.00294511
0.00426173
0.00236953
0.00112624
0.0074237
0.00119237
0.00594301
0.00394597
0.00725401
0.00207312
0.00279
0.00737653
0.00268943
0.00135643
0.00378205
0.00197263
0.00507779
0.00601388
0.00479973
0.00353364
0.00475001
0.00324906
0.000608096
0.004913
0.00288461
0.00181368
0.00179923
0.000943393
0.00175607
0.00419915
0.000579615
0.00723365
0.00683651
0.00446099
0.00267931
0.00395161
0.00153182
0.00141968
0.00326274
0.00563514
0.00476817
0.00327511
0.00361322
0.00396339
0.00546404
0.00139729
0.00406969
0.00479174
0.00227593
0.00203506
0.00522044
0.000576374
0.0039628
0.00537341
0.0038675
0.00402074
0.00555408
0.00712696
0.00340593
0.00386418
0.00084702
0.00288719
0.00490086
0.00372222
0.00594387
0.00354494
0.000837356
0.00462462
0.00207604
0.00613102
0.00207886
0.00286744
0.00376008
0.00546333
0.00529787
0.00357879
0.00176403
0.00402589
0.0017195
0.000758026
0.00540453
0.00719522
0.00551207
0.00114566
0.00563761
0.00217178
0.00678841
0.00172736
0.00191156
0.00390985
0.00331348
0.00434328
0.00730824
0.00514815
0.00318775
0.00106678
0.00237864
0.000957321
0.00722117
0.00248339
0.00282132
0.00258901
0.00370808
0.0040916
0.00170204
0.00166063
0.00367242
0.000956395
0.00369184
0.00371203
0.00452186
0.00518589
0.003857
0.00501179
0.00137773
0.00359765
0.00380166
0.00492852
0.00638458
0.000849107
0.00214532
0.000749616
0.00171219
0.00126275
0.00209935
0.00396538
0.00134905
0.00367984
0.00137933
0.00202792
0.00206564
0.00142025
0.0032907
0.00562248
0.00451965
0.00747386
0.00158307
0.00373497
0.00353155
0.00445775
0.0015193
0.00623117
0.00440524
0.0063145
0.00746133
0.00298234
0.00204993
0.00303693
0.00347668
0.00599921
0.00236448
0.00689675
0.00325851
0.00315521
0.00736
0.00257443
0.00210027
0.00453784
0.00233688
0.00406986
0.00275934
0.00207567
0.00295691
0.00316719
0.000231139
0.000644355
0.00166641
0.00050392
0.00339264
0.0034507
0.000622343
0.000679587
0.00569137
0.00112564
0.00337104
0.0042082
0.000550834
0.00265439
0.00712691
0.00322649
0.00166667
0.0066531
0.000740912
0.000352243
0.00233769
0.000833582
0.00227805
0.00100827
0.000885843
0.00575511
0.00461021
0.00278552
0.00222735
0.00376578
0.00733751
0.00228769
0.000714794
0.00532498
0.00176854
0.00446605
0.00207602
0.00662475
0.0061676
0.00203861
0.00204325
0.00429334
0.00185202
0.00546471
0.00154057
0.00730944
0.00645273
0.00312864
0.00189477
0.00491751
0.00737394
0.000811053
0.00156029
0.00164247
0.00375373
0.00302244
0.00209245
0.00117196
0.00421158
0.00117409
0.00215017
0.00548762
0.00327642
0.00215083
0.00078472
0.00235289
0.00197448
0.00591325
0.00559697
0.00211912
0.00418025
0.00282472
0.00507988
0.0074045
0.0068034
0.00431877
0.00268624
0.000774157
0.00449934
0.000510669
0.00455191
0.00451497
0.00298853
0.0056908
0.00385601
0.00438413
0.00471171
0.00196369
0.00610678
0.00155573
0.00729927
0.000388374
0.0013306
0.00146191
0.00200199
0.00437687
0.00548889
0.00352449
0.00618914
0.000699245
0.000771205
0.00344228
0.00226017
0.000964932
0.000975007
0.00237933
0.00118984
0.00052323
0.00368437
0.00640765
0.000534812
0.0039983
0.00481802
0.00448048
0.000855127
0.000669025
0.00410886
0.00426213
0.00140776
0.00248318
0.000963826
0.000808814
0.0032987
0.00109199
0.00119846
0.00340576
0.00484924
0.00129843
0.00638329
0.00129041
0.000241977
0.00741264
0.00478591
0.00401438
0.00582973
0.00305004
0.00316956
0.00746266
0.00300974
0.00416692
0.000925178
0.00170131
0.00509894
0.00140751
0.00478422
0.000403331
0.00694083
0.0037649
0.00244592
0.00640764
0.00106465
0.00399289
0.00313209
0.00239007
0.00245946
0.00402517
0.00365104
0.00212665
0.000756923
0.00657603
0.00128142
0.000761778
0.0013124
0.00430071
0.00109548
0.00190413
0.00478167
0.00526858
0.00113988
0.00190993
0.00242521
0.000832896
0.00258606
0.00103532
0.00302612
0.00291609
0.00224012
0.000993279
0.00463926
0.00657784
0.00222087
0.00428717
0.00255694
0.0028137
0.000783079
0.00560122
0.00398821
0.00575709
0.00148604
0.00560829
0.000601593
0.00235797
0.00558137
0.00739629
0.00198365
0.00182223
0.000973015
0.00199982
0.00236164
0.00122407
0.000941355
0.00419199
0.000950778
0.00406581
0.00304094
0.000485689
0.00163183
0.0030888
0.00285339
0.00561388
0.00161747
0.000503954
0.00179576
0.0023757
0.00350739
0.007284
0.00198699
0.00537228
0.00379584
0.00627997
0.0011454
0.00241756
0.00158993
0.00429628
0.00169131
0.00417035
0.00331888
0.00123345
0.00189858
0.00243332
0.00279383
0.00585832
0.000420983
0.00167824
0.00165265
0.00148931
0.00335044
0.00567742
0.00112446
0.000695965
0.00166971
0.00298727
0.00289702
0.00190708
0.00274735
0.00112014
0.00571813
0.0014071
0.00154318
0.00595116
0.00137176
0.00344052
0.00261873
0.00286929
0.00142375
0.00249566
0.00654917
0.00073785
0.00339452
0.000683878
0.00268172
0.00400133
0.00260488
0.00217871
0.00147369
0.00282182
0.00426063
0.00310498
0.00135038
0.00414356
0.00457455
0.000652134
0.00725099
0.00372394
0.000885952
0.0041373
0.00285788
0.00173131
0.00246745
0.0011914
0.00396022
0.000182717
0.00215844
0.00188915
0.0022134
0.00125832
0.00311393
0.000923177
0.00134434
0.00136835
0.00296086
0.00401549
0.00740974
0.00417085
0.00382778
0.00292089
0.000710177
0.00380822
0.00602935
0.00505084
0.00531402
0.00343495
0.00421496
0.00746792
0.007461
0.00303222
0.00101086
0.00713305
0.00285513
0.0024811
0.00544571
0.00683891
0.0028997
0.00258023
0.0074707
0.00583683
0.00344367
0.00363894
0.00672715
0.00388297
0.00115029
0.0039274
0.00396469
0.00593554
0.00725125
0.00187534
0.00486386
0.00609197
0.000803569
0.00138957
0.000999153
0.00695842
0.000982718
0.000454496
0.00688936
0.000354678
0.000829106
0.000598458
0.00397784
0.00505685
0.0043172
0.00157738
0.00714311
0.00446636
0.0045601
0.00400269
0.0028344
0.00366696
0.00351564
0.00116819
0.00442483
0.00292645
0.000910582
0.00402081
0.0004123
0.00191798
0.00130684
0.00692599
0.00308898
0.0020096
0.00623239
0.00494242
0.00193592
0.0073417
0.00231733
0.00184716
0.000411598
0.00726512
0.0016651
0.00562962
0.00310417
0.00311394
0.0057608
0.00142644
0.00504771
0.00229872
0.00502472
0.00132562
0.00027803
0.004215
0.00722423
0.000494913
0.00483521
0.000322922
0.0038373
0.00381769
0.00462816
0.00448038
0.00571351
0.00718439
0.00407776
0.00233357
0.00571419
0.00220607
0.00413633
0.00382538
0.00731035
0.00233914
0.00109059
0.00408053
0.00458332
0.00534956
0.00487666
0.00313223
0.00430645
0.00462552
0.00607289
0.00242097
0.00266489
0.00747213
0.00395733
0.0039106
0.00524938
0.00387476
0.00382184
0.00302617
0.00377846
0.00403999
0.00293855
0.00395909
0.00609231
0.00498863
0.00657338
0.00212939
0.00226499
0.00196187
0.00363162
0.00493814
0.00438285
0.00131762
0.00589691
0.00561747
0.00564134
0.0016278
0.00300427
0.00131161
0.00129147
0.00127595
0.00363796
0.00475595
0.00461379
0.00443906
0.00665065
0.00124889
0.00424075
0.00685274
0.00429294
0.00326527
0.0044166
0.00138112
0.00449261
0.00238767
0.00290413
0.00351647
0.0063021
0.0046242
0.00382935
0.00390409
0.00479452
0.00308174
0.00344295
0.00293528
0.00380728
0.00508455
0.00494484
0.0022033
0.00196258
0.00497579
0.0042628
0.00239917
0.00381554
0.0023098
0.00711138
0.00581025
0.00239096
0.00480835
0.00602777
0.00475817
0.00704156
0.00702741
0.00379759
0.00447969
0.00204193
0.00463367
0.00259847
0.00657318
0.00462588
0.000977843
0.00419857
0.00429082
0.00539683
0.0053651
0.0040474
0.00433291
0.000341795
0.00348714
0.00479742
0.00637642
0.00550029
0.0050857
0.00735738
0.00661965
0.0035241
0.00420505
0.00672168
0.00706747
0.00303484
0.000993904
0.00139596
0.00308723
0.00183545
0.00353823
0.0041013
0.00355988
0.00165776
0.00199907
0.00354041
0.00413398
0.000868264
0.00500827
0.00414258
0.00398298
0.00409447
0.00710735
0.000329764
0.00483889
0.00371667
0.00742518
0.0027367
0.00294751
0.000409108
0.000251589
0.00485022
0.00612647
0.00721852
0.00409713
0.00375764
0.0055085
0.000231414
0.00110781
0.00499078
0.00257862
0.00144298
0.005143
0.00520056
0.00312454
0.00722442
0.00521394
0.00697117
0.00446283
0.00280077
0.00402441
0.00435292
0.00543636
0.00210821
0.00443833
0.00743716
0.00126576
0.00571946
0.00373406
0.00332867
0.00101307
0.00141973
0.00352821
0.00287975
0.00570684
0.0028478
0.00293017
0.00634964
0.000612468
0.00151941
0.00287978
0.00398516
0.00340174
0.00397093
0.00394468
0.0012484
0.00737049
0.00695684
0.00574394
0.00539259
0.000957897
0.00137172
0.00132355
0.00184104
0.00323816
0.00287995
0.00740797
0.00748748
0.00454968
0.00531233
0.00525471
0.00589774
0.00735284
0.00115956
0.00045307
0.00726624
0.00714214
0.00331476
0.00179203
0.00332412
0.00728703
0.00546
0.00164565
0.000931488
0.00353376
0.0020471
0.00412328
0.00166577
0.000539203
0.00303798
0.0065705
0.00731441
0.0061718
0.000933372
0.00580077
0.00435021
0.00436801
0.00733029
0.000956067
0.000311645
0.000521221
0.00170068
0.0018503
0.00653844
0.00722425
0.0025387
0.00432408
0.000991337
0.000814632
0.000711037
0.000451672
0.000766711
0.00182853
0.00662218
0.000877545
0.00739785
0.000402081
0.00390638
0.000744538
0.00447607
0.00189117
0.00641528
0.00312401
0.00224764
0.00225552
0.00533815
0.00560173
0.0039914
0.00094724
0.0011839
0.00500574
0.00517944
0.000489414
0.000363311
0.00387824
0.00164503
0.000661655
0.00118125
0.00481222
0.00708979
0.000858585
0.000580634
0.00153364
0.00721196
0.00128663
0.00656573
0.000692499
0.00111567
0.000467679
0.00241981
0.00605772
0.00173032
0.00700675
0.00467463
0.00400722
0.00239106
0.0064656
0.00385925
0.00529269
0.00385252
0.00430799
0.00718173
0.00673717
0.0037359
0.00688331
0.00623177
0.00446895
0.00438017
0.0017515
0.0039137
0.00245242
0.00409247
0.00629693
0.00443741
0.000961385
0.00357301
0.00345772
0.00217396
0.000628257
0.00441876
0.00325646
0.00358984
0.00103466
0.0018194
0.00136086
0.00481498
0.00698489
0.00516796
0.00352647
0.00586835
0.00345817
0.00328431
0.00389078
0.00726158
0.0048843
0.00585411
0.00470162
0.00316418
0.00469264
0.0037531
0.00070754
0.00367146
0.0041458
0.00440785
0.00304863
0.00116409
0.0023146
0.00427155
0.00483919
0.00324131
0.00113608
0.0014199
0.00398513
0.00333795
0.000384943
0.00154751
0.00207167
0.00409964
0.00154166
0.00318191
0.00405427
0.00316148
0.00119869
0.00480045
0.00415251
0.00242866
0.00671052
0.0023962
0.00275392
0.00321655
0.00334232
0.00194941
0.0043448
0.00586121
0.00733541
0.00203696
0.00334748
0.00440429
0.00250077
0.00522452
0.000907334
0.00294326
0.00334334
0.000460394
0.00193407
0.00601646
0.00349073
0.000887813
0.00175418
0.00238203
0.00727864
0.00291264
0.00114949
0.00581949
0.00745687
0.00070174
0.00201605
0.00147171
0.0031109
0.00472886
0.00477953
0.0014434
0.000567063
0.000749491
0.00393737
0.00591713
0.000641655
0.00664704
0.00188649
0.00310148
0.00156654
0.00115532
0.0050994
0.00351364
0.00119164
0.00405879
0.00458295
0.00468284
0.00364288
0.0054846
0.000990199
0.000305548
0.00412141
0.00363367
0.000697982
0.000580554
0.000706935
0.00228352
0.00118411
0.00209367
0.000614797
0.00352661
0.00353197
0.000831673
0.0024224
0.00253784
0.000756809
0.000856358
0.000401543
0.0070493
0.00654349
0.000451056
0.00624446
0.0042957
0.000867816
0.00566492
0.00296959
0.00425921
0.00327498
0.0050903
0.00649121
0.000496308
0.000410218
0.00186369
0.000834757
0.00242562
0.00388597
0.00440592
0.00469276
0.00337592
0.00512103
0.00570483
0.0042368
0.00504221
0.000725966
0.000717958
0.00381219
0.00188676
0.00446338
0.00412864
0.00289049
0.00358076
0.00370665
0.00482933
0.000607374
0.00121171
0.00434292
0.000754363
0.00282776
0.00143936
0.00278579
0.00354334
0.000967465
0.00282982
0.00117073
0.00321255
0.00292532
0.00292396
0.00657959
0.00131845
0.00727858
0.00574827
0.00258882
0.00433066
0.00151681
0.00343375
0.00192532
0.00343308
0.00090324
0.00401004
0.00343796
0.00369206
0.00722008
0.00310662
0.00335523
0.00181926
0.000366119
0.00304251
0.000666219
0.00350295
0.00464114
0.00322472
0.00471747
0.00532261
0.00507748
0.00324285
0.00131798
0.00191043
0.00138128
0.000664004
0.00324649
0.00450362
0.000173818
0.00106337
0.00462627
0.00349691
0.00139292
0.00380083
0.000791939
0.00046936
0.00266948
0.00121333
0.00139357
0.00287948
0.000826012
0.00184325
0.00691651
0.00349178
0.00109686
0.0011893
0.00690222
0.00102511
0.00746682
0.00263919
0.0052428
0.00263244
0.00193372
0.000941904
0.00106383
0.00589001
0.00568911
0.000252088
0.0072388
0.00443391
0.00120155
0.00623641
0.00286458
0.00319197
0.00366585
0.000531516
0.00155776
0.000653283
0.00173856
0.0031524
0.00121996
0.00614052
0.00528111
0.0011316
0.00690626
0.00377691
0.00265414
0.00526653
0.00141294
0.000542471
0.00710621
0.00250661
0.00725791
0.000816302
0.00466035
0.000618616
0.00284227
0.00257789
0.00651573
0.00256531
0.00268875
0.00677513
0.00536705
0.00335363
0.00735496
0.00134876
0.00337636
0.00355356
0.00617512
0.00438967
0.00354119
0.00272421
0.00291595
0.00205197
0.00319486
0.00401915
0.00419517
0.00157416
0.000636652
0.000833264
0.000746848
0.00128767
0.000874696
0.000879174
0.00307429
0.000271992
0.000687615
0.00127418
0.0020608
0.00282835
0.000989399
0.00103892
0.00244845
0.0013574
0.00215857
0.00611421
0.00286025
0.00122745
0.0039766
0.000545369
0.00308369
0.000422933
0.00201668
0.00120056
0.00145095
0.00118904
0.000721464
0.00196472
0.00061512
0.00269175
0.00207305
0.00454708
0.00175001
0.0051537
0.00602083
0.0010103
0.00344704
0.000956137
0.00169536
0.00512405
0.00236788
0.00418532
0.00134305
0.00114214
0.0075358
0.00559863
0.00164551
0.000978154
0.00372268
0.00271315
0.00115938
0.00115846
0.00458805
0.00729481
0.00391763
0.00424118
0.000743287
0.0074084
0.00095043
0.000361465
0.00514113
0.00280702
0.00428914
0.00385682
0.00084914
0.00280279
0.000761529
0.00332421
0.00447962
0.000538284
0.00099887
0.00551749
0.00238516
0.00550101
0.00676588
0.0012091
0.00275352
0.000781596
0.00380884
0.00644387
0.00239116
0.00699435
0.00512557
0.00543488
0.00510004
0.00276312
0.00247816
0.00141363
0.00355981
0.00117714
0.00452607
0.00699245
0.00218146
0.00132785
0.000874867
0.000905393
0.00170918
0.00199649
0.00107463
0.00100466
0.000802703
0.000907165
0.00322431
0.00302274
0.00408288
0.00141316
0.00504058
0.00303606
0.00319977
0.00151615
0.000554066
0.00348158
0.00321016
0.00347636
0.00478994
0.00341149
0.00443184
0.00618052
0.00484092
0.0027388
0.00303101
0.00271875
0.00570527
0.0029867
0.00147017
0.000780683
0.00423702
0.00060233
0.00744487
0.00339285
0.00703642
0.0044852
0.000966418
0.0027347
0.00121862
0.00375982
0.00363331
0.00372036
0.00453016
0.00498094
0.00338393
0.0033251
0.00391065
0.00739419
0.000849783
0.00316552
0.00132185
0.00291379
0.00104638
0.00603432
0.00460913
0.00346529
0.00395016
0.00296222
0.00100153
0.00667267
0.00410943
0.00079443
0.00246785
0.00243079
0.00284567
0.00243962
0.00247248
0.0022248
0.00511108
0.00748889
0.00676429
0.00203337
0.00162287
0.00483564
0.000463186
0.00528183
0.00182812
0.00705211
0.00648347
0.00196411
0.00435925
0.00635775
0.00105138
0.00742104
0.00419801
0.00154042
0.00255689
0.00715259
0.00136536
0.00683567
0.00711055
0.00119171
0.00322452
0.00288857
0.000836269
0.00744291
0.00207376
0.0014377
0.00172359
0.00101208
0.00118367
0.00500004
0.00582371
0.00290966
0.00609205
0.00200907
0.00294762
0.00562777
0.00630522
0.00348126
0.00122505
0.00299538
0.00435609
0.00235702
0.00342415
0.00248338
0.00738869
0.00209997
0.00124687
0.00366708
0.00360836
0.00533732
0.00505155
0.00336814
0.00432721
0.00223169
0.00358009
0.000630452
0.00431689
0.00693482
0.00105133
0.00286895
0.000668574
0.000995176
0.00575199
0.00349083
0.00130034
0.00309278
0.000524428
0.00148186
0.000637876
0.00154756
0.000605414
0.00301902
0.00192991
0.00161845
0.000578057
0.00118107
0.00297006
0.000725387
0.00044018
0.00229904
0.000362076
0.00100592
0.00212948
0.00256092
0.000850661
0.000967825
0.00745807
0.00372
0.00103959
0.000793825
0.00109349
0.00137445
0.00162927
0.000814115
0.00286983
0.00368756
0.00443853
0.00710295
0.00316561
0.00665571
0.0010908
0.0029804
0.0043859
0.000716659
0.00392691
0.00232188
0.00448811
0.00658762
0.00318596
0.00427462
0.00179745
0.00688941
0.00190483
0.000609007
0.0049559
0.00715745
0.00337938
0.005233
0.00109898
0.00288802
0.00574071
0.00641494
0.000612246
0.0065461
0.00384024
0.00709101
0.00177858
0.00319404
0.00444508
0.00588303
0.00521456
0.00142138
0.00362535
0.00252888
0.00750422
0.00723445
0.00705755
0.00394112
0.00465602
0.00362611
0.00595085
0.00341161
0.0036412
0.00265905
0.00131845
0.00123045
0.00342056
0.00192864
0.00420572
0.00272249
0.00350907
0.00373338
0.00656659
0.00317065
0.00430384
0.00641501
0.00216761
0.00464652
0.00308423
0.00112653
0.00492451
0.0027791
0.00128731
0.00394889
0.00115819
0.00198231
0.00118497
0.000365081
0.00281905
0.00546136
0.00200941
0.000479226
0.00390082
0.00718328
0.00644119
0.00567762
0.00355423
0.00462188
0.00733223
0.00723383
0.00389236
0.00287223
0.00746912
0.0066831
0.00745571
0.00551673
0.00312075
0.00184397
0.00307334
0.00629412
0.00352275
0.00095584
0.00542272
0.00613554
0.00366998
0.000560897
0.000627649
0.00374907
0.00539552
0.00501968
0.00323782
0.00455542
0.000646849
0.00188959
0.00500841
0.00404968
0.00628306
0.00354151
0.00188982
0.00400807
0.0032598
0.00364148
0.00137251
0.00197707
0.00167252
0.000995079
0.000344338
0.00229151
0.00194045
0.00383832
0.00394015
0.0034681
0.00326631
0.00612985
0.00441825
0.000478309
0.00706919
0.00181888
0.00122815
0.0033465
0.00298594
0.000633016
0.00202671
0.00409211
0.00386255
0.0074625
0.00303655
0.000997386
0.00383265
0.00163516
0.00508743
0.00283634
0.000726152
0.000900849
0.00346486
0.00331647
0.00111392
0.00476766
0.000711583
0.000653802
0.00128194
0.0074196
0.0070892
0.00037595
0.00627672
0.00050941
0.00213093
0.00320431
0.00114187
0.00100215
0.00644643
0.00744618
0.000983058
0.00653089
0.00607829
0.00503846
0.0068536
0.00431346
0.00384582
0.00232055
0.00579922
0.000368752
0.00320106
0.00438398
0.00382927
0.000324968
0.00424578
0.00058359
0.00498294
0.00345254
0.00376367
0.0011538
0.00560403
0.00487778
0.0050122
0.000973564
0.0020364
0.00206438
0.00142021
0.00276794
0.006375
0.000820708
0.00320027
0.00328878
0.00324447
0.00448153
0.003186
0.00388452
0.00715426
0.000393802
0.00139445
0.0045256
0.00497977
0.00237783
0.00430909
0.0028059
0.00311187
0.00498502
0.00232005
0.00467876
0.0049844
0.00421061
0.00152893
0.00455633
0.00475078
0.00492469
0.00354724
0.00675027
0.005383
0.0052775
0.00279083
0.00417721
0.00272185
0.00256976
0.0036733
0.000542785
0.00510264
0.00298038
0.00134067
0.000903413
0.00152357
0.003728
0.00408137
0.00193374
0.00043058
0.00397942
0.00100531
0.00401226
0.00732639
0.00276742
0.00176632
0.00385945
0.00467984
0.00746799
0.00522013
0.000349625
0.00518079
0.00670407
0.00255363
0.000432832
0.000564195
0.00386571
0.000295092
0.000660441
0.00113761
0.00179567
0.000876134
0.000560038
0.00532668
0.00100051
0.00397383
0.0056023
0.00475509
0.000551576
0.00211252
0.00696159
0.00591465
0.00102783
0.004644
0.000552409
0.00575656
0.00293755
0.00502974
0.00295695
0.000653366
0.00742549
0.00316409
0.0028369
0.00586144
0.00371652
0.00612127
0.00290236
0.000523009
0.00051551
0.000680003
0.00153726
0.00133876
0.0061809
0.00653403
0.00523903
0.00369073
0.00721552
0.00158609
0.00740221
0.00101469
0.00420663
0.00690122
0.00604566
0.00477159
0.00696211
0.00345038
0.00300795
0.00717646
0.00315344
0.000938872
0.00581019
0.00111484
0.000933625
0.00667449
0.0002909
0.000572215
0.00282398
0.00294207
0.00387489
0.00129414
0.00430615
0.00209462
0.00141517
0.00568975
0.00168479
0.00727644
0.00216106
0.00423023
0.002366
0.00195696
0.000811736
0.00332806
0.00392994
0.00071119
0.00139242
0.00212036
0.00170184
0.00566115
0.00150084
0.004338
0.00192363
0.00318151
0.00612195
0.0013372
0.0025751
0.00239327
0.00648441
0.000671785
0.000865767
0.000593878
0.00609122
0.00431745
0.000926258
0.000634685
0.00190174
0.00390374
0.0025131
0.00114095
0.000846889
0.00190028
0.00489709
0.00345603
0.00436826
0.00532948
0.00400411
0.0006203
0.00526435
0.00187824
0.00313803
0.00691459
0.00260428
0.00266945
0.00548586
0.00392636
0.00584408
0.00229094
0.00147597
0.00471571
0.00404818
0.00216666
0.00313259
0.00284286
0.00196879
0.00204691
0.00361374
0.00628881
0.00605514
0.0055636
0.000789661
0.00379957
0.00104051
0.00308794
0.0039355
0.00537477
0.00341141
0.00699481
0.00249005
0.00747215
0.00225144
0.00239515
0.0035943
0.00451846
0.00241796
0.00347955
0.00287563