/*--------------------------------*- C++ -*----------------------------------*\
| =========                 |                                                 |
| \\      /  F ield         | OpenFOAM: The Open Source CFD Toolbox           |
|  \\    /   O peration     | Version:  2506                                  |
|   \\  /    A nd           | Website:  www.openfoam.com                      |
|    \\/     M anipulation  |                                                 |
\*---------------------------------------------------------------------------*/
FoamFile
{
    version     2.0;
    format      ascii;
    arch        "LSB;label=32;scalar=64";
    class       volScalarField;
    location    "0.0441308";
    object      omega;
}
// * * * * * * * * * * * * * * * * * * * * * * * * * * * * * * * * * * * * * //

dimensions      [0 0 -1 0 0 0 0];

internalField   nonuniform List<scalar> 
47425
(
57.1256
67.5938
72.2659
164.168
138.492
72.4563
93.5258
103.381
49.3947
598.417
140.189
46.784
69.9064
79.918
95.6485
90.568
69.0799
49.2328
1228.69
180.494
86.6485
46.4061
107.345
64.36
47.7598
45.2983
78.7759
679.135
71.0568
56.3078
45.6925
47.4737
47.7623
66.6017
54.2136
68.0091
45.8101
67.5652
65.3178
75.3505
73.1559
83.1318
141.573
144.998
1333.95
107.376
97.4335
77.6518
79.0118
48.625
582.664
225.832
50.3466
811.328
115.028
123.944
45.1438
57.4949
83.8913
62.2373
1118.47
1127.39
880.332
46.3561
49.3531
46.5264
62.0074
81.7614
772.588
46.2594
78.6155
51.5498
48.5127
91.1526
691.051
49.4045
862.419
81.934
1381.99
257.052
718.308
64.9098
44.9504
47.0757
46.6144
83.4212
53.7592
50.1906
111.37
412.611
46.1758
78.1314
45.4293
115.57
148.571
196.386
49.6528
51.976
88.1695
80.187
61.0119
91.7407
52.6309
98.4477
50.0626
54.2223
47.6267
93.7637
47.8904
48.1674
351.7
63.4282
68.8548
156.15
48.1271
913.049
47.6767
230.385
80.3376
60.9924
79.5922
48.5476
58.6795
62.1114
98.5338
58.7241
85.7929
49.1907
106.718
44.8245
46.1293
98.5715
131.006
122.871
74.7196
67.0174
48.6944
61.142
69.1328
98.9378
71.0656
135.085
72.3689
84.456
53.32
49.3292
109.298
63.0824
153.168
72.4243
83.4103
489.396
48.7625
700.459
48.0171
85.5038
58.7326
908.707
94.4563
74.1662
47.972
45.212
50.5025
47.5588
398.226
836.875
46.174
697.374
107.096
703.26
704.407
87.4993
73.8831
46.765
73.8602
67.2976
720.416
70.5731
52.8366
45.7014
1009.96
47.448
60.5187
47.0904
47.678
49.169
56.6161
80.0659
149.963
54.5605
47.9331
71.45
80.7424
77.0273
48.2344
45.8082
61.8747
74.0001
46.6485
82.1937
66.63
123.198
47.0653
46.6589
50.8767
159.217
53.4863
46.1161
88.0413
48.4495
63.5825
66.493
47.3267
94.8558
62.7225
63.3311
72.8497
250.673
48.8762
94.2335
282.323
118.053
106.222
96.3184
167.512
237.35
48.1114
131.465
51.2483
60.0448
69.9581
73.6425
106.532
49.3232
166.629
94.6785
316.292
115.661
262.143
182.018
84.3119
58.1594
44.7316
104.527
45.4242
49.4728
68.6525
60.6718
44.8235
77.7272
44.4872
214.536
67.2808
49.2838
92.0065
44.6681
47.5181
122.062
96.1046
48.3596
126.656
47.359
78.2885
136.118
69.6988
91.5695
45.9196
69.8859
62.5506
82.8068
79.8068
229.979
308.613
48.2738
215.784
180.53
216.427
116.306
293.277
180.334
1164.73
55.5625
1103.28
125.656
80.6814
86.836
106.297
91.9302
91.8282
49.5181
618.702
46.3592
50.3439
57.1274
67.9146
100.873
113.644
46.9498
66.6676
56.9529
90.4253
45.4572
88.4701
60.5001
790.308
1044.9
680.18
44.7199
48.9291
44.9729
103.357
691.471
87.775
118.814
233.551
75.7216
105.781
123.662
93.2123
397.113
206.327
46.6091
61.3862
47.4309
83.6179
45.1064
78.7673
61.4639
52.3211
72.3678
82.2216
635.331
55.2006
76.1851
129.159
44.9572
661.716
52.757
46.6625
52.2252
47.0266
47.2881
45.0674
53.6713
49.4235
51.59
59.1804
48.4562
83.113
86.1269
48.324
46.7141
63.4881
49.0533
49.6882
49.3922
81.1063
44.5902
50.4906
93.4644
57.2036
59.8348
80.6868
94.5752
48.1421
49.9254
133.034
48.2329
68.3091
46.0758
132.383
1016.48
78.2292
46.1699
200.234
46.0469
80.291
94.9039
72.5527
46.1249
63.5245
46.4292
44.6515
73.769
87.9113
82.8557
84.8083
52.9588
48.8114
84.6358
49.29
47.9209
82.2332
56.6396
65.9741
49.3945
63.1462
90.9598
64.7832
48.8555
487.99
46.7992
388.56
72.1903
107.156
104.928
48.1865
147.472
47.3109
95.9479
47.6808
592.894
355.786
44.5272
50.4753
81.4177
87.1007
81.7901
76.0764
81.0753
90.3422
68.4577
45.3335
103.386
71.3761
49.5234
82.2498
78.3724
53.7722
142.621
1391.17
48.3119
281.076
1153.4
90.8941
1186.57
875.298
49.0695
81.1927
76.5655
79.466
738.895
90.1299
50.2386
50.7935
75.2507
75.8925
82.0135
81.1649
466.205
805.139
149.341
65.558
73.0646
132.113
56.7651
45.6969
66.7713
45.2074
84.0053
75.8137
132.706
69.0967
49.3503
79.3035
59.6793
79.9257
45.8749
65.3575
67.7953
66.7274
63.5445
110.022
124.003
62.6649
85.3902
45.5306
497.939
131.022
73.9804
46.5363
139.261
248.899
48.7267
44.7437
48.8724
47.4619
68.1421
50.2007
108.865
83.5276
49.0154
53.7614
147.199
98.99
46.9999
52.0217
58.6587
55.5744
48.2898
51.9412
45.5052
69.2426
57.9988
113.124
61.4557
48.0895
45.0466
45.5201
75.5683
129.646
46.7076
44.5902
56.4522
55.5941
56.2382
60.0058
71.4173
73.1874
52.0005
76.9224
100.904
431.748
61.9675
69.3367
54.3902
49.3455
125.618
125.282
78.3781
49.6294
82.1434
102.403
48.9735
135.984
48.4631
251.845
50.099
52.4167
58.3502
120.907
44.5435
73.0211
73.6306
47.602
44.9078
51.2317
1146.43
63.1294
150.836
46.8778
95.9659
47.0728
58.8015
81.3642
71.8552
70.9321
46.5801
407.818
54.3009
58.9026
54.627
49.7896
45.4462
58.6186
116.574
48.8957
53.5332
68.2719
45.6928
235.46
46.0959
61.6998
523.349
72.8355
44.9087
373.512
558.836
47.0441
682.548
711.945
71.8163
46.7707
52.6116
45.3611
85.8913
91.032
585.935
45.7037
130.325
50.4667
106.424
57.4385
85.4114
67.8375
536.298
322.675
52.6626
95.058
94.0709
85.7161
123.821
127.41
50.0534
98.8722
132.912
93.1423
67.6772
131.946
51.8816
48.6408
132.361
94.7108
78.8171
123.907
102.869
67.811
73.4142
59.0113
55.1246
68.1525
48.9266
47.5396
1335.29
62.0358
74.3928
1045.62
1012.03
44.9605
78.1311
1668.17
172.738
91.2444
294.256
119.465
771.454
59.0087
49.3136
60.0976
161.667
113.743
112.844
46.7139
119.704
66.6127
83.9401
49.4854
81.8323
57.7138
417.582
695.393
124.067
50.4808
87.317
45.1946
110.243
47.4876
58.2812
63.5146
65.4488
46.5575
183.107
75.6882
47.8732
70.0551
190.557
829.785
210.868
89.0643
44.7995
75.1146
45.3192
817.939
71.1967
587.563
85.4553
107.16
65.4875
70.5161
60.4128
86.9418
55.1568
88.6881
56.1241
208.967
88.4927
49.2342
70.4269
90.3588
924.228
65.3954
204.455
67.631
48.6659
45.2896
145.763
80.0686
70.3151
46.2316
64.8611
66.1023
74.4313
81.2436
80.3642
64.6987
124.973
192.807
71.3489
97.1391
67.6706
115.352
93.3817
48.5811
117.828
61.1475
76.8122
80.0703
45.7546
295.367
430.216
97.3599
66.543
47.6737
92.4861
54.1256
139.37
47.0267
244.012
83.2358
46.1615
78.7108
48.4144
59.6693
70.7838
49.9166
90.6736
44.8689
46.483
49.0313
165.109
44.1011
378.938
234.57
248.336
358.287
81.6305
222.142
58.8545
48.4125
148.948
343.777
369.333
102.691
60.6248
123.508
118.512
161.89
131.975
95.4845
53.1766
70.9008
100.197
115.484
57.4812
83.9749
369.531
58.9276
62.7418
153.543
121.75
116.741
151.207
759.568
498.794
230.547
254.891
80.6707
120.48
45.2731
47.8697
73.1961
412.594
182.672
72.9386
74.0767
45.4543
361.05
368.655
44.7605
171.919
91.7499
44.9026
168.59
44.8499
45.0432
73.0537
73.3437
86.7958
49.4564
45.0466
61.3905
70.0801
68.6851
141.543
104.101
45.0081
250.661
48.3358
46.6249
47.076
200.128
80.3746
268.634
120.943
54.8427
44.8542
68.7375
1267.02
73.8181
85.1734
73.8448
65.8608
61.2811
118.252
123.243
127.945
280.17
91.679
769.868
49.4173
67.4425
55.2773
61.6853
45.7759
169.862
128.825
45.3456
308.856
98.8679
70.6247
259.592
75.7805
54.0227
72.7465
66.4901
70.3189
112.637
344.078
67.2699
72.7574
210.413
224.207
666.23
218.844
90.7869
179.308
45.9003
48.63
101.411
166.849
87.5302
84.5163
95.3202
104.313
48.6225
68.5086
107.295
100.725
91.1807
299.64
549.009
95.4806
112.759
140.592
711.177
357.671
211.82
93.8101
67.1489
96.5942
94.5074
175.456
46.3685
49.2555
96.5118
443.342
122.266
71.191
98.5362
54.8186
110.352
128.376
78.6021
469.618
53.7383
65.3721
131.332
97.2643
65.4226
66.1471
104.737
101.107
93.3698
60.0527
129.921
46.9214
46.1255
47.4791
83.0838
58.0496
151.988
54.0829
222.652
295.164
268.877
98.0788
83.6968
47.1101
70.3006
115.385
485.412
233.945
919.206
46.1486
59.2198
55.4757
315.631
88.8835
302.628
239.764
233.947
136.417
233.112
91.1074
86.7833
73.4906
47.4534
120.246
68.5045
74.0967
222.769
77.2057
66.0032
51.2444
263.985
419.319
150.726
189.943
658.096
193.276
93.5238
70.9171
89.2627
108.675
186.564
190.178
641.272
47.7553
57.9859
72.8592
47.8859
64.1915
102.202
98.0283
53.8981
113.913
53.0804
78.4423
52.1825
47.329
126.634
65.6464
121.516
46.7274
46.4098
164.847
48.0742
99.6784
106.394
46.611
63.4574
117.559
78.1539
67.0906
80.5123
519.71
186.149
125.697
109.109
1865.12
1015.83
654.435
431.218
104.772
50.4074
1082.28
415.76
55.1655
65.5057
108.116
86.9578
389.699
140.272
47.7417
114.971
58.472
49.2896
207.18
935.565
141.068
1190.08
154.641
246.606
728.256
57.1902
78.9339
134.785
293.619
94.602
48.84
48.5795
852.727
87.5732
355.245
73.2414
164.785
49.3532
54.1292
547.083
558.528
84.5803
55.4864
73.761
467.114
45.8796
50.3091
433.164
567.673
72.8697
46.3035
1055.22
841.746
545.452
100.839
230.747
490.29
521.933
80.0718
92.9256
103.048
64.0319
109.274
537.136
1417.6
63.8893
60.5956
59.2241
52.2265
49.8317
82.0781
139.037
67.0263
49.5563
48.324
80.6049
369.09
1116.29
51.7798
231.366
98.4027
74.1747
185.02
56.9194
90.6841
75.5642
48.4679
201.213
53.3485
494.083
45.6961
788.571
536.637
505.203
205.129
95.74
64.3769
104.94
53.4978
209.871
1443.39
105.671
389.135
188.934
451.311
153.869
792.247
623.822
93.5543
51.6246
1544.75
85.6891
49.5475
74.356
556.183
1055.48
81.0488
52.3582
470.389
79.6385
877.644
762.34
109.119
119.821
880.108
104.552
46.9392
560.878
52.6503
611.859
1019.67
45.5413
68.8666
84.9346
56.4577
124.805
102.957
44.8857
123.155
90.2884
118.396
57.9677
45.1352
178.487
166.541
617.905
53.1819
97.7258
227.307
46.6006
825.085
86.437
115.437
152.249
543.44
87.2745
490.712
182.721
143.353
56.9983
657.018
220.997
279.461
82.6049
160.823
61.623
76.0285
69.0612
334.189
261.85
107.317
720.575
150.104
105.74
276.204
128.794
146.455
789.627
319.768
50.2137
158.946
83.8629
148.416
310.371
997.439
58.423
46.9927
62.3936
526.723
63.502
315.487
59.9994
62.3736
47.759
145.413
56.7252
210.815
308.669
54.0025
62.3552
93.2278
81.6536
995.051
346.159
116.484
735.616
365.517
121.982
222.326
64.248
58.1735
1096.61
57.5848
415.028
308.549
48.0969
59.9436
83.9457
96.2539
56.3213
71.6063
131.866
79.4887
79.1371
67.7843
82.6753
249.154
67.2673
197.226
157.556
200.849
56.4829
732.729
421.254
57.2719
543.177
243.66
57.5227
110.966
660.48
221.647
49.0098
182.97
382.872
186.904
449.04
58.202
565.831
107.592
54.8874
68.7111
110.576
176.335
126.73
66.6095
258.835
49.8545
245.966
109.099
1232.05
146.22
80.427
122.182
254.9
56.4014
244.945
107.762
111.684
670.992
79.2421
77.5962
1022.55
44.9333
103.78
381.894
61.5546
279.492
802.011
153.961
75.3086
83.0972
963.162
304.945
382.615
317.336
78.0977
69.7128
103.349
654.039
812.307
279.385
89.3583
48.2778
87.5963
88.7914
131.014
337.39
93.7675
56.4906
61.7263
61.2965
46.8336
86.2719
45.999
47.0522
121.883
87.9011
46.516
130.872
238.999
63.2262
48.2032
132.912
63.1387
48.1456
55.9999
103.129
96.8271
50.7283
96.9819
596.149
89.2141
49.6891
55.6511
45.4656
231.161
68.6094
54.9075
694.406
873.815
282.971
49.0832
681
153.144
48.3146
1035.07
97.5068
1019.19
91.7816
67.0611
82.9577
67.8315
46.9008
83.3364
85.0892
94.085
116.729
90.3763
105.596
155.078
81.9282
78.5955
432.123
86.8135
1294.76
71.0553
672.408
46.995
120.533
183.666
52.7377
69.3223
190.463
44.7727
497.916
328.377
1269.7
53.4309
644.363
58.1587
112.696
165.624
57.6143
562.092
84.1624
277.134
64.0716
722.342
698.019
80.446
45.0999
392.406
71.3356
348.831
86.0589
97.0419
71.6636
73.5414
58.4255
47.8305
86.1279
266.392
72.8205
178.296
86.0679
87.818
45.6585
156.197
607.879
91.0558
371.64
98.1103
67.9131
121.612
81.3302
74.7803
57.0871
154.727
132.294
48.5707
86.2176
80.7872
69.6744
94.7198
401.284
422.258
82.8605
92.536
309.858
88.4214
53.7175
65.5776
49.6446
171.692
168.019
203.946
104.796
70.5897
74.8033
67.2188
55.3532
56.686
60.4592
462.331
130.821
658.036
498.297
617.859
58.5872
69.2527
70.1189
73.0115
49.4817
312.117
81.0815
47.9541
80.8801
111.349
74.4644
357.039
72.7232
158.205
107.938
100.639
51.7343
71.7892
90.9919
90.8031
68.8437
115.709
98.0807
177.242
87.4078
68.9764
78.7924
153.238
173.678
65.9311
82.7445
135.816
98.6717
171.301
46.2329
55.6497
137.467
69.4052
54.857
77.519
46.4511
46.8695
86.4064
76.7929
428.138
72.8276
88.5659
49.4161
71.1133
664.924
81.691
86.2271
60.1578
63.198
89.3407
87.072
950.635
107.673
465.661
51.2405
60.9339
72.575
44.9144
49.6143
108.815
83.4373
48.9608
46.7246
326.044
107.717
495.626
122.469
255.387
105.29
78.3415
109.92
559.047
183.986
94.0335
80.3453
935.356
65.4451
82.0017
89.4373
84.8924
46.7695
962.941
68.2911
93.6822
46.96
126.86
57.0187
933.278
1031.07
68.5123
53.8408
45.7611
93.2051
96.0093
59.5703
1193.29
803.858
65.462
140.473
436.4
64.9268
117.721
116.724
45.373
63.1202
47.7111
75.363
229.378
87.839
79.7778
46.7537
57.7485
76.5951
48.6156
300.721
63.4563
136.08
153.343
413.887
310.345
104.16
134.648
72.8182
133.155
121.475
46.2313
595.875
320.608
131.229
94.4898
106.042
92.7447
90.449
329.418
45.2602
46.7431
62.2069
65.0563
133.774
78.4439
370.991
402.878
47.6712
131.237
46.0767
45.4327
80.2575
62.1326
65.6739
55.4567
44.746
332.392
392.308
45.5398
46.5457
196.068
661.684
50.7958
44.3927
85.6753
168.708
922.013
95.3356
384.203
374.867
412.623
383.531
72.1233
49.977
44.6651
58.4392
953.79
56.0164
85.683
81.0665
44.6689
747.336
1248.47
1224.39
203.029
473.835
49.7794
46.2096
54.4969
84.188
795.099
672.275
363.081
554.15
371.756
57.5735
50.275
844.431
47.8359
920.157
95.2827
915.802
80.0387
141.701
64.4186
177.695
169.171
169.765
90.6002
63.067
89.0091
74.9642
65.7933
72.0758
66.6454
1211.66
843.704
90.2476
343.006
750.548
321.987
69.81
46.9583
668.569
529.163
493.04
46.4415
831.434
50.7504
974.173
687.931
733.564
282.957
53.6541
61.281
47.6171
72.846
86.212
161.661
66.7188
84.8924
61.5762
95.7753
79.5787
45.656
49.1829
115.997
47.6346
51.7659
79.6798
76.4481
91.3298
89.6021
156.733
91.9508
52.1358
102.068
103.315
91.0185
95.5977
136.372
1146.55
59.0469
334.859
68.4801
93.2218
411.155
70.4325
55.3581
46.9839
100.878
97.518
55.1579
106.74
103.662
85.2757
47.7582
68.1866
55.7814
71.9316
108.516
73.7416
100.603
290.377
92.0943
82.7019
77.5933
114.834
82.687
340.62
46.6075
69.4732
109.126
303.362
306.609
86.3648
105.409
941.963
238.148
188.562
91.5994
73.1802
112.2
89.214
53.7372
134.663
79.43
88.8896
393.392
51.7464
167.05
128.647
114.148
106.493
201.521
79.866
57.9203
45.3574
54.816
100.438
81.9997
532.181
63.8197
91.7351
128.024
103.958
907.19
58.0409
65.1459
105.388
279.345
386.177
150.957
46.1797
136.13
67.2092
48.3789
44.6644
547.845
101.641
59.9795
413.352
86.3046
70.4982
158.355
811.317
1050
145.451
69.4817
940.777
53.8363
181.414
130.459
559.459
325.026
75.026
96.5974
542.231
93.0243
62.0737
73.8984
101.388
54.6898
65.5307
359.314
46.9326
102.715
550.364
150.085
564.487
84.5078
425.705
52.0283
1113.92
105.925
106.085
589.178
234.245
290.14
532.139
430.777
281.388
47.5846
50.6899
422.504
57.1237
86.5775
339.766
66.0275
60.8312
77.6164
150.264
71.7248
51.0312
735.591
426.513
161.941
359.86
169.095
92.0914
83.1852
79.5297
117.176
64.9252
56.7494
84.9815
62.7519
314.659
331.915
115.288
55.8423
79.238
77.4234
116.538
107.235
99.2542
77.6809
341.096
60.3457
64.9507
374.885
132.812
570.942
206.916
99.0113
726.722
139.112
113.387
368.961
135.17
129.092
50.8583
611.774
45.6075
56.9889
53.5188
87.2354
69.1865
103.383
207.576
106.126
131.053
83.0138
111.578
101.03
44.8106
351.03
147.053
590.249
1181.63
106.748
391.464
116.997
71.1648
615.823
69.9002
61.3593
93.4885
109.087
676.259
375.801
54.8465
312.518
384.786
75.7186
1902.37
403.862
108.935
376.847
63.4561
89.2949
240.869
346.918
146.572
747.281
56.1033
52.7131
154.477
53.9155
48.7451
106.294
316.191
583.001
46.9235
142.833
45.3694
144.908
64.2063
144.54
312.983
90.9677
274.613
59.7455
63.4061
789.345
45.6586
54.419
113.728
53.734
127.444
296.231
48.1478
948.47
538.081
887.166
479.165
119.398
69.0758
53.3343
61.6482
84.8276
48.0237
88.1591
150.703
64.1364
74.2205
656.774
46.7135
157.005
46.7945
132.317
70.0307
726.628
129.455
97.3708
46.4861
134.192
152.663
49.2321
61.5942
101.616
44.3526
206.955
97.5947
106.733
55.1633
46.9722
103.807
49.2168
129.501
341.185
47.2085
75.8136
49.5539
65.6413
417.935
225.364
129.623
429.373
821.321
399.744
79.5914
548.569
443.746
721.763
71.6838
195.504
382.815
320.421
295.611
950.997
56.5688
47.1763
192.985
806.475
54.0336
392.206
110.065
410.843
78.2529
70.3835
587.766
570.821
371.13
59.211
301.981
132.017
461.315
46.7018
208.544
65.3458
55.5869
96.8391
97.895
301.42
114.528
64.9275
163.091
79.8762
255.101
363.78
46.445
69.5106
56.743
942.213
85.2011
132.475
177.176
140.373
71.0379
46.0951
92.7409
77.2594
429.589
44.9845
105.943
324.916
66.1473
51.6411
78.121
74.508
676.372
139.7
209.503
97.1196
72.501
1067.33
877.453
60.6038
146.954
60.7276
48.9991
411.678
80.1046
522.146
56.5117
51.3021
99.213
57.3628
49.1915
61.759
69.4642
138.054
224.485
331.223
349.116
70.8194
77.0371
47.6921
172.596
576.175
918.735
71.4735
544.132
184.294
647.874
80.5969
378.977
111.468
163.419
130.59
84.9606
267.445
73.0608
183.376
112.945
60.431
1036.1
107.585
537.758
107.424
73.1722
110.491
128.18
67.4701
68.9726
305.243
108.375
124.259
57.1102
124.031
591.686
130.127
80.4314
163.048
46.9058
62.7059
47.7339
76.756
79.379
150.019
72.3238
97.2389
92.5539
72.9425
79.202
65.0024
75.9543
60.3925
296.146
52.0595
106.786
51.0011
69.398
127.618
79.6741
53.8396
80.7159
101.035
90.2967
129.733
345.598
48.8056
151.712
392.001
158.626
156.247
52.6651
156.814
88.1412
293.591
65.4248
48.1365
53.9343
160.664
58.4349
67.3257
860.252
176.22
358.913
46.9917
51.5057
181.533
81.2305
55.7043
130.766
49.1098
82.5494
56.2578
389.975
46.4859
155.672
48.4074
48.4151
77.3179
67.1591
133.475
105.75
44.8527
287.537
66.5014
70.0058
90.0179
801.589
65.9537
61.821
129.897
61.2789
56.8764
126.125
58.0707
51.8291
107.575
200.774
126.558
85.6563
409.041
109.928
261.133
48.5229
182.403
65.5074
95.6178
200.943
50.5979
99.4421
64.5136
82.0974
159.854
68.4087
587.627
108.049
48.2932
511.202
131.401
1240.96
302.64
157.911
88.0792
95.9162
122.139
380.886
63.2925
454.473
91.2401
368.642
67.0925
374.942
66.326
245.712
218.72
127.09
377.861
508.578
432.079
1161.38
550.548
605.399
390.857
447.938
335.969
45.6871
97.2825
315.424
69.9028
622.579
58.9284
470.087
618.562
122.807
101.891
77.6604
45.7577
115.524
48.9518
249.741
133.215
85.1241
183.218
86.422
156.615
71.9096
54.1757
113.528
50.9241
222.562
47.612
69.4642
701.212
65.971
45.2462
105.225
63.4618
667.36
277.237
70.8171
65.1574
174.344
50.0826
83.7822
50.3943
53.5556
106.991
78.5475
57.2862
63.4361
302.546
90.4493
57.8258
46.3506
45.2034
47.2675
174.904
73.8806
98.7873
55.441
77.1701
99.3067
55.338
250.819
73.2182
49.128
60.5873
84.4466
141.919
112.497
99.8369
51.951
120.381
85.6294
53.8276
53.8226
78.5118
80.8181
100.154
70.6178
126.971
66.6282
87.8424
116.868
290.431
732.322
1122.68
125.859
61.5487
451.408
171.55
147.778
47.4597
51.3145
46.2094
91.5908
75.5684
45.5867
46.8125
48.6143
114.796
44.8393
49.8287
46.0024
60.5906
173.918
55.9081
117.369
53.2472
96.681
251.811
60.254
54.6863
61.5031
1056.48
906.542
99.8261
67.1577
68.3198
59.8047
87.1947
516.479
65.9963
68.7072
91.6788
45.5411
96.0504
53.4747
84.331
113.937
91.9634
64.0432
206.909
263.408
65.727
2071.5
223.569
203.088
61.368
86.8692
102.504
116.39
53.3382
76.664
309.987
47.1905
196.924
590.329
107.557
125.757
654.254
66.8443
81.4064
93.4783
45.2306
121.67
400.544
93.2461
89.6402
432.332
207.089
1118.52
610.962
99.5713
49.9263
141.604
69.0783
183.361
147.621
555.397
49.8489
46.4817
637.273
52.5859
197.638
76.2198
105.398
644.065
857.49
50.7432
45.4913
924.664
50.083
54.3674
65.4412
47.9719
82.8867
143.153
254.003
61.358
566.535
107.428
51.937
87.1341
703.396
82.2231
610.1
66.3844
60.6985
87.9604
85.7928
60.305
107.039
65.1905
577.016
111.276
114.274
505.458
125.435
54.6759
601.861
109.241
108.978
81.4664
142.349
110.724
78.1883
47.5551
259.96
73.0708
74.1198
65.3672
118.217
80.2113
59.088
48.6324
65.7401
151.835
70.9018
66.9283
82.726
428.615
74.4824
70.0573
67.2627
96.07
49.2747
64.1282
63.0381
133.714
104.347
142.707
150.38
91.2022
393.266
62.4825
57.4527
445.095
356.95
518.23
91.0414
342.326
55.112
530.586
95.8516
360.543
96.6421
46.073
117.368
204.214
94.4805
69.1746
46.1081
63.4001
436.439
63.7541
51.6032
54.8599
1687.43
362.584
47.21
1521.02
558.079
334.099
202.245
1242.66
308.343
74.8275
361.449
91.0571
71.0591
403.745
1046.43
64.4146
47.5697
55.6362
510.489
47.6388
1047.98
93.6001
130.752
117.098
127.654
338.678
45.1213
116.606
123.947
55.7773
106.477
53.0992
124.19
1977.87
1976.32
819.89
96.4535
587.762
46.5276
49.437
62.4597
102.006
45.7332
56.2104
45.5155
73.1388
90.9408
47.202
54.2574
77.4606
47.109
100.737
122.887
47.0136
117.034
126.524
46.4678
56.0204
890.426
56.7324
838.266
609.469
129.452
134.852
84.5781
123.98
68.4271
54.9842
466.526
58.3046
60.3492
49.6729
53.5518
79.1723
143.641
115.449
180.431
112.833
49.5624
538.367
63.1137
304.089
316.788
63.6891
719.438
76.8283
57.3332
60.62
57.4843
66.5123
50.0288
130.655
51.9254
387.589
213.057
381.791
56.7922
57.355
82.699
350.202
418.238
88.0074
147.78
64.6063
355.745
64.0864
140.034
493.923
86.5307
56.4482
91.9208
1061.73
63.268
58.9466
121.139
49.4983
138.343
130.542
102.238
85.6026
281.052
171.345
650.158
72.2771
283.736
375.517
350.738
54.5689
178.12
101.061
104.129
54.0218
61.423
63.0746
471.946
85.9611
99.4611
204.132
82.9992
62.7806
98.611
48.4548
145.701
48.2621
63.2347
168.15
103.717
80.2348
169.748
100.369
88.2638
81.5815
128.371
46.7604
299.266
276.237
109.683
102.107
46.7891
309.249
60.5721
47.1182
86.5462
48.8433
109.14
90.4917
49.8231
53.9389
100.526
275.587
238.008
49.6423
804.848
45.8429
97.5465
96.4035
48.1673
776.652
150.239
669.209
50.1323
69.1081
533.355
676.116
90.654
103.578
190.658
127.991
52.634
92.2894
63.1586
147.989
82.5303
135.694
49.7575
136.491
102.09
109.318
62.2828
89.5455
45.6141
61.8294
573.233
305.602
107.75
76.9425
104.698
87.6672
87.6647
155.33
46.0133
51.2724
60.5367
88.3041
83.3805
66.4252
114.415
55.491
57.6829
53.1969
73.1122
58.1521
69.1749
187.487
80.2022
69.3258
1162.2
79.833
65.4669
80.0242
45.528
84.1679
209.619
48.6558
78.6568
81.6165
803.35
64.2522
62.7103
95.2156
1515.72
95.9467
156.579
123.632
66.8972
49.5326
76.2274
64.7053
839.118
95.3663
68.3348
65.6424
47.3283
273.079
48.0968
518.863
406.335
112.123
74.9604
59.337
113.292
89.4085
59.2127
429.921
119.04
309.358
45.1165
139.478
663.601
118.788
50.8221
101.995
54.9391
705.052
58.9186
55.2903
91.2827
45.227
60.987
87.8318
52.3281
301.023
46.9958
372.044
46.8092
75.948
67.107
149.628
88.9468
129.213
112.589
557.845
106.413
121.646
75.8629
46.582
103.536
58.5953
54.0085
82.236
77.7459
63.8907
126.773
47.0459
64.4191
47.7092
286.179
87.2215
601.964
536.131
327.597
160.937
66.7026
69.6383
61.4177
196.402
92.3741
46.7717
45.4475
112.267
143.769
48.2263
73.6493
1073.63
113.641
67.7939
75.4326
684.791
853.09
59.7634
540.363
553.913
202.537
334.703
168.395
518.312
71.9739
229.048
741.314
75.5497
44.7135
61.4262
103.34
314.38
45.7427
45.8343
69.5133
148.159
155.282
1087.41
109.709
1002.66
120.306
71.0083
86.6372
78.4896
73.0381
582.235
166.43
308.945
455.804
67.9974
498.936
1657.4
67.0601
145.467
110.695
418.593
152.688
125.074
713.542
1063.15
102.473
611.256
126.574
401.856
82.4624
46.5696
154.172
749.271
666.06
62.7217
105.941
152.563
97.7794
247.134
51.1619
70.1452
939.542
407.184
406.55
48.1288
406.68
67.2274
394.27
58.6744
110.842
196.272
331.157
87.3899
114.433
305.733
101.583
933.742
74.059
60.9588
372.358
48.1302
149.363
46.4761
55.1481
46.0302
82.8777
435.752
456.039
329.709
60.4923
63.7125
284.996
57.978
523.597
70.4348
53.9422
82.6822
212.68
153.845
619.941
51.717
74.0254
65.5946
287.531
103.038
568.852
901.118
435.488
104.594
63.3397
403.614
383.781
154.381
49.5866
63.3879
44.59
720.473
255.752
435.996
1775.75
237.112
97.2775
81.581
776.415
398.218
64.3406
88.357
102.948
315.476
59.9404
48.499
88.7886
80.4243
734.068
319.466
227.725
253.882
307.462
342.898
162.545
94.6939
849.391
516.452
709.517
203.983
332.904
626.201
153.007
59.5522
106.48
58.1647
58.0363
75.6647
76.1331
141.041
277.478
86.0635
179.076
182.223
147.142
105.8
188.117
107.285
98.3085
129.197
722.302
1119.51
487.909
67.7101
120.878
82.5058
292.252
551.683
156.148
601.061
79.9485
481.139
367.557
179.518
48.5419
46.4769
71.2131
63.0168
660.297
91.0116
58.5453
514.487
73.6475
815.738
434.469
103.257
445.241
62.2714
46.2603
48.6782
44.869
99.3011
65.6836
93.4404
133.308
74.7138
47.451
151.801
706.349
529.911
45.6631
106.212
51.1345
63.8627
55.6923
698.907
50.8195
54.8398
54.1346
104.092
47.6096
54.7585
96.5478
56.0165
58.5535
54.635
234.796
45.8027
60.087
125.786
411.698
327.684
64.1118
621.066
750.307
55.4633
54.1968
163.715
78.4539
312.629
79.5858
93.1539
81.9818
311.646
69.4292
93.4736
1040.9
448.416
95.8246
625.881
48.1705
46.7404
63.909
46.577
47.6637
72.0338
55.5408
80.3837
201.845
87.127
385.652
215.903
235.41
82.3334
44.8471
614.09
132.478
85.4036
565.491
103.729
675.126
67.1387
433.289
46.054
178.458
87.2009
232.976
48.5216
86.596
79.3517
786.026
49.0467
44.7156
143.303
80.3859
129.947
59.9194
70.2771
91.5424
49.4304
134.468
50.3944
64.54
148.293
90.4557
240.418
69.2049
46.9411
61.8956
46.0899
53.5054
253.912
44.6081
91.5035
45.0625
227.882
118.49
52.5156
114.854
112.29
58.4912
78.1095
75.1073
131.033
154.797
52.4425
48.4059
90.5815
70.6816
328.188
585.952
499.53
61.7122
47.7193
58.1815
64.6724
91.5175
884.571
237.151
64.0836
53.8483
77.6155
48.0443
49.1561
77.3
147.902
189.404
490.206
348.689
57.3703
76.6181
78.95
44.7058
241.808
73.4125
111.384
114.385
51.6965
981.992
77.4933
58.2569
70.5174
70.7653
161.921
552.848
46.1242
471.966
56.0565
746.941
116.713
513.339
71.7367
46.8362
60.0763
104.692
51.6959
48.5255
126.969
45.878
45.8925
54.2258
60.9391
223.778
56.7895
757.552
73.0962
61.2836
148.205
171.479
48.4044
455.121
956.776
744.25
568.094
443.493
54.9375
393.913
317.593
77.0858
57.4946
53.9108
686.359
91.2984
97.0061
49.0956
75.1178
313.778
754.229
157.265
84.8343
45.548
66.2537
255.155
48.3817
56.672
577.114
456.773
279.361
754.585
76.566
47.4784
69.4546
83.0408
1137.36
50.735
46.9137
45.1804
289.792
47.3188
52.1988
94.2379
101.257
45.9503
113.979
47.7829
147.851
85.8878
142.211
53.3404
224.083
90.5011
113.167
173.519
111.972
264.256
51.4175
619.187
93.5084
347.322
334.429
423.163
84.7097
118.794
199.043
68.6697
45.9997
50.8421
54.0792
87.7895
567.997
117.685
47.1182
83.9676
63.2921
49.4204
120.546
61.9928
135.619
99.8226
48.1207
100.73
50.9586
78.5001
284.123
556.109
70.4645
100.541
80.0302
104.814
531.699
374.213
546.696
862.774
143.019
47.7435
49.5294
45.5453
106.031
843.116
80.5637
792.264
131.292
46.874
118.294
378.159
47.256
47.3807
56.1377
76.7833
59.7836
333.897
76.6491
92.8008
282.005
49.2943
98.2198
64.5565
130.065
122.512
53.2494
661.343
82.4756
113.901
56.592
123.02
47.0152
121.169
123.231
93.7049
93.7235
79.4735
67.3877
68.4047
52.2444
229.474
60.825
52.1956
116.906
210.925
233.464
123.423
97.89
114.447
182.487
71.7252
328.739
103.702
138.266
103.484
87.757
160.546
80.6849
106.27
443.024
101.714
53.7961
49.0401
345.271
91.332
104.34
51.8345
110.078
86.481
48.5605
95.5168
405.109
93.2908
73.2204
88.1863
661.165
74.6792
92.6538
146.197
60.1537
158.528
50.0017
746.237
83.7081
80.5501
85.1692
56.3941
116.885
56.3515
505.741
44.6138
78.3562
645.805
58.9154
113.04
204.07
102.263
49.5632
562.709
59.0447
46.3985
96.9194
134.26
58.831
307.514
45.9917
362.321
99.7358
45.5792
73.9632
118.39
732.089
184.81
71.4774
46.9674
131.939
399.505
325.809
117.878
124.821
1006.92
211.479
345.048
129.437
84.5798
103.752
59.7987
525.222
1031.31
153.007
170.074
100.208
970.984
472.468
480.076
418.747
176.988
64.4525
52.8084
152.803
73.7472
557.57
322.237
80.7467
807.767
108.861
84.7465
71.2407
50.9392
107.588
88.6697
91.8605
79.048
144.647
184.336
883.286
57.3902
119.105
644.101
613.022
182.268
182.816
64.1842
657.277
47.4725
65.8762
354.776
148.443
46.0868
336.112
440.001
71.0586
125.209
49.0567
96.9818
57.0618
80.9257
177.558
84.0002
614.329
45.1796
52.8991
89.6555
481.154
170.11
124.224
167.642
280.166
122.96
79.0873
411.1
109.601
71.4274
246.416
789.135
286.069
59.9613
386.712
160.409
90.2733
65.7799
128.642
48.1693
113.69
80.8489
76.0587
67.496
60.1132
88.5416
46.1154
44.7101
49.4743
100.25
50.0048
160.585
401.597
734.048
97.8669
82.3299
59.629
51.4268
104.383
666.29
52.9538
145.191
72.3248
218.227
65.2406
117.178
194.723
406.169
48.4853
57.197
261.696
53.1232
72.4472
117.513
83.0228
377.204
83.4169
289.64
432.04
242.84
644.751
191.309
385.17
90.2361
140.8
145.943
54.8361
447.862
124.693
87.5028
161.812
93.8272
86.6395
45.255
54.7303
51.0697
45.6567
86.6908
324.098
44.9827
928.339
113.309
330.481
115.344
352.33
1649.9
55.1759
258.007
936.975
129.099
342.094
78.0479
70.0623
787.945
1008.16
273.521
165.399
54.7128
393.864
103.139
593.392
53.6043
55.9519
232.449
1017.12
61.389
81.1652
52.7641
231.193
519.056
48.9811
506.364
219.141
536.388
710.849
50.8756
366.344
73.5533
725.692
363.383
206.816
382.231
262.325
480.324
353.204
234.395
81.2232
75.9871
75.6198
50.7868
54.3428
1337.91
71.9738
104.637
73.3413
82.0645
124.154
1043.66
138.682
265.147
305.341
145.626
326.692
129.642
45.4116
76.724
966.96
603.067
289.408
192.226
243.283
86.1754
465.182
61.0411
257.504
287.023
58.7419
520.912
103.675
288.106
337.492
145.036
197.584
203.091
136.309
51.9739
143.781
63.3651
532.827
72.7824
195.861
81.4083
255.001
58.8532
68.1951
349.627
124.209
306.535
47.119
1195.36
46.3994
60.8119
55.8972
56.8628
90.7473
503.238
155.705
82.7687
662.446
76.5032
49.2259
59.9244
867.493
57.755
95.2498
849.003
309.12
899.023
485.146
150.249
191.207
164.875
190.567
738.984
67.2354
393.912
127.125
66.2226
181.178
65.9083
138.747
72.93
632.696
435.557
543.451
353.38