/*--------------------------------*- C++ -*----------------------------------*\
| =========                 |                                                 |
| \\      /  F ield         | OpenFOAM: The Open Source CFD Toolbox           |
|  \\    /   O peration     | Version:  2506                                  |
|   \\  /    A nd           | Website:  www.openfoam.com                      |
|    \\/     M anipulation  |                                                 |
\*---------------------------------------------------------------------------*/
FoamFile
{
    version     2.0;
    format      ascii;
    arch        "LSB;label=32;scalar=64";
    class       surfaceScalarField;
    location    "0.0441308";
    object      phi;
}
// * * * * * * * * * * * * * * * * * * * * * * * * * * * * * * * * * * * * * //

dimensions      [0 3 -1 0 0 0 0];

oriented        oriented;

internalField   nonuniform List<scalar> 
92401
(
0.147456
-0.0958587
-0.00700256
-0.0445948
-0.0622004
0.0600282
0.0373466
-0.0351743
0.0225087
-0.0399771
0.0431621
-0.0256937
0.00648039
-0.0127796
0.0126069
-0.00630768
0.00140751
-0.000478773
-0.00583906
0.00491032
0.0195842
0.00974695
-0.0255569
-0.00377426
0.00559898
-0.00460238
0.0004109
0.0324391
-0.0257314
0.0128765
0.0481039
-0.0386481
0.0324359
-0.0418917
0.000432106
-0.00101219
-9.58607e-05
0.000675944
0.00465551
-0.0418297
0.0380513
0.0242578
0.0243672
-0.0866763
-0.0169846
0.010871
-0.00010047
0.00621414
-0.0345269
-0.0403844
-0.0172302
-0.0171198
0.058125
-0.0237749
0.00202404
-0.0659005
0.0638765
-0.00227128
-0.00769712
0.00196504
0.00343952
0.00229256
-0.000939251
0.00147779
0.000268989
-0.000807527
-0.00478267
0.0104542
4.40326e-05
-0.00571553
0.0161959
-0.00575829
-0.00478128
-0.00565629
-0.0406449
0.00819531
0.0370088
-0.00455921
-0.0392552
0.0108364
-0.0548912
-0.0544793
-0.00284148
0.0554336
0.00188714
0.0905874
-0.0895151
0.0224271
-0.0234994
0.0498853
0.0600723
-0.0712871
-0.0386705
-0.0324821
0.051241
-0.0580141
-0.00263361
-0.00103884
0.00392533
-0.000252873
0.0316404
-0.0637236
-0.000398828
0.0610085
-0.0608715
-0.0321419
0.0320049
0.0126523
-0.017325
0.00126945
0.0034032
-0.0358394
0.106225
0.0612928
-0.131679
-0.0846944
0.107571
0.00893079
-0.0318071
-0.131132
0.0321138
0.0296442
0.0693741
0.0148684
-0.0616602
0.0369103
0.00988156
0.0597999
0.0093719
-0.0543035
-0.0441527
0.0103766
0.00216527
0.0316108
-0.0504163
-0.0411741
0.0654793
0.026111
-0.0333415
0.0404451
-0.0140118
0.00690824
-0.0195649
-0.101872
0.0645574
0.0568796
-0.0864216
0.0863147
0.00010684
0.0334756
-0.0054711
-0.0754285
0.047424
0.00376898
0.0235248
-0.0242142
-0.00307956
0.0268868
-0.0504005
0.0235137
0.000111696
-8.65029e-05
-2.83642e-05
3.17087e-06
0.000581088
-0.0587392
0.0581581
-0.0685704
0.042732
0.0625749
-0.0367365
0.0901056
-0.0254624
-0.012734
-0.0519092
-1.03067e-05
0.0701693
2.25845e-06
-0.0701612
-0.0476023
0.0731058
0.0395501
-0.0650536
0.000533335
0.00105937
-0.000369827
-0.00122288
-0.00229956
-0.00349562
0.000346346
0.00544884
-0.0382034
0.0839383
-0.0461429
0.000408058
0.00031555
-0.000774679
-0.000666084
0.00112521
-0.0547822
0.0544702
0.000312085
0.0750733
-0.00788693
-0.0184901
-0.0486962
-0.0977274
0.0905486
0.00514655
0.00203218
-0.0553651
0.0276873
0.0111007
0.016577
-0.00275816
-0.0155803
0.00736011
0.0109784
-0.0123871
0.0258267
0.0374377
-0.0508772
0.000899804
-0.000280012
-0.000304242
0.000106278
-5.23955e-06
0.000701125
-0.000802164
0.00101931
0.000222108
-0.000752138
-0.000489283
0.00417796
-0.00923528
0.00517057
-0.000113245
0.0679065
0.00506378
-0.0172022
-0.0557681
-0.0150452
-0.0046674
0.0103897
0.0093229
-0.0410598
-0.0529773
-0.0547606
0.148798
0.00347879
-0.0338598
-0.0042034
0.0345844
-0.000420012
0.000554418
0.000661429
-0.000795835
0.00463725
0.0043862
-0.0283194
0.019296
0.0187674
-0.00674052
-0.00955733
-0.00246957
0.0418454
-0.0763149
-0.0274569
0.0619264
-0.0285994
-0.00331527
0.0103227
0.021592
0.0121335
0.00805122
0.0129587
-0.0331435
-0.000739282
-0.000382813
-4.61608e-05
0.00116826
0.0252268
-0.00973103
0.0365669
-0.00110536
0.000730416
-0.00129285
0.0016678
0.044426
-0.0330064
-0.0684234
0.0570038
0.000616135
-0.0003099
-0.000306234
-0.00108985
-4.20373e-05
0.000563466
0.000568417
0.000847929
-0.000300247
0.000740196
-0.00128788
0.0224445
-0.0222348
-0.062698
0.0624884
0.0012102
-0.0127352
0.00269851
0.00882653
0.0430368
0.0583612
0.0186349
-0.120033
-0.116053
0.0264071
0.128517
-0.0388718
-0.00528288
-0.0441331
0.00381191
0.0456041
0.0535647
-0.0288677
0.0254959
-0.0501929
0.0246475
-0.00362099
-0.151348
0.130321
0.00690175
0.0176448
-0.0274101
0.00286362
0.000696488
-0.000236329
-0.000704736
0.000244576
0.0378549
0.0128811
-0.00160084
-0.0491352
-0.00222942
0.0840454
-0.0855952
0.00377914
-0.0179877
0.0498858
-0.11622
0.0843216
0.0420157
0.0053814
-0.0526799
0.0420498
-3.40873e-05
-0.00233544
-0.0290644
0.0413988
-0.00999894
0.070903
0.0169404
-0.0313735
-0.0564699
0.128931
-0.142226
-0.0280723
0.0413672
-0.0151216
-0.0451948
0.0579809
-0.0819052
-0.000776276
0.0826815
0.00115131
-0.0979823
0.16369
-0.0668588
-0.002463
0.00336136
-0.000581979
-0.000316378
0.0887331
-0.147865
0.030903
0.0282292
0.00154125
-0.000346523
0.000841675
-0.00203641
-0.0864153
0.142917
-0.103859
0.0473574
0.0299819
0.00309343
-0.0401803
0.007105
0.086814
-0.0159841
-0.0804181
0.00958822
0.00571814
0.0312325
-0.0520722
0.0305171
0.0271903
-0.13047
0.0727621
0.0860169
0.112926
-0.079527
-0.119416
0.000726509
0.000493689
-0.00260717
0.00138697
-0.0940878
-0.0295173
0.11189
0.0117147
0.00114648
-0.00600828
0.0156929
-0.0108311
-0.0139124
-0.0334988
0.0574977
-0.0100865
-0.00539897
0.0168261
-0.0142929
0.00286582
0.000354782
-0.000683751
-0.00054834
0.00087731
0.0214869
-0.0257619
-0.00112397
-0.00182382
-0.000710999
0.00149194
0.00104288
-0.0573949
0.0602568
-0.0028619
-0.00248083
-0.00622981
-0.0020234
0.010734
-0.0362465
0.0279019
-0.0055678
0.0183421
-0.0472407
-0.0557957
-0.0512696
0.0415571
0.0983105
-0.088598
-0.00753709
-0.00170906
0.00501871
0.00422744
0.046938
0.0112868
0.00220616
-0.0604309
0.000362939
-0.00925785
0.0067631
0.00213181
-0.0395234
-0.0534416
0.0117025
0.0812624
0.064703
-0.0388759
0.0266279
-0.0524551
-0.00970372
0.059926
-0.0590213
0.00879909
-0.0589384
-0.0338461
0.00785404
0.0849305
0.0164127
0.00506317
-0.0332291
0.0117532
0.0601172
-0.0605407
0.000423516
0.00184659
0.00181395
-0.00137778
-0.00228276
0.0408511
-0.0434117
0.00256057
-0.0550837
-0.0351417
0.104686
-0.0144607
0.000842266
-0.00977353
0.00958327
-0.000652011
0.00297231
0.00594564
0.00262065
-0.0115386
0.0018451
0.00624654
-0.00772871
-0.0251334
-0.0575317
-0.00904717
0.0917123
0.0258382
-0.00755013
0.0175047
-0.0357928
-0.0840448
0.0924684
-0.101279
0.0928556
0.0792758
-0.0522227
-0.027053
0.00150772
-0.0345727
-0.0101164
0.0431814
0.00823889
-0.00556137
-0.00925446
0.00657694
0.0465521
-0.0701886
-0.06181
0.0854465
0.074048
-0.0647102
0.0293422
-0.03868
-0.0132851
-0.00819866
0.0316185
-0.0101348
-0.0582284
-0.086936
0.0568945
0.0882699
-0.0416858
0.054295
-0.0111014
0.0977119
-0.0483278
-0.0493841
-0.00436511
0.0149988
-0.00239476
0.000979683
0.000668348
-0.000708616
-0.000939416
0.0473766
-0.0158301
-0.00525439
-0.0262921
0.00360989
-0.00184691
-0.000494661
-0.00126833
0.00548441
-0.0101377
0.00870097
-0.00404766
0.0727335
-0.0422016
0.0255906
-0.0561225
0.00866199
-0.000351542
-0.00682513
-0.00148532
0.0016648
-0.000596138
-0.00106866
-0.0645422
0.064441
0.000101263
0.0123304
0.00553921
-0.0968266
0.078957
-0.011341
0.0142229
-0.0102876
0.00740565
-0.0724838
0.0163882
0.0830405
-0.0269449
0.0180502
-0.0971848
0.075701
0.0034335
-0.0526912
0.0430395
-0.00828038
0.0179321
0.00873845
-0.00179626
-0.00294759
-0.0039946
8.04733e-05
-0.00092442
0.000843947
0.0284708
0.170354
-0.244941
0.0461163
0.000317145
-0.000208498
-0.0248354
0.0603021
-0.0526144
0.0171477
-4.25909e-05
0.00519655
-0.00435587
-0.000798091
0.000497635
0.001716
-0.00251388
-0.0710894
0.000520604
0.0705688
-0.0324093
0.113852
-0.0477727
-0.0336702
0.000421619
0.000642478
0.00949604
-0.0105601
0.000463007
0.0902796
-0.0907426
0.00236545
-0.00164131
-0.00118485
0.000460716
0.00133216
0.000656018
-0.0006718
-0.00131638
-0.0365455
-0.00162147
0.0323737
0.0191371
-0.0638979
-0.0723449
-0.0165634
0.00655708
0.0823512
-0.000602484
0.00193465
-0.0996186
-0.042072
0.112602
0.0290887
0.0274686
0.169643
-0.0846884
-0.0573844
-0.0275706
-0.0178841
0.118888
-0.0434298
-0.0575739
0.039856
0.0301002
0.0383113
-0.108268
0.104854
-0.248608
0.109171
0.0345819
0.00159061
-0.0014061
-0.00141289
0.00122838
-0.0122424
-0.0356145
0.0558334
-0.00797643
0.0254844
0.0403672
-0.0259297
-0.0399219
-0.035345
-0.025835
-0.0197579
0.0809379
-0.053533
-0.0137976
0.0550883
0.000855557
-0.0121019
0.00868692
0.00255941
0.0553775
-0.028449
-0.0508479
0.0239195
-0.0890167
0.104982
-0.0500573
0.0340918
0.0162036
-0.0231071
0.00707772
-0.000174298
0.0517882
-0.0600615
0.0636507
-0.0568971
-0.00360593
-0.0138915
0.0743945
-0.00539377
-0.012788
0.00225667
0.0159251
0.000155889
0.0578438
-0.0574352
-0.000564483
0.135889
-0.0535464
-0.0031694
-0.0791729
0.0595131
-0.00762456
-0.0483472
-0.0035414
0.0521658
-0.0208868
-0.074483
0.043204
-0.00971868
-0.00200502
0.0149019
-0.00317821
0.00531773
-0.00159322
-0.00478282
0.00105832
0.00235246
-0.0434935
0.0401102
0.00103087
-0.000874646
-0.0862971
0.0034698
0.0195
-0.0130151
-0.0633297
0.0469163
0.0164134
-0.0595557
-0.0170282
0.0109616
0.0656223
-0.0988153
-0.00115696
0.103104
-0.00313202
0.00370871
0.0234036
-0.0126445
-0.0144678
-0.0711211
0.149862
-0.0660537
-0.0126868
-0.00502721
0.0138168
0.0225415
-0.0313311
-0.0513028
0.0984416
0.0385733
-0.085712
0.0283824
0.00203061
-0.0147657
-0.0156473
-0.0360303
0.0374449
0.00093784
-0.00431942
0.00710539
-0.00946186
0.00667589
-0.000359644
-0.00441137
0.0102554
0.0358945
0.0382129
-0.0741075
0.00111249
-0.00187401
5.33955e-05
0.000708121
0.0192325
0.00839072
-0.018634
-0.00898917
0.0218581
0.0110558
-0.00230762
-0.0306062
-0.0516109
-0.00115852
0.00649741
0.046272
-2.24598e-05
-0.043471
-0.000941072
0.000577081
0.00147648
-0.0518412
0.0370249
0.0520152
-0.0371989
-0.0446868
0.0300672
0.0185198
-0.00390018
0.00132247
-0.0033023
-0.00981454
0.0117944
-0.00908032
-0.00503432
-0.00344774
0.0175624
-0.0432418
-0.00478279
0.0119942
0.0721667
0.0395283
-0.0717956
-0.0398994
-0.0443503
-0.000452599
0.0448029
0.0862355
-0.0486652
0.05953
0.00358639
-0.0077495
-0.0375803
0.0417434
0.0357595
0.0114218
-0.00566331
-0.041518
-0.000480217
0.000298681
0.00100167
-0.000820132
-0.0168991
-0.0448001
0.0616993
-0.000274835
-0.00129523
-0.00441232
0.0311648
-0.0231661
0.006116
0.0279992
-0.0418647
0.09796
-0.0908524
-0.00204563
-0.00506201
-0.0211659
0.101052
-0.0187298
-0.061156
-0.0322538
0.00680084
0.0149522
0.0105007
-0.039365
0.0360145
0.0142892
-0.0109387
0.0325489
-0.0251265
0.00135062
-0.00877298
0.0185909
0.0720058
-0.121014
0.0304171
0.0762454
-0.0751826
-0.0242885
0.0232256
-0.143079
0.00225628
0.00347611
0.137347
0.0304167
0.0123516
-0.0410962
-0.00167212
0.0399144
-0.0578835
0.0203611
-0.00239196
0.00210435
-0.0012391
0.000235198
-0.00110045
-0.0147028
-0.00129558
0.0733905
-0.0416411
0.0188132
-0.0505627
-0.0117395
0.0476966
0.000491017
-0.0364482
0.00545155
0.0954673
-0.0929097
-0.00800908
0.0495739
-0.0990096
0.0583158
-0.00888002
-0.0485257
-0.000392309
0.0371786
0.0152565
-0.00378275
0.0086718
-0.0201455
-0.0234272
0.0478019
-0.013319
-0.0110557
-0.0484981
-2.76522e-05
-0.0053444
-0.122827
0.175822
-0.0476506
0.0102032
0.00964249
-0.0634024
0.0435568
0.0497068
0.00547838
-0.044982
-0.0126371
0.00673463
-0.00360251
0.00950496
-0.0558253
-0.000329877
0.0561552
0.110176
0.044318
-0.136272
-0.0182215
-0.00912337
0.000413255
-0.00392695
0.0185411
-0.11598
-0.0223945
0.119834
0.012613
0.0663134
-0.0692838
0.00294131
-0.0557142
-0.0106296
0.000470825
0.00187122
-0.00261688
0.00197965
-0.00182621
0.000317383
-0.0507029
0.0255844
0.0742357
-0.0491172
-0.00194272
0.000981571
0.000919112
-0.0343451
-0.0076831
0.0449695
0.000229345
-0.00030085
0.000338226
-0.000898373
0.000106485
0.000453662
9.71396e-05
0.00211186
-0.00174382
0.00139427
0.000101195
0.00024836
0.000475084
-0.000302976
0.000727695
0.105692
0.120917
-0.0791538
0.000110331
-0.000820514
0.00118527
-0.0529532
0.0530282
-7.49288e-05
-0.010803
0.0760347
-0.0713325
0.00610089
0.00183179
-0.0194556
0.00514953
0.0124743
-0.0604648
-0.00329146
-0.0171401
0.00397929
0.0476476
-0.0344867
-0.0641758
-0.00229855
0.0664744
-0.00636027
-0.0166656
-0.0127495
0.0357754
0.000289931
-0.000363793
-0.000492867
0.000566729
-0.004059
-0.00731009
0.00896696
0.00240214
0.0549838
0.0439075
-0.0175082
0.047858
0.0892658
-0.0381069
-0.0990169
-0.0126222
-0.0444949
-0.0201513
0.0195429
-0.0553497
0.0559581
-0.010633
0.0292897
-0.00683362
-0.0118231
-0.0151415
-0.0135398
0.0137255
0.0149558
0.0972599
-0.0956379
0.0188788
-0.0205009
0.00108838
-0.00435385
-0.000322445
0.00358792
0.000991495
-0.0658681
0.0648766
-0.0727127
0.00350675
0.0667831
0.00242283
0.0392255
0.0382453
-0.0774708
0.0189639
-0.0602623
0.0286762
0.00214221
-0.00124697
0.000628474
-0.00152371
0.000173732
-0.000379736
0.00143969
-0.00123368
-6.85415e-05
0.000412069
-0.000971165
0.000627637
0.0633642
0.0562451
-0.0389014
-0.0807079
0.00553692
-0.0868297
0.0824565
-0.00116372
-0.013552
0.000291943
0.0265942
-0.0133341
0.0533264
-0.0526662
0.0191484
-0.0198086
-0.000509883
0.00133504
-0.000667557
-0.000157603
0.0203661
0.0478412
-0.0492433
-0.0471169
-0.00175254
0.000892705
0.00155997
-0.000700138
0.00100006
0.079812
-0.0808121
-0.0499237
-0.0154025
-0.0221879
0.0875141
-0.0500489
0.000125166
0.0116514
0.0168424
0.016755
-0.0452487
0.000513674
-0.00279828
0.000305825
0.00197878
-0.00169609
-0.000673477
0.00061703
-0.106401
-0.00876125
-0.0431959
0.158358
-0.0101313
0.00703289
0.137476
-0.134378
-0.0382153
0.0420751
-0.0649385
0.0610787
-0.0787653
0.0785739
0.000191412
0.00143834
-0.0501746
-0.030443
0.0663848
0.019425
-0.00572211
-0.0800877
0.0501985
0.0942937
-0.156382
0.0118902
0.0415557
0.0159444
0.0331693
-0.0906694
0.104286
-0.108392
0.0433316
-0.0034765
0.0130229
-0.0117609
0.00221451
-0.00190078
3.95473e-05
-0.000697752
0.00255899
-0.00282067
-0.00555352
0.00162619
0.006748
0.0607389
-0.00604287
-0.0183385
-0.0363575
-0.0567447
0.0282336
0.028511
-0.0925302
-0.0079097
0.0123275
0.000470773
-0.000488695
-0.00188286
-0.117501
0.0263063
0.0048147
0.0863795
0.0011909
-0.0537575
-0.00997619
0.0625427
0.0454141
0.0289722
-0.101392
0.0270057
0.0381141
-0.0439766
-0.0188004
0.024663
0.0480441
-0.0603548
0.0504248
0.0309391
-0.0558762
0.0496513
-0.0247142
0.0345301
-0.0359434
0.00031427
0.00109909
0.0163836
-0.141915
0.0909043
0.0346269
0.00132786
-0.0613875
-0.00366621
0.0523284
0.00051731
-0.108211
-0.0337718
-0.00894118
0.00667531
0.0360377
-0.0487005
0.0444557
0.0502985
-0.0460537
-0.0425877
0.0824265
-0.0398388
0.0106859
-0.102569
0.0479061
-0.0168714
0.00759676
0.0244054
-0.0151307
-0.0885583
0.0935918
0.0366282
-0.0416617
0.0584509
0.0328362
-0.0829347
-0.00835237
-0.0471334
0.14203
0.00423438
-0.0991306
-0.000530546
0.00302519
0.00356413
-0.00605878
0.053891
-0.0722418
0.0829518
-0.064601
0.00840032
-0.0397462
-0.00831623
0.0396621
-0.0436928
0.0318617
0.10281
-0.0909787
-0.050008
-0.0264699
0.0529847
0.0234932
-0.00994063
-0.000357089
0.00631276
0.00398496
-0.0102177
0.021949
-0.0181254
0.00639407
0.00020667
0.0737191
-0.0739258
0.0149238
-0.0442309
-0.0193933
0.0484632
-0.0340437
-0.00108366
-0.0133359
0.00143603
-0.025612
-0.0203436
0.0445196
0.0347054
-0.0346746
-3.07674e-05
0.0612964
-0.0416977
0.0641623
-0.0837609
-0.0997297
0.0976778
0.0993118
8.6341e-05
-0.01078
-0.00180253
0.0124962
0.0496291
-0.000191586
4.50098e-05
5.02861e-05
9.62903e-05
-0.000269205
0.0473719
-0.1099
0.0627971
-0.00858102
-0.000577671
0.00497533
0.00418335
0.0268817
0.00996502
-0.0368467
0.00121138
-0.000986221
-0.00880618
-0.0329033
-0.0328119
0.0106315
0.0572027
0.000912967
-0.0581157
0.0728468
-0.0441334
-0.0511891
0.0224757
0.00171413
-0.0248957
-0.0209712
0.0694043
0.0430182
-0.0395757
-0.0079775
0.00927522
0.133873
-0.119576
0.0360647
-0.0503624
-0.0450182
0.0365355
0.0218965
-0.0134138
-0.0526407
0.0525235
0.00011723
-0.0477894
0.0296581
0.0107205
-0.0468904
-0.0107656
0.0469354
-0.00250833
0.160365
-0.159892
0.00203591
0.107641
0.0159639
-0.0160342
0.050899
0.00863937
-0.0513175
-0.00822081
-0.0144066
0.00461236
0.0106185
-0.000824294
-0.00952947
-0.00532637
0.00472303
0.0101328
0.066047
-0.0375739
-0.0527674
0.0242942
0.0297491
-0.0156736
0.023909
-0.0379845
0.0267229
-0.0933986
0.0894698
-0.0227941
-0.00580188
0.000428776
-0.00903347
-0.0942252
0.107231
-0.0234399
0.0104341
-0.0113945
0.0479301
0.0138805
-0.0504162
-0.00431066
-0.000285645
0.003219
0.0013773
0.083464
-0.00481594
0.0509363
-0.129584
4.84519e-05
-0.000717011
8.56529e-06
0.000659994
-0.0665437
0.0585403
0.0739666
-0.0659631
0.00354167
0.00108997
-0.0022954
-0.00233623
-0.0781453
0.0758928
0.00225255
0.0625112
-0.0592052
-0.003306
0.0604396
-0.000659353
-0.0597803
-0.0110889
0.123583
-0.000679174
-0.111815
0.00991668
-0.031151
0.0328857
-0.0239441
-4.58813e-05
-0.0562698
-0.0676465
0.0118617
0.0664642
-0.0106794
-0.0131952
-0.00213616
0.000344018
-0.000634997
-0.000154643
0.000445622
0.00116447
-0.000151101
-0.000236952
-0.000776415
-0.0634391
0.00752824
-0.0012884
0.0571992
0.000435624
-0.00544092
0.00188128
0.00312402
0.0120659
-0.0145961
1.8509e-06
0.0025283
0.00815586
-0.00674661
0.0106567
0.0556191
-0.00919423
-0.0227072
-0.0237177
0.0361265
-0.00537336
-0.0363593
0.00560616
0.000272977
0.0669526
-0.000351584
-0.066874
0.00769449
-0.0718978
0.019322
0.0448813
-0.0427631
-0.0321619
0.0419552
0.0329697
-0.0353691
0.02105
-0.0907286
0.105048
-0.000887826
0.0151168
-0.00779886
-0.00643013
0.0491189
-0.0590822
0.0475117
-0.0375483
-0.0625393
-0.00678138
-0.00819286
0.000751992
-0.000176242
0.00430431
-0.00488006
-0.0119456
-0.0027698
0.00177053
0.0129449
-0.00804244
-0.00921301
0.0107661
0.00648935
-0.000139895
-0.00218685
0.00137607
0.000950676
-0.000424379
0.000522662
-9.82823e-05
0.00154803
-0.0724255
-0.0267224
0.0975998
-0.000159341
-9.80656e-05
-0.00136899
0.00162639
0.000136233
-0.000441769
-0.000118843
0.0021574
-0.0663332
-0.000106562
-9.85636e-05
0.000727788
0.000641623
0.000105656
-0.000410651
-0.000336629
-0.0280694
0.0640101
0.0775783
-0.113519
-0.0090735
-0.00222889
0.0072164
0.00408598
-0.0144871
-0.000252833
0.00566639
-0.00525336
0.00546782
0.01303
-0.0132444
-0.000608458
0.000824427
-0.000322531
-0.0657352
0.0665009
-0.000765652
0.0303043
0.0469435
-0.0599281
-0.0173196
0.0118667
-0.0755824
-0.0213717
0.0850874
-0.0134116
0.00274873
0.00540953
-0.00453414
-0.00636207
-0.00251541
-0.0165276
0.058123
0.0129427
-0.0545382
0.0691456
0.00468591
-0.0535905
-0.0202411
0.000161595
0.000428279
-0.00078321
0.000193336
-0.00019705
-0.000275175
-0.00263138
-0.00116371
-0.00128017
0.00507526
0.0651331
-0.0459455
0.0120255
-0.0312131
-0.000806211
-0.00266266
0.00141122
0.00205765
-0.0161169
0.0101333
-0.00384382
0.00982741
0.00183995
-0.10145
0.101072
-0.00146159
0.00305037
0.000752461
-0.0104634
0.00666053
0.00996884
-0.0106075
0.00163964
-0.00100098
0.00988176
0.00386563
-0.010697
0.0368839
0.0561864
-0.0279372
-0.0272806
0.0548058
0.0281967
-0.0557219
0.0277502
-0.0550309
-0.00036955
0.000241049
-0.033213
0.0124711
-0.0100436
0.0792154
0.0231224
0.00766138
0.0691705
-0.0542505
0.0980905
-0.11301
0.00477699
0.092529
-0.0973059
-0.00690415
-0.00697767
0.0133549
0.000526953
-0.0341465
-0.0871065
0.0275631
0.0936899
0.0222308
0.0615415
-0.0245919
-0.0591805
-0.0234993
0.11336
-0.0529768
-0.0418558
0.0448962
0.0517654
-0.0557731
0.0556741
9.90293e-05
-0.038957
0.0367356
0.00222139
0.0399798
-0.0786699
0.0729879
-0.0342978
0.0671979
-0.0837255
-0.00963246
-0.00812717
0.0108555
0.000882185
0.000643867
-0.000596084
-0.000929969
-0.00578393
-0.0425548
-0.00743441
0.00126963
0.00142736
-0.00255132
-0.000145668
-0.0574187
0.0518322
0.0855794
-0.0799929
0.0349399
-0.0331611
-0.00177882
0.00962228
0.0181677
-0.01099
-0.0167999
0.00421783
-0.0004772
0.00220308
-0.00594371
-0.0643306
-0.00050752
0.0200776
0.0447605
-0.00288422
0.00670517
0.000396883
0.0392999
-0.109498
0.104432
-0.0342338
0.0458843
0.0138874
-0.0593884
-0.000383227
-0.00361277
0.00696479
0.00160373
-0.00495576
0.000104941
0.0606918
-0.0607967
0.0374798
0.00636973
0.0150355
-0.058885
0.00424589
-0.00732278
0.00259969
-0.182664
0.0278893
0.162176
-0.00740156
0.0392705
-0.0110332
-0.0282374
-0.00117942
-0.00153171
-0.00117818
0.00388931
-0.041806
0.0452628
0.124505
-0.127962
-0.00185238
0.000666706
-0.00200269
0.00318836
0.0916145
-0.00269291
-0.0430373
0.000486342
-0.00120963
0.00205176
-0.00132847
-0.0186161
-0.116181
0.0162939
0.118504
0.00399103
0.0521708
-0.00406389
-0.0520979
0.0487286
-0.0702339
0.0603814
-0.0388761
0.0318785
-0.0364533
0.0485867
-0.0440119
0.00851894
-0.00188609
0.0059408
-0.0125737
0.00120953
-0.0444038
0.0532312
-0.0536408
-0.0360437
0.0972948
0.0177187
-0.0245975
-0.090416
0.0475925
0.0179771
-0.134744
0.0691747
-0.00173111
-0.00863439
0.00634746
0.00401804
0.0280118
-0.0502858
-0.00328287
0.0289882
-0.0267078
0.00738176
-0.00582835
0.000108649
-0.00166206
-0.0865173
0.00289933
-0.000794318
0.0721092
-0.149973
0.0786577
-0.0269446
-0.087493
0.0413086
0.073129
-0.0724283
0.0209037
0.002656
0.0488686
-0.0435037
0.0292292
0.0105001
-0.0828352
0.0959552
-0.01312
-0.0209842
-0.0095187
0.118109
-0.0876065
-0.00354109
-0.00392299
0.00610755
0.00135654
-0.0258063
0.0591883
0.040666
-0.0721704
0.028037
-0.000763308
-0.000403208
-0.00100304
0.00216955
0.0467583
-0.0492946
0.0548647
-0.0376604
-0.00705989
-0.045088
-0.124373
0.0479779
0.0763954
-0.0429241
-0.0325184
0.0276531
0.00308027
-0.00215743
0.000737261
-0.0016601
0.00272676
-0.000331176
0.000684685
-0.0862581
0.00350498
0.0827531
0.0611891
0.0134657
-0.123139
0.0484846
-0.0711474
0.000390453
0.0707569
0.00140322
-0.00184802
0.00836474
-0.00791995
0.0483617
0.155748
-0.22597
0.0218597
0.00180951
-0.00229491
0.0014587
-0.000973304
-0.0916402
0.0649485
0.0265181
0.000173671
-0.00222125
-0.000867593
0.00295056
0.000138286
-0.000711217
0.00838407
-0.0083281
0.000655252
0.00801455
0.00786228
-0.0151254
-0.000751436
0.0410035
0.0125105
0.00302427
-0.00272625
0.00151149
-0.0985967
0.105429
0.00737372
-0.0142057
0.0119615
-0.0666675
-0.0231301
0.0778361
0.00214327
-0.00470139
0.0879787
-0.0854205
-0.041836
-0.0366402
0.0873206
-0.0088444
-0.0407294
0.024715
0.0404845
-0.0244701
0.0537431
0.0207658
-0.072394
-0.00211491
-0.00160458
0.000172083
0.0017209
-0.000288404
-0.123851
-0.0429662
0.0397449
0.127072
0.0484726
-0.0377521
-0.0316135
-0.0377121
-0.0309155
0.100241
-0.00191187
0.00428895
0.000376067
-0.00275314
-0.0310923
-0.080209
0.0283435
0.0829579
-0.0296257
-0.0287454
0.0207107
-0.000812197
-0.0032571
-0.00168005
0.00329462
-0.00373886
0.00212429
-0.005777
0.00564491
0.0253768
-0.0772152
-0.0853257
0.137164
-0.000408065
-0.000308178
0.000396353
0.00031989
0.0572593
-0.0603396
0.0477382
-0.0446578
-0.0148849
0.0436796
-0.00751512
-0.0212795
0.0863244
-0.0860421
-0.018576
0.0182938
0.0264702
0.0224012
-0.0636273
0.014756
-0.127364
0.0740504
0.0182109
0.0351029
-0.00527812
0.00302849
0.000120285
0.00212934
-0.00795218
0.00965047
-0.000295081
-0.0134551
-0.00371547
0.0181755
-0.00100485
-0.0624639
-0.00471714
0.01461
0.0525711
-0.00901074
0.103125
-0.00502069
-0.0890935
0.00917083
-0.0472425
0.0803827
-0.042311
-0.00160457
0.00418019
-0.00165737
-0.000918253
-0.0149345
0.000262891
-0.00222366
0.0168953
-0.107332
0.00459007
0.0130105
0.0897316
2.15446e-05
-0.000321715
0.000661676
-0.000361506
0.0371322
0.00803196
0.0270026
-0.00472257
0.0457988
0.0528673
-0.0939435
-9.05616e-05
0.000636047
-0.00052394
-0.000569571
0.00214702
-0.00145231
-0.000125139
0.017429
0.110543
-0.0473588
-0.0806132
-0.000227014
-9.47008e-05
0.000200196
-0.00042721
0.0618667
0.0170946
-0.0922653
0.0133039
-0.157161
0.0862598
0.0769443
-0.00604337
-0.0182421
0.000306968
-0.0517319
0.069667
0.025073
-0.0148919
0.0170154
-0.0271965
-0.0664031
-0.0232333
0.0896364
-0.0779133
0.038397
0.0395163
-0.0020837
-0.000284243
0.000401457
0.00196648
-0.0383702
0.0414094
0.00764251
-0.0106816
0.0467459
-0.0546137
0.00786771
-0.0607104
0.0337603
0.0451884
-0.0182382
0.00451591
-0.00256669
-0.00175496
-0.000194258
-0.00321506
-0.0025572
0.000494149
-0.0421581
-0.0418867
0.0463701
0.014151
0.00243581
-0.062957
0.00235156
-0.00025095
-0.00192664
-0.000173961
0.00359907
0.00390488
-0.0042243
-0.00327965
0.00716042
0.022079
-0.0402012
0.0109618
-0.0191693
-0.0153995
-0.00921382
0.0437827
-0.075753
-0.0106075
0.0304598
0.0559006
-0.00174541
0.0149652
-0.00829264
-0.00492715
-0.0529674
0.000439998
0.033358
6.08055e-05
0.0251341
-0.1357
0.126213
-0.015647
0.02873
-0.0344028
-0.0517222
-0.0271179
0.0548681
0.000172198
0.0401044
0.00314333
-0.0434199
-0.0554053
-0.0599286
0.115334
-0.00312808
-0.00105962
-0.00174045
0.00592815
0.00319156
-0.00473744
0.00171733
-0.000171451
0.0363996
-0.00589328
-0.0281439
-0.0023624
-0.00320586
-0.00229575
0.00237353
0.00397587
-0.0114633
0.0661344
-0.058647
0.0761841
-8.86467e-05
0.0279096
0.00931613
-0.00637145
-0.0308543
0.0585975
-0.000686606
-0.0579109
-0.0528889
0.113674
-0.0284242
0.0597148
0.0201023
-0.0513929
-0.0157568
-0.0255198
0.0170109
0.0242657
0.00318677
0.003711
0.000817403
-0.00771518
-0.0340762
-0.0380955
0.099321
-0.0271493
0.0440799
-0.0358128
-0.000179031
-0.00808811
-0.0509563
0.11534
-0.0501424
-0.0142409
-0.00144706
0.00173688
-0.000161496
-0.000128323
-0.000866161
0.021735
-0.00456696
-0.0163019
0.00292567
0.00386601
6.86872e-05
-0.00686037
-0.000258898
-3.71364e-05
-2.23936e-05
0.000318428
3.66489e-05
4.72522e-05
-0.000342799
-0.00881116
0.0226735
0.0702741
-0.0841364
0.0804764
-0.0800513
-0.000425103
0.000310144
-0.000351381
4.12366e-05
-0.0128415
0.000953201
0.00226369
-0.00136617
-0.00185072
-0.00805127
-0.00525504
0.00562967
0.00767665
-0.0557664
0.0273423
0.000238091
0.000281152
-0.000803645
0.000284402
0.0339821
0.0544785
-0.0346048
-0.0538558
0.0123013
0.15859
-0.17956
0.00866915
0.058324
0.0633862
-0.0619954
0.00197399
-0.0132527
-0.00176848
0.0130472
-0.0334007
-0.0301129
0.0635136
0.0311232
-0.0645239
-0.054318
-0.0445861
-0.0654532
0.164357
0.0501411
-0.0561491
0.00600802
-0.0726448
0.134501
-0.0710507
0.033006
-0.0302284
0.0854744
-0.00381458
-0.0686857
-0.0129741
0.070242
-0.0708143
0.0111187
-0.0105465
-3.86508e-05
-0.00615161
0.00736874
-0.00117848
0.00183609
-0.00539514
0.00658017
-0.00302113
-0.000216054
0.000158528
0.000725556
-0.00066803
0.0223104
0.0230119
-0.0339299
-0.0113925
-0.00523248
-0.00516503
0.00617946
0.00421805
-0.010755
0.0320193
-0.0429045
0.0216402
0.00103948
-0.00858427
0.0109538
-0.00340904
0.0489442
-0.00420451
-0.0447397
0.0380736
0.0356349
-0.126564
0.0528558
-0.097898
0.0599513
0.0760202
0.0329997
-0.0997745
-0.0468462
0.107958
-0.0371832
-0.0239285
0.00168976
0.00894192
-0.0123257
0.00169399
0.0280041
-0.00299309
-0.025011
-0.0305228
0.0436279
-0.00363402
0.0200782
-0.0315856
0.0010759
-0.00011513
0.00101317
-0.00197394
0.0117629
-0.0384706
-0.000988134
0.000203303
0.000384974
0.000399857
0.00270382
-0.000312495
0.00100241
-0.00339374
-0.000965607
-0.00221373
-0.0780783
-0.0130532
0.0014313
-0.0118468
0.0234687
0.020427
-0.0906362
0.0204022
0.0498071
-0.00320765
0.0580855
-0.0820798
0.027202
0.00101509
-0.000684747
0.000775042
-0.00110539
0.0790227
0.0126198
0.00218814
-0.0938306
-0.000759051
-0.000785543
0.00182795
-0.00028336
0.00499082
-0.000864951
-0.0696795
0.0655536
0.00649464
-0.000948837
-0.00484529
-0.000700507
0.00639154
0.00447023
-0.00355373
-0.00730804
-0.11064
0.0966482
-0.0876676
0.10166
-0.0548023
0.109801
-0.0549988
0.00228396
-0.0441386
0.00910687
0.0327478
0.00360991
-0.00356835
0.000786157
-0.000827715
0.0493641
-0.00306725
0.00139978
-0.12971
0.0028441
0.0739768
-0.0335322
3.34115e-05
0.00132741
0.0308556
-0.0249974
-0.00718556
0.0781816
-0.030771
0.0342064
0.00404626
-0.00499771
0.000181327
0.000770125
0.0337182
0.023354
-0.0745575
0.0174852
-5.2312e-05
-0.000148614
0.000189494
1.14324e-05
-0.000413386
0.00150995
0.00529498
0.000186045
-0.00789711
0.00630047
0.0056429
0.0746161
0.0407653
-0.0370626
-0.0783188
-0.131591
0.140865
-0.00837366
-0.000900182
0.0315689
-0.0323808
0.000811923
-0.0361832
-2.99038e-05
0.000330739
-0.00309199
-0.00223646
0.0147767
0.206654
-0.158941
-0.062489
0.0291072
-0.0608007
-0.0176476
0.049341
-0.00309614
0.039232
-0.000715946
-0.0858111
0.0472951
-0.0228015
0.0099723
-0.0380172
0.0476279
0.0463544
-0.0559651
-0.0666988
0.0888758
-0.151587
0.12941
-0.000179127
9.45287e-05
-0.00145374
0.00153834
0.000221673
0.00223845
-0.000645331
-0.00181479
0.0440819
-0.0153605
0.0390581
-0.0677794
-0.00351926
0.000361317
0.0033312
-0.000173262
-0.0119194
0.0108658
-0.0369635
0.0121286
-0.0463426
0.0058991
-0.00317117
0.0182687
-0.0209967
-0.134819
0.0178763
0.12739
-0.0104472
0.0370949
-0.0248897
-0.0173982
0.00519309
0.0343932
-0.0532175
0.00690492
0.00462161
0.00757129
0.051873
-0.0640659
0.0247407
-0.00707408
-0.0249399
0.00727321
-0.07915
-0.00845723
0.0151235
0.00122997
-0.00105565
4.73478e-05
-0.000923762
0.00204164
0.001635
-0.00275288
0.0184
-0.0319476
0.0382884
0.0179401
-0.143482
-0.0226979
0.14824
-0.112364
-0.0151198
0.025768
0.101716
0.0570891
-0.0355836
0.0292795
-0.0507851
0.11066
-0.006239
0.00384214
-0.108263
-0.0169869
-0.0369331
-0.00414132
-0.0160274
0.00786032
0.0123084
-0.00135853
0.000504308
9.17378e-05
0.000762483
0.015274
-0.0773411
0.0620671
0.108693
-0.00726383
-0.112518
-0.0263228
0.0553926
-0.0460567
0.0398425
-0.122172
0.0147641
0.0675652
-0.00409376
-0.0123578
-0.0270787
0.0435303
0.00373527
0.0493624
0.0840599
-0.131544
-0.00187873
0.0491602
-0.0829295
0.0893273
-0.055558
-0.0964501
0.0955645
-0.00666612
0.00755166
0.00186894
0.00428562
-0.0942517
0.0880972
-0.00164704
0.0035948
0.00601196
-0.00795972
0.000209686
-0.000920478
-0.000282133
0.000992924
0.088474
0.000740104
-0.0175012
-0.0717128
-0.00072227
0.000781894
-0.000239626
0.000180003
0.00090429
0.00329964
-0.00233205
-0.00187187
-0.00183394