/*--------------------------------*- C++ -*----------------------------------*\
| =========                 |                                                 |
| \\      /  F ield         | OpenFOAM: The Open Source CFD Toolbox           |
|  \\    /   O peration     | Version:  2506                                  |
|   \\  /    A nd           | Website:  www.openfoam.com                      |
|    \\/     M anipulation  |                                                 |
\*---------------------------------------------------------------------------*/
FoamFile
{
    version     2.0;
    format      ascii;
    arch        "LSB;label=32;scalar=64";
    class       volScalarField;
    location    "0.0440925";
    object      omega;
}
// * * * * * * * * * * * * * * * * * * * * * * * * * * * * * * * * * * * * * //

dimensions      [0 0 -1 0 0 0 0];

internalField   nonuniform List<scalar> 
3923
(
138.505
93.5277
141.239
1331.35
813.557
1122.26
1125.7
881.474
773.562
863.208
1382.92
256.738
83.4096
412.47
115.569
54.2296
68.8268
84.4229
83.3761
82.1776
250.671
282.261
106.266
237.352
106.548
315.863
261.857
214.365
229.777
308.448
215.591
216.223
293.12
1168.08
1106.75
1045.3
635.24
661.765
1013.84
388.273
1390.56
48.3193
1152.93
1185.96
738.487
804.563
58.9061
536.133
94.0006
831.223
819.096
587.387
208.963
90.3595
204.454
80.0632
81.2398
48.5789
430.27
244.134
234.577
759.16
112.753
140.672
54.0846
98.0315
222.647
419.286
519.814
389.461
49.3501
466.903
433.513
545.785
230.934
521.956
109.254
560.55
612.683
544.192
491.311
789.93
145.294
308.388
1099.29
415.158
131.993
182.691
382.797
449.028
107.682
671.405
238.78
643.855
84.0128
98.1423
130.818
111.345
177.088
255.29
105.281
559.286
81.9975
229.166
300.878
374.7
383.278
747.155
1248.01
1223.87
794.375
672.082
64.2677
90.617
843.696
750.259
667.811
492.619
975.287
733.191
66.7272
1147.47
411.036
100.848
533.059
386.116
558.975
531.189
421.83
570.394
312.897
461.366
544.488
73.1059
128.181
67.4518
305.389
591.7
151.624
160.699
358.637
389.845
287.107
201.123
108.031
48.3048
432.745
607.254
105.181
63.4583
65.1603
290.218
451.858
147.8
87.2551
517.225
91.6802
84.3255
263.414
2070.91
223.677
653.866
431.913
637.041
858.905
143.045
107.033
142.261
80.1985
444.95
74.7905
71.059
404.364
1046.02
1047.57
93.4484
117.201
721.136
418.167
139.948
494.143
1062.45
102.123
651.433
375.24
350.36
61.3901
204.206
101.968
92.2753
572.696
305.648
107.705
104.717
187.521
807.939
1515.95
519.19
429.009
665.182
706.041
371.886
602.326
327.752
143.606
1087.28
73.0109
581.953
165.898
455.413
499.485
145.416
1063.41
105.966
933.136
733.567
58.0182
105.547
551.129
599.856
480.688
514.349
621.617
614.197
786.385
70.2471
118.8
100.741
118.299
92.7887
130.058
82.435
113.918
123.483
117.168
194.621
117.498
90.2085
140.759
124.644
93.7943
86.6201
927.515
129.079
592.611
725.786
1334.28
124.087
138.617
145.567
601.931
287.06
144.985
197.672
203.147
136.278
532.358
1193.83
90.7216
155.642
867.198
898.624
150.195
191.246
127.092
138.685
542.922
353.123
245.349
214.807
164.335
625.482
122.853
148.29
117.05
84.1246
131.46
88.3307
114.989
89.8895
174.124
189.716
144.273
87.3782
541.442
67.3874
164.126
245.864
60.4339
236.214
304.135
195.379
193.499
198.082
107.954
1247.8
1184.55
764.258
814.995
882.662
472.683
612.912
750.532
811.267
804.382
947.108
1756.19
1143.45
609.801
566.522
582.862
625.642
573.539
556.262
525.527
581.772
618.836
513.227
208.158
181.613
397.918
440.164
390.483
457.947
368.197
540.698
163.869
642.973
1445.66
267.726
241.61
131.864
447.101
168.658
142.699
131.012
101.914
225.841
233.422
152.354
251.078
296.812
211.911
320.986
387.228
240.045
246.308
165.246
179.446
215.546
284.405
320.309
192.678
83.696
83.8649
75.0601
144.794
80.0785
66.3553
91.3053
126.347
69.1993
96.0431
83.487
73.2882
75.9696
81.2181
71.1783
69.8083
54.645
51.1176
354.832
286.792
355.51
1378.81
1389.89
1238.58
466.987
467.298
468.216
425.642
362.472
331.755
124.693
138.022
129.708
118.123
115.767
86.8186
525.79
502.312
613.552
177.357
290.818
252.57
447.948
263.559
479.195
848.369
254.976
232.474
246.136
280.084
250.16
288.795
284.295
155.986
198.902
230.122
172.573
270.505
238.687
408.029
489.904
494.98
440.23
371.255
364.738
456.552
182.728
172.287
386.502
199.307
89.1535
397.469
165.685
190.599
156.448
113.502
623.208
180.748
734.338
106.837
351.624
153.305
792.613
1167.17
979.44
520.164
224.184
585.384
55.8026
139.986
625.876
49.0705
49.0499
201.017
1281.54
154.847
407.985
910.902
430.909
577.817
784
196.805
72.126
1294.43
78.4339
148.123
181.477
730.402
298.761
347.476
85.91
883.305
490.02
85.3309
138.383
556.235
1010.34
81.8213
90.5776
584.555
82.6256
161.259
1272.38
1476.11
445.725
75.0289
98.8605
173.373
822.166
424.57
772.137
693.269
155.733
141.02
111.223
162.636
550.891
2050.78
1407.66
141.294
1796.25
251.927
263.146
147.273
866.008
426.371
1524.51
201.926
59.9231
114.805
77.3798
279.441
49.3194
616.466
276.98
87.3605
83.3039
74.9898
773.942
249.917
550.483
209.386
1103.56
55.2989
48.3631
239.551
396.094
820.374
242.187
473.273
135.391
154.593
479.378
358.411
558.034
1307.31
334.142
405.085
968.976
159.51
394.2
359.394
632.529
521.583
79.092
1474.15
563.672
999.866
363.451
460.195
162.905
130.63
520.968
358.361
220.341
301.886
609.388
612.335
335.886
561.575
1256.3
118.982
667.255
582.28
170.708
782.079
395.002
114.962
1055.65
520.28
506.499
160.423
226.492
570.094
765.265
267.391
341.232
275.043
313.468
73.2595
229.532
325.824
913.445
306.898
180.905
178.915
221.537
204.595
283.642
458.569
968.332
661.047
1257.05
573.642
1031.6
497.383
101.974
98.0465
516.332
93.8748
113.718
318.504
999.46
490.059
741.458
73.42
453.448
405.457
133.201
212.07
125.442
593.206
185.007
523.897
284.615
133.872
352.228
121.101
454.177
239.729
359.459
303.957
547.614
609.451
787.506
871.47
874.559
466.342
707.84
673.445
614.274
429.381
674.51
77.4729
122.906
546.488
759.361
557.615
61.0665
490.758
102.131
121.268
122.46
770.822
705.975
673.912
89.9648
582.152
539.846
138.944
879.106
135.999
675.367
70.6207
498.114
1015.74
433.429
590.218
1480.69
1377.61
876.745
652.365
662.265
516.222
548.37
1454.07
178.935
451.632
428.207
531.05
593.406
526.995
379.889
714.3
966.27
127.639
57.5112
47.8463
50.5333
113.939
69.0792
75.151
69.6144
109.472
758.801
742.97
65.511
618.844
125.784
53.8479
48.227
69.6176
53.3629
104.022
514.9
72.3121
163.448
249.126
74.9428
50.3239
63.1633
65.9224
48.7723
893.841
77.4814
58.2205
51.3667
445.859
506.696
382.964
176.941
1006.06
384.841
931.651
954.132
1209.56
1503.53
1064.64
926.372
148.258
483.69
627.832
768.295
547.103
1061.09
844.274
921.277
1049.96
702.26
706.845
577.489
222.974
738.953
568.439
558.591
629.172
737.781
554.603
83.9607
59.3635
66.3315
97.2435
112.4
81.9499
424.558
106.926
120.574
66.9774
334.18
76.6642
685.641
79.0342
69.6707
205.566
514.661
79.2109
173.161
226.37
274.083
501.052
469.643
263.785
146.69
71.5201
152.271
88.2735
346.158
101.301
532.642
2285.76
389.881
104.933
208.523
538.416
475.711
597.924
533.826
197.049
136.276
1218.68
540.602
1032.65
636.557
770.778
915.517
147.292
742.849
73.7959
617.344
559.369
572.134
128.684
217.755
553.303
589.965
540.201
280.657
207.422
109.645
1318.63
188.166
121.485
712.663
505.891
567.868
214.177
174.025
274.87
122.053
168.163
605.238
160.842
73.0271
295.925
98.7775
90.6432
140.269
80.1919
67.819
217.615
1092.6
490.577
184.658
80.3045
895.471
230.727
952.861
115.162
112.802
1352.98
606.801
819.567
160.287
82.4827
98.2658
202.324
140.958
111.625
76.8858
262.233
1294.56
756.67
443.66
541.628
537.974
574.33
657.644
302.746
155.021
673.539
701.047
115.342
414.206
70.0559
101.962
373.487
74.0727
398.366
204.504
74.1164
159.946
150.315
154.441
110.397
878.266
185.109
196.278
281.891
266.61
69.6906
104.477
440.87
511.195
293.647
135.689
296.146
135.295
252.278
218.498
595.135
61.7483
76.8599
629.718
658.021
621.682
604.446
726.161
428.147
550.209
404.188
346.758
1131.47
232.986
173.406
229.469
175.239
502.236
1288.43
519.149
1382.13
586.679
510.843
659.158
551.388
746.098
734.344
707.458
749.413
459.703
658.1
529.36
552.138
538.974
484.457
101.278
487.103
198.433
192.662
459.577
50.3962
67.5054
79.4998
502.081
852.746
525.069
66.2303
95.1693
109.542
1074.12
178.393
568.468
120.801
699.792
130.72
428.825
401.039
272.455
740.053
760.247
511.983
852.811
585.472
1480.89
619.192
1197.03
564.103
268.951
4506.34
988.421
1875.24
815.919
188.238
52.3806
453.197
794.591
273.687
410.91
360.591
242.842
601.138
1126.12
763.396
1050.01
249.408
227.394
411.715
543.009
156.998
539.672
386.729
992.659
586.864
318.372
966.843
560.178
428.63
393.155
545.791
200.846
160.62
826.742
112.74
66.2288
95.3981
458.248
397.486
104.394
435.22
221.072
136.324
493.87
133.247
140.451
90.9175
107.148
188.196
480.763
53.4237
99.0262
106.22
94.4858
74.62
597.376
475.459
65.1329
48.6638
65.1605
231.597
386.152
79.8998
130.127
72.8183
382.78
324.566
112.081
91.7783
527.249
514.802
736.415
562.18
403.084
70.7283
243.258
163.713
592.424
771.435
274.26
479.51
1311.87
151.179
298.634
198.139
227.395
650.013
474.634
333.414
729.107
265.587
982.969
379.225
188.035
1357.24
1422.65
391.761
210.397
229.718
116.095
158.084
308.134
210.836
175.251
124.726
829.193
461.247
426.406
505.88
1869.68
561.377
409.076
395.508
650.888
153.614
393.008
228.322
1887.51
275.745
219.766
622.747
78.832
92.4196
207.493
295.536
223.905
121.154
222.963
226.024
827.085
947.938
108.026
456.789
587.771
324.433
379.519
95.5522
64.1415
194.867
989.043
2144.88
282.979
1391.37
254.653
386.597
1267.9
432.392
437.913
548.819
850.834
597.757
807.133
195.827
431.237
535.761
94.1959
695.475
110.672
515.145
205.236
199.595
216.042
542.033
285.394
300.473
332.956
327.761
492.019
494.294
407.936
406.808
556.92
363.831
406.235
539.242
297.683
1027.09
497.327
548.332
104.386
172.954
736.249
656.237
853.052
806.818
628.627
687.757
975.981
667.621
137.017
631.161
499.839
1005.69
540.046
645.683
412.045
1010.5
220.457
995.522
1247.19
416.211
268.88
337.092
254.23
882.837
634.701
556.798
429.986
592.03
449.61
867.932
506.641
169.381
672.259
548.362
205.577
150.353
648.546
246.323
226.407
226.245
601.839
88.535
773.204
308.511
530.475
657.569
654.258
393.782
635.557
390.515
563.711
608.99
421.859
591.72
475.724
787.495
590.492
815.158
477.219
495.517
888.956
886.035
631.241
716.582
540.673
332.845
314.816
71.0312
68.0467
101.635
89.1695
65.5669
65.8433
61.4113
61.3628
48.1799
48.751
57.3263
69.5934
49.0775
85.9344
50.1652
81.2803
108.039
68.8435
63.7706
170.776
62.3478
243.016
185.634
143.645
749.425
1027.72
93.094
86.7438
66.2672
83.3039
86.8703
90.4268
513.437
1140.27
89.0017
113.099
122.261
580.129
658.311
1195.66
480.048
417.905
551.355
558.3
1561.51
660.427
1409.59
1451.78
633.72
854.711
1889.24
1873.76
571.262
1593.2
504.546
920.876
1083.04
783.208
729.846
1067.72
1052.43
339.938
672.943
255.987
1062.78
758.305
540.158
142.793
1024.77
1542.24
1257.73
597.715
480.022
111.789
148.954
85.4848
108.945
1033.84
291.158
759.128
607.326
790.289
1647.78
105.121
69.6205
495.274
79.8365
568.829
80.7717
561.724
569.683
630.129
421.129
448.994
106.258
93.8673
120.983
240.287
127.795
579.696
630.428
519.016
72.4722
53.0524
90.2053
68.7404
88.6436
169.913
376.431
92.5534
320.99
286.835
219.772
626.153
199.65
546.703
110.353
618.6
53.1156
60.3489
47.9146
701.515
65.9911
454.268
88.4778
91.8845
155.12
77.9927
87.5004
152.491
384.256
546.174
660.601
410.459
117.221
578.398
363.953
766.643
472.286
589.912
250.006
62.7892
63.2024
242.839
47.8341
199.015
107.104
869.281
264.956
348.866
395.873
238.855
193.946
1143.76
462.245
1548.08
396.191
645.481
168.663
83.2753
99.1448
766.614
103.831
316.082
213.772
199.601
358.682
523.738
544.185
48.3499
278.963
128.771
145.474
95.4225
104.115
73.6341
87.7884
88.2201
77.9729
1087.48
750.853
658.361
520.39
665.903
555.017
509.804
723.263
150.082
109.223
678.774
811.75
503.674
1106
742.581
690.661
1094.28
1148.62
623.829
591.117
720.086
672.012
766.049
457.748
437.306
437.102
419.478
451.225
83.4243
517.375
212.262
619.228
95.7625
548.15
513.726
195.996
173.311
119.585
262.275
269.993
87.2184
57.5505
860.255
559.585
519.208
1424.3
233.283
90.2662
123.742
237.807
627.587
596.169
166.581
810.671
319.924
2223.01
583.599
536.103
945.367
1353.04
705.397
851.483
581.411
316.311
394.024
1043.33
47.6235
181.805
180.61
839.192
387.605
132.378
73.2436
400.379
1068.07
757.076
1470.65
707.243
405.777
462.003
249.452
58.0062
50.6999
127.12
140.161
292.88
56.9746
73.5746
298.607
776.912
288.635
94.1243
60.8266
117.406
79.6592
254.285
77.0719
73.4577
137.281
83.392
308.23
132.154
918.375
129.083
191.806
408.091
161.109
160.488
68.1236
79.7241
287.828
270.203
402.822
212.313
1760.26
343.561
1008.51
484.031
211.161
307.606
289.491
709.548
1588.08
784.626
512.176
964.298
347.818
516.119
422.073
499.913
438.45
867.303
1246.74
2206
617.53
884.31
78.1449
245.774
329.1
645.684
308.844
205.011
1193.77
817.577
176.787
636.79
130.627
431.017
92.8887
67.2386
91.8669
1098.37
1190.35
1092.64
59.1632
590.06
606.285
1164.12
249.082
458.451
1353.43
282.214
1895.04
473.641
479.171
82.8405
699.959
95.7716
355.464
607.614
288.687
368.218
410.6
426.09
155.63
174.885
1305.57
700.372
548.719
71.5442
416.902
556.849
570.036
1010.48
1674.1
57.8404
476.426
442.602
63.1875
503.075
674.847
61.8929
59.7222
661.827
1259.61
1073.23
467.682
253.679
927.313
1370.68
546.714
551.716
603.409
800.27
365.45
625.691
551.803
225.817
87.2519
490.669
219.581
113.658
307.978
399.548
891.348
848.191
760.383
606.51
429.861
934.733
588.41
678.672
444.484
317.974
552.513
109.058
101.183
172.999
81.175
138.584
226.878
595.102
615.052
588.492
972.18
587.228
580.313
622.445
722.915
719.416
950.55
648.783
496.634
486.179
480.81
226.207
508.563
505.518
414.002
543.211
787.776
333.871
243.006
683.139
555.095
592.069
1075.89
77.1309
83.1757
120.913
635.258
505.267
481.795
624.866
469.565
683.817
874.691
1148.44
441.646
544.328
468.393
839.643
1409.35
423.806
249.395
589.777
344.132
440.727
796.123
533.448
79.7809
192.849
167.182
161.01
573.072
84.6555
611.992
550.937
382.837
863.813
336.964
723.725
1108.56
662.694
961.996
199.077
593.484
104.236
90.7044
335.57
130.578
240.167
534.311
56.6175
74.2339
70.7607
83.084
82.6579
52.9079
51.9077
100.628
802.692
775.934
117.773
725.978
445.067
534.066
791.529
70.5967
85.0877
62.0408
86.5272
59.6812
52.3948
144.85
105.448
116.492
174.938
340.597
129.444
92.7989
73.9044
60.5676
101.915
95.0045
76.1708
86.9382
53.8845
557.479
406.801
338.803
693.12
667.103
627.047
879.087
425.864
908.616
1038.1
383.019
736.961
552.714
663.758
663.536
441.726
998.047
1083.11
871.374
1909.06
849.235
500.922
934.569
2173.08
949.507
918.514
989.664
939.321
889.299
749.094
461.223
451.895
390.866
902.901
626.383
807.78
1265.63
627.173
829.576
690.991
694.343
687.658
187.536
82.5697
126.323
943.186
453.075
139.065
199.179
91.3288
78.4395
54.8996
84.3148
193.053
157.98
173.267
577.253
118.271
349.81
117.138
226.001
67.4664
119.003
190.31
275.506
299.773
123.237
123.938
58.9148
61.7133
78.568
66.1419
108.351
85.5803
105.027
48.0998
1217.47
849.138
515.08
218.544
518.023
321.147
375.037
953.609
408.774
227.859
445.257
235.267
440.529
502.727
557.472
508.44
835.462
610.303
463.663
244.326
728.036
434.736
409.815
387.585
522.755
561.063
660.219
559.1
72.7982
310.376
550.932
238.818
411.079
219.439
295.747
879.491
337.587
427.87
271.46
151.708
108.599
523.496
138.664
605.366
438.79
584.297
387.728
139.239
446.522
404.705
699.947
519.753
384.924
794.693
76.3891
96.2063
52.9846
87.0987
66.5154
187.268
543.743
505.469
54.5826
725.898
402.47
562.699
96.9522
261.097
97.6528
77.0524
581.919
418.747
73.3683
68.9454
271.141
1866.4
512.856
86.2991
213.323
2053.49
65.5711
540.721
1495.15
243.624
536.558
296.911
1096.52
1252.67
1453.24
810.67
522.665
495.433
433.722
206.916
157.583
206.74
108.662
72.2016
255.784
465.295
247.444
90.5599
1455.32
427.451
615.27
305.954
460.398
63.8047
56.9484
57.6109
99.2806
79.9292
70.8063
68.801
63.1978
276.047
155.237
98.6868
94.8565
150.518
1325.83
1631.84
993.488
688.479
638.963
514.097
1039.4
1044.84
857.483
619.069
755.591
760.874
878.12
110.202
124.527
79.7868
115.538
582.593
243.531
399.585
237.811
1143.5
1044.76
1019.8
151.919
455.084
348.471
461.65
167.206
111.568
121.806
141.412
140.878
383.963
768.358
122.872
506.254
523.153
455.165
122.514
106.874
752.031
282.153
327.646
120.305
73.9118
48.3413
82.3332
88.9057
89.469
99.7873
54.4854
84.6442
83.026
105.094
96.1425
94.3286
58.6731
548.984
823.854
499.425
1609.88
1999.89
1666.1
658.89
922.223
703.128
362.918
658.081
71.4766
89.1181
209.789
310.626
541.879
763.204
683.528
128.364
556.729
488.699
457.788
489.928
464.26
514.353
283.547
324.882
151.874
569.006
402.189
89.5026
61.5925
431.765
280.577
243.246
249.998
244.573
192.975
334.441
559.777
79.1408
219.562
362.59
56.6222
69.0593
73.8853
80.3988
759.361
698.264
794.909
615.556
663.594
673.039
715.958
586.656
650.323
621.741
649.999
908.022
633.74
330.277
471.421
291.094
106.171
1129.99
1346.73
400.692
807.335
153.641
237.094
210.488
358.646
115.3
221.616
896.17
59.9396
333.507
482.908
163.63
225.058
80.938
540.518
183.108
437.785
88.956
438.943
356.808
224.071
628.5
97.1386
67.1289
50.311
228.729
143.358
57.5996
54.113
161.636
54.1156
73.0804
308.023
454.203
121.298
130.338
210.693
239.186
492.504
502.628
86.2399
1036.28
768.185
1080.64
324.087
1026.73
473.253
1264.09
517.482
540.818
670.781
422.768
435.499
1360.7
439.576
410.932
69.6951
239.629
507.184
204.105
68.8846
143.621
65.4529
107.13
64.433
96.4084
113.784
308.89
114.562
136.922
153.86
197.551
585.721
87.0115
52.1494
388.728
356.33
311.907
405.334
376.119
64.0879
77.9518
211.135
798.885
98.2146
288.611
80.8433
161.654
287.944
75.1013
79.924
357.286
87.4522
270.26
517.101
96.3507
1218.74
528.207
1154.26
310.727
285.849
379.847
365.414
552.925
965.961
546.501
493.726
799.641
222.879
451.266
464.147
791.141
626.571
975.866
50.4365
709.004
864.712
186.557
222.438
1037.27
196.624
715.797
128.199
705.959
146.586
126.596
92.4967
450.288
603.587
894.614
733.88
407.552
463.741
170.239
275.511
268.251
530.463
59.2987
130.036
68.4405
81.3409
171.097
133.644
75.1082
112.602
69.6709
396.671
147.63
230.404
217.793
229.585
217.711
373.807
676.435
626.335
407.358
542.788
515.569
288.632
1142
928.31
80.913
316.328
107.328
166.858
110.14
154.613
268.039
757.447
371.818
978.464
748.297
922.959
250.173
384.368
593.47
534.568
633.887
491.433
367.845
707.294
505.297
531.609
434.763
437.57
550.966
659.277
506.197
464.587
558.079
564.925
553.9
787.582
577.397
297.11
638.041
366.56
1009.76
782.299
596.69
308.348
107.962
176.067
1136.24
145.265
355.434
82.7033
635.851
649.247
603.056
678.924
570.245
559.701
560.795
593.416
616.591
415.428
529.123
302.034
415.805
562.444
671.186
454.806
534.601
480.091
534.511
511.931
531.954
611.137
667.955
465.36
547.343
1406.53
938.851
1660.51
518.275
143.073
295.117
113.635
603.887
596.671
432.563
540.13
480.359
761.802
513.241
516.269
733.63
1151
1124.8
907.09
555.579
698.194
450.011
559.298
557.324
688.594
115.518
71.3842
81.0139
106.3
50.6709
93.7652
303.261
198.263
585.186
289.076
88.6152
89.8695
151.29
208.774
75.8083
75.1967
117.058
53.2302
53.0294
66.0817
77.0834
661.813
260.22
77.2034
252.69
818.747
493.275
402.656
587.115
80.0401
429.938
289.382
94.7558
119.799
519.419
1972.82
778.308
603.511
136.116
631.461
633.324
454.405
428.754
159.877
213.916
585.947
468.554
281.605
1011.06
1698.94
599.056
1542.44
2292.08
1173.56
784.188
717.319
109.598
163.976
113.181
208.397
71.4647
73.3528
313.025
170.26
115.591
71.3447
146.453
138.928
136.274
161.28
770.35
427.311
461.195
146.806
47.2537
765.717
100.801
134.267
281.319
450.889
576.543
570.476
541.933
52.1336
89.4822
79.5455
223.055
412.518
83.1597
114.812
440.712
1083.48
427.026
344.401
405.342
957.903
112.784
73.2942
780.278
444.244
598.457
639.016
423.381
167.155
135.031
649.456
639.455
859.371
87.1967
65.8228
120.691
64.9398
124.534
128.076
517.643
131.498
92.9004
83.8221
100.12
120.062
64.5394
79.1166
444.983
97.652
677.548
473.958
533.268
768.316
95.7018
641.215
53.5469
161.796
111.457
82.7584
65.4637
159.334
60.3434
67.6142
111.693
106.99
379.924
468.515
244.318
167.762
610.884
560.226
346.753
500.197
528.745
495.437
110.443
110.214
104.798
109.678
67.6299
58.7982
55.333
171.245
79.4106
72.2983
64.6781
101.415
70.5988
492.886
89.0087
103.467
263.665
202.628
207.284
176.465
74.8859
158.611
496.983
538.717
952.255
663.271
87.5891
98.2563
99.5086
215.391
160.39
553.621
152.065
861.352
128.285
1056.8
245.065
269.171
85.8462
152.479
992.851
1039.69
116.486
52.5127
51.9424
51.5733
55.952
486.506
63.0935
57.2905
616.956
58.7446
627.509
632.393
71.8728
865.227
835.544
430.436
207.989
311.401
150.358
397.166
412.886
523.279
91.3105
117.813
95.8474
85.1129
75.3207
53.5342
274.376
265.213
73.2631
214.313
143.572
225.417
178.595
240.745
200.233
189.157
197.234
101.788
388.495
95.0319
80.3919
139.45
156.934
378.262
409.645
511.194
632.489
372.06
1052.6
49.8572
327.89
2062.9
118.247
323.388
357.739
432.02
855.858
183.834
326.285
539.096
559.179
1037.98
1007.02
700.922
464.39
363.047
57.9924
81.6997
578.544
116.426
319.93
305.277
557.21
795.619
262.043
558.096
294.127
290.591
378.716
140.401
391.568
2129.71
1135.53
955.577
1757.1
115.836
618.251
682.888
340.839
711.826
494.723
807.962
553.914
358.419
850.835
754.34
816.747
745.037
679.171
924.754
48.4087
74.6579
56.9881
55.5642
61.092
59.6004
56.0454
623.074
50.0092
74.6196
89.4006
264.302
84.3379
494.686
295.062
645.251
136.899
73.6834
147.841
144.17
108.065
216.303
220.213
150.103
214.99
143.779
76.8374
369.602
150.396
107.687
183.879
181.741
1014.55
289.514
138.975
182.307
390.08
201.109
106.383
135.877
80.6457
124.591
358.024
586.383
237.165
169.422
421.757
122.8
567.366
648.119
828.116
971.499
519.948
96.1792
383.433
562.164
523.453
523.787
187.955
96.3955
558.366
498.62
545.412
238.551
378.092
523.892
460.163
411.705
409.122
905.34
507.775
274.812
313.3
475.423
606.817
468.176
539.741
357.034
608.917
1663.22
1771.21
1260.99
1563.75
636.697
137.848
56.3435
119.695
494.378
281.411
156.312
626.241
704.057
137.653
193.738
2180.17
2137.19
1313.16
612.421
335.197
424.499
1158.46
468.586
465.938
808.22
111.913
632.712
281.254
505.459
271.099
294.602
203.604
564.112
296.528
361.343
135.332
1188.2
1067.23
563.173
941.123
441.012
573.73
392.157
394.148
577.762
418.355
643.093
623.323
523.699
865.396
763.108
811.011
657.956
628.925
449.839
66.0188
66.2871
65.2418
67.0342
75.5197
560.276
614.202
527.099
540.997
559.046
210.179
679.719
760.241
671.106
471.033
588.399
255.645
512.202
608.581
560.062
970.052
362.556
541.107
611.249
670.326
624.094
734.704
693.849
217.074
549.66
242.582
209.909
78.7861
85.7116
618.482
590.538
273.597
235.316
264.014
130.281
257.604
113.256
596.509
325.002
349.385
235.202
144.163
171.104
657.69
364.277
364.331
387.286
692.622
589.592
523.598
64.6703
624.112
531.128
411.279
143.435
447.719
245.863
329.693
219.002
70.2898
660.181
94.8558
71.1136
465.048
408.851
601.449
367.486
782.704
156.93
192.185
363.377
428.546
414.782
372.909
352.496
747.083
588.053
484.677
399.419
1260.67
633.89
682.442
518.04
510.736
795.529
599.541
610.355
940.07
554.22
934.931
1045.75
1303.38
597.897
1170.79
231.932
457.794
1064.83
1600.23
1148.58
1335.67
687.696
345.151
737.195
621.743
617.873
586.506
609.23
1966.74
717.944
708.557
638.599
546.911
131.562
244.946
461.003
412.385
353.719
383.035
455.799
359.738
558.855
765.127
936.932
644.869
948.492
665.692
568.924
745.227
1085.36
378.07
614.13
455.991
259.175
377.509
214.551
709.06
512.729
526.462
389.603
404.198
48.4597
564.737
92.9099
125.976
384.968
131.027
96.0387
186.694
333.517
130.295
100.738
75.6826
66.3562
481.474
558.615
516.462
504.018
880.945
78.2955
74.6736
136.362
243.376
260.072
80.0728
115.653
62.5532
71.4633
623.227
75.0628
107.648
76.2581
480.505
477.195
656.571
618.71
634.032
56.6645
110.988
121.835
96.8855
72.4811
414.908
91.6528
345.836
65.9033
215.587
47.7691
489.627
472.35
502.874
672.646
496.756
620.077
459.535
90.5018
67.0016
189.921
51.7637
56.4999
69.1885
59.9469
64.3613
61.4864
75.1622
76.182
66.1884
1021.17
75.875
706.152
52.6785
159.261
325.378
214.6
574.76
1132.82
998.453
579.129
901.971
58.5449
784.955
1479.63
240.504
101.502
382.585
533.038
941.236
887.24
670.521
610.265
561.284
493.914
105.095
104.103
478.008
1278.41
654.665
670.563
813.264
927.365
1615.01
218.047
204.438
221.929
83.5375
78.9452
76.3147
735.141
79.8271
495.945
527.624
502.365
464.371
507.817
386.053
384.312
445.53
1387.6
141.137
82.337
593.658
468.335
2019.98
1399.57
423.084
159.111
163.657
194.741
315.686
261.942
196.214
159.876
200.219
175.879
295.294
962.987
1207.87
289.308
790.63
745.52
212.131
205.771
817.842
191.141
699.096
412.413
290.054
354.783
263.038
137.844
271.056
141.035
113.825
762.869
128.636
131.304
63.6186
64.4999
80.2577
59.5972
221.001
217.799
241.352
612.423
478.836
502.181
694.984
633.06
74.9863
58.847
724.776
93.8811
434.662
437.146
515.122
437.003
388.864
1772.27
1157.23
896.253
1444.8
439.141
1069.15
467.698
730.191
381.629
350.967
404.826
501.224
1091.27
783.698
1296.49
358.073
875.385
1376.12
484.528
431.428
1268.27
146.821
1995.69
667.733
348.414
116.201
740.178
778.279
181.935
265.331
293.717
737.636
1003.78
235.252
431.727
459.826
635.309
636.946
112.697
926.866
466.843
384.287
253.834
511.817
319.255
406.434
120.278
511.968
151.141
85.8517
645.221
436
199.596
355.363
340.653
172.992
455.458
346.374
62.4642
103.374
79.3373
307.838
321.749
209.803
73.3619
217.66
376.213
442.2
448.445
161.265
187.028
227.194
557.301
577.835
359.934
431.201
329.573
82.3251
65.6781
172.032
643.584
269.326
78.7298
218.508
521.657
139.72
274.115
864.463
760.678
400.379
458.407
480.14
190.749
413.401
185.902
228.817
785.232
468.758
591.027
1083.39
1143.86
426.964
100.938
1049.25
470.628
113.759
207.846
284.019
118.531
330.965
178.16
785.831
625.626
520.181
290.918
264.492
374.361
276.745
203.044
114.622
95.4849
208.88
262.754
347.663
358.785
329.476
409.602
499.335
184.024
435.636
460.35
99.5463
326.598
373.731
141.77
252.668
502.835
281.367
83.0481
254.938
59.7986
622.171
582.59
531.886
622.728
114.587
362.159
334.965
79.7362
470.963
84.4709
433.04
479.084
1868.98
1348.78
868.112
247.846
1067.75
1102.33
1764.07
75.7906
77.3527
64.9229
111.924
81.7972
228.973
64.6476
76.5116
81.2452
63.3983
425.623
195.22
254.027
1369.3
268.138
1564.72
573.509
466.233
516.465
322.953
120.527
120.498
126.9
156.437
675.343
432.879
330.965
1054.15
215.54
303.757
90.5578
209.409
142.115
179.919
123.559
207.832
80.2839
571.974
757.746
1246.48
479.589
88.7422
341.52
411.137
423.367
123.752
286.445
566.745
177.83
84.6166
144.782
87.5691
727.911
1109.07
495.863
579.815
683.159
150.02
121.656
399.163
300.714
314.812
570.439
1054.55
952.002
466.04
400.2
391.843
484.385
323.956
675.811
86.5241
55.9251
1260.96
1075.56
966.71
88.2169
276.495
194.826
80.0418
67.7622
315.608
236.961
76.332
106.373
74.3556
119.674
162.67
353.14
326.062
63.7119
59.1801
505.911
60.7093
82.8291
62.3049
447.895
239.006
80.7287
369.408
429.092
267.411
75.6269
510.009
75.411
76.0843
79.7554
71.7751
72.9036
618.535
874.156
832.289
564.681
560.741
141.817
196.468
77.2445
100.12
78.2127
174.526
118.415
433.394
488.644
120.555
98.1663
140.078
106.544
453.37
254.015
348.478
326.16
136.096
137.975
125.315
311.674
439.687
257.296
304.24
461.295
509.886
564.253
641.462
420.899
69.7225
262.392
268.823
248.04
365.522
127.756
104.557
122.682
486.505
187.215
499.894
1159.3
505.189
156.127
110.252
75.6552
61.1534
76.3785
66.8481
893.674
2251.14
140.068
87.2841
177.765
203.928
81.6265
78.0983
165.112
122.43
77.0572
415.675
963.653
935.316
224.435
588.58
467.131
190.042
474.092
829.065
88.8439
1282.3
764.661
708.578
609.788
804.693
934.993
495.547
89.0274
161.12
65.2521
53.0452
48.7383
308.729
151.764
70.357
175.416
420.945
426.375
57.2274
259.787
208.45
399.4
101.417
218.12
136.483
242.322
440.176
420.507
459.699
412.418
194.241
100.269
227.448
408.863
317.075
254.246
642.48
736.887
870.727
1072.47
924.61
1582.67
726.442
724.944
709.763
523.003
542.549
123.346
267.588
518.745
160.62
373.363
517.32
80.9987
254.344
118.035
216.238
149.362
66.7188
139.589
125.125
1002.26
671.643
2310.08
300.2
118.485
303.278
184.42
49.012
85.3843
155.836
81.5047
137.24
68.0845
66.1497
821.587
68.8837
76.9008
166.593
224.306
230.738
96.8825
201.525
79.9898
613.773
64.8336
81.3214
767.825
76.8691
78.2305
57.1703
106.704
85.6107
107.73
118.542
90.2926
161.03
503.649
69.7153
96.8108
106.401
112.109
87.6291
283.474
338.908
198.979
265.117
334.496
268.888
555.295
460.472
629.658
1525.66
199.948
315.556
474.58
1224.29
483.929
186.246
72.4068
272.481
403.157
190.554
404.305
369.202
443.097
120.735
195.838
125.578
633.457
595.185
599.529
768.057
484.755
724.009
360.362
628.75
121.996
101.981
518.074
410.472
121.358
1419.75
476.026
452.661
741.577
257.494
107.465
55.2603
48.4463
66.8471
514.334
52.4463
266.134
549.909
80.558
392.777
139.6
140.403
395.936
569.099
501.878
573.563
667.228
277.665
89.8486
411.873
60.6704
346.556
58.7264
55.625
288.303
977.495
343.828
372.4
372.039
498.153
551.234
93.5679
370.367
317.563
453.324
289.988
664.694
741.223
1748.83
257.791
928.955
281.305
263.839
1647.22
288.621
1408.39
397.699
767.432
585.474
1790.74
1198.57
560.385
1096.96
582.136
544.727
421.757
381.09
572.151
214.374
702.678
922.001
190.484
479.103
838.442
85.7209
48.3707
276.688
79.4938
98.1813
82.0849
53.5659
443.589
605.418
66.5779
73.4987
889.538
1112.89
312.088
592.703
747.386
701.951
857.761
1213.98
941.705
300.533
988.33
480.406
359.012
483.884
397.98
1364.35
69.6435
512.145
410.735
408.442
360.249
182.676
265.989
340.992
628.275
335.222
571.13
388.856
829.881
644.511
387.735
489.968
654.991
607.215
708.109
233.882
885.16
668.558
1231.94
441.522
516.846
570.485
111.891
707.424
400.865
942.786
691.434
380.651
48.6802
57.9676
245.023
812.025
387.785
93.129
703.382
60.1455
64.5748
344.802
488.003
215.023
687.902
505.581
454.471
523.122
1001.64
557.96
634.485
541.701
971.833
105.337
1368.14
584.425
943.943
350.618
514.367
479.17
190.688
84.506
270.933
530.667
424.206
539.501
572.794
465.713
610.221
519.768
627.516
399.222