/*--------------------------------*- C++ -*----------------------------------*\
| =========                 |                                                 |
| \\      /  F ield         | OpenFOAM: The Open Source CFD Toolbox           |
|  \\    /   O peration     | Version:  2506                                  |
|   \\  /    A nd           | Website:  www.openfoam.com                      |
|    \\/     M anipulation  |                                                 |
\*---------------------------------------------------------------------------*/
FoamFile
{
    version     2.0;
    format      ascii;
    arch        "LSB;label=32;scalar=64";
    class       volScalarField;
    location    "0.0948794";
    object      p;
}
// * * * * * * * * * * * * * * * * * * * * * * * * * * * * * * * * * * * * * //

dimensions      [0 2 -2 0 0 0 0];

internalField   nonuniform List<scalar> 
3923
(
-25.6776
-23.5762
-2.07787
-43.354
-38.4064
-40.2695
-37.7623
-50.9728
-44.915
-50.9415
-54.6932
-26.0233
-0.264698
-31.4301
-0.254261
-1.90121
-2.25543
-3.95878
-3.37068
-0.120722
-30.4285
-28.628
1.03036
-26.4617
-0.937275
-31.0183
-28.1524
-24.5028
-28.2623
-30.6689
-26.0471
-27.212
-29.3436
-37.5458
-41.3236
-55.979
-51.2128
-50.3788
-43.4229
-37.1429
-49.721
-1.14853
-49.2171
-50.7755
-51.4914
-50.0568
-2.39342
-47.2384
-0.897962
-53.3338
-53.6159
-49.5171
-0.592164
-0.730524
-0.678095
-0.541395
-0.769101
-0.397361
-17.4652
-28.202
-15.24
-42.1478
-2.3473
-21.5217
-2.24632
-2.28641
-26.6415
-50.2225
-43.6769
-41.6439
-0.391785
-45.6318
-35.1002
-43.8461
-13.2462
-43.0865
-9.05941
-35.2046
-53.4868
-40.9942
-55.6924
-39.8178
-24.8469
-24.9868
-52.3016
-52.6791
-24.0735
-15.2029
-22.9072
-37.1003
-17.0989
-52.7874
-22.281
-16.4913
-3.79811
-1.06292
-1.01992
-0.822887
-21.2935
-18.1648
-0.771115
-36.566
-0.117978
-14.3302
-29.6087
-16.7403
-42.2168
-47.0504
-47.1938
-48.8215
-50.5601
-49.5827
0.264073
-0.774667
-43.5606
-44.0687
-39.4171
-39.4215
-49.6042
-39.6281
-4.55135
-50.5007
-28.0996
-10.8965
-50.5893
-40.1731
-40.1061
-34.0719
-34.6391
-39.6101
-33.6914
-48.0233
-48.0814
-3.90949
-1.05192
-2.98943
-13.8908
-45.8988
-11.3669
-18.7596
-37.442
-41.7853
-19.1568
-2.52119
-23.8837
-0.788673
-52.3332
-53.7814
-8.28188
-1.92516
-2.80245
-29.1955
-31.9815
-13.741
-12.1513
-32.9222
-0.763902
-17.6508
-13.4202
-37.4959
-28.1372
-36.7923
-36.8411
-39.5469
-50.7204
-0.823311
-14.4
-9.49513
-7.52945
-39.8375
-11.6508
-0.612987
-49.01
-51.7409
-51.2885
-4.4259
-5.57451
-52.4951
-28.8001
-7.11922
-45.0002
-49.7183
-4.8263
-51.4348
-33.434
-11.7522
-1.37557
-13.9522
-8.88098
-12.304
-40.824
-27.8897
-6.57359
-0.877631
-18.0086
-52.2349
-43.5743
-52.8017
-10.6579
-50.7237
-51.1245
-37.0407
-42.9754
-26.3575
-12.499
-37.5233
-8.95714
-52.7403
-1.53966
-21.0144
-51.6077
-16.4748
-53.4016
-1.88325
-44.9144
-48.6298
-0.476765
-2.35483
-41.7989
-36.357
-36.4533
-45.0416
-53.0238
-52.6771
-44.8007
-11.7343
-14.6305
-0.224029
-0.568114
-0.120996
-0.151857
-0.801946
-0.233298
-1.43851
-13.3974
-3.6291
-13.2234
-8.71213
-13.1037
-12.9239
-10.7041
-8.06818
-44.2823
-12.9513
-39.9964
-45.0462
-45.4801
-6.99258
-6.42756
-7.42225
-38.7704
-20.4417
-8.50113
-13.4788
-14.1427
-10.5897
-38.5445
-41.8459
-12.5545
-13.2258
-43.1189
-40.7074
-14.2489
-15.0141
-11.3089
-10.4404
-37.9532
-35.294
-17.9801
-16.9999
-14.3439
-39.8957
-7.11531
-8.31561
-5.71811
-5.87903
-8.76662
-6.70676
-5.31916
-8.02996
-8.26505
-10.9643
-5.84109
-4.26948
-41.9269
-0.291913
-12.3112
-18.5714
-0.461878
-15.7932
-19.182
-10.3333
-14.3166
-12.6558
-2.4346
-39.373
-42.2157
-46.4403
-45.7508
-39.349
-54.3111
-37.7004
-47.8773
-40.9274
-38.6543
-40.8332
-49.9883
-40.002
-48.2317
-45.1864
-48.0995
-49.3465
-45.3569
-35.5847
-36.2657
-37.0123
-39.098
-40.3989
-27.1132
-25.2021
-25.5935
-27.3017
-27.1706
-30.4574
-21.743
-26.4739
-22.911
-44.6112
-50.3304
-29.2197
-29.1811
-12.5353
-19.7353
-19.2381
-19.7628
-17.9031
-15.3109
-23.4456
-21.343
-20.3635
-21.9799
-19.2565
-22.53
-24.6027
-19.5428
-13.8822
-13.9001
-16.6165
-8.50633
-11.9527
-9.35029
-10.4517
-10.4438
-10.4953
-11.251
-7.54547
-8.32943
-7.14435
-6.06286
-4.32829
-4.03505
-0.362086
-2.12209
-1.75218
-1.7656
-0.738816
-1.94194
0.0364675
0.0383333
-1.1122
-0.450559
-14.913
-13.6417
-11.6274
-40.0564
-39.8477
-38.8467
-30.3271
-26.594
-28.7031
-32.1233
-25.9386
-26.3828
-1.59403
-1.20821
-5.0169
-2.17628
1.8501
-0.134757
-50.7603
-51.1971
-50.3625
-24.2355
-26.1072
-19.7865
-25.6173
-24.2494
-27.6755
-33.9952
-0.705358
-1.98751
-2.6896
-4.58114
-1.90875
-25.691
-25.2905
-17.1091
-21.206
-23.1645
-26.5443
-34.4722
-31.5357
-31.8733
-35.3599
-35.8863
-36.9212
-34.6414
-30.6073
-31.5399
-24.1296
-22.5796
-21.4942
-23.5954
-13.3456
-23.2792
-9.72844
-11.3175
-18.8889
-9.49789
-53.3457
-9.88387
-41.4563
-22.6788
-35.7174
-20.6869
-52.2554
-39.8049
-51.6851
-38.7209
-27.0413
-43.5781
-0.0362306
-7.73474
-48.8982
-1.49028
-1.77648
-17.6586
-46.4226
-3.83357
-43.3408
-38.5115
-44.4361
-53.129
-52.2244
-20.8088
-2.57067
-42.1742
-6.68081
-4.75589
-11.7783
-28.5799
-5.37883
-36.6669
-3.78868
-37.6147
-36.2507
-1.82197
-16.0653
-41.2422
-50.5284
-9.14802
-13.4097
-45.1037
-13.5982
-25.0503
-41.0927
-40.9482
-17.3843
-0.762516
-1.94626
-15.7904
-40.1782
-11.9747
-45.0241
-52.2459
-8.90643
1.03332
-8.54114
-4.98349
-39.542
-54.7986
-37.9826
-13.3649
-40.1931
-4.0324
-3.87137
-4.27446
-52.2906
-19.7416
-51.5975
-4.85629
-1.07989
-4.61848
-1.32633
-8.0478
-0.756388
-39.9645
-8.18757
-1.26935
0.22498
-12.7065
-52.2774
-14.9863
-27.724
-3.00001
-32.7771
0.284899
-1.30506
-23.8852
-12.4131
-36.3687
-10.6619
-18.2331
-13.0079
-5.37424
-18.096
-12.2897
-34.2195
-39.8564
-24.9987
-18.1316
-42.941
-20.1931
-24.4458
-33.3356
-17.8027
-34.3622
-9.43873
-47.0731
-31.2218
-33.715
-30.6609
-35.2934
-11.948
-16.234
-30.9845
-27.1658
-14.428
-20.2231
-54.0222
-43.3254
-31.3632
-40.7525
-39.3911
-22.3059
-46.8132
-25.3357
-17.6765
-51.7573
-25.8446
-13.4113
-50.6459
-43.2257
-28.344
-13.9725
-29.5481
-51.3472
-51.944
-11.7596
-32.1759
-25.3056
-20.7914
-7.26286
-21.4525
-13.7639
-34.9507
-8.87583
-9.58735
-9.5604
-4.17718
-29.4611
-28.2289
-49.9217
-46.8604
-50.2572
-37.4614
-52.0403
-53.178
-33.6552
-17.169
-1.5347
-37.8451
-19.6037
-11.5247
-4.88206
-52.1279
-27.2494
-37.6856
-2.13477
-46.0575
-24.9343
-10.2655
-4.23567
-5.60571
-40.9217
-24.3791
-32.6869
-38.8492
-1.40703
-34.7559
-8.64171
-32.9477
-20.6983
-30.6866
-37.2639
-54.5078
-52.4924
-54.7641
-51.4149
-50.1839
-48.7773
-42.5997
-55.555
-47.1854
-16.7198
-52.6799
-0.50644
-5.83459
-53.6725
-52.422
-53.3954
-0.392606
-51.6204
-6.94768
-16.2627
-3.2652
-53.165
-52.8202
-53.0286
-14.6176
-51.5988
-49.8299
-18.8202
-51.2684
-14.5032
-51.859
0.240552
-16.9829
-52.3582
-44.009
-45.3343
-36.3917
-42.0037
-37.8577
-52.1454
-36.2166
-41.8213
-54.2767
-49.2743
-6.66048
-44.0172
-44.2015
-53.1101
-47.1596
-43.4895
-33.5923
-45.0429
-52.8765
0.401723
-0.939807
-1.19743
-1.06426
-7.66972
-0.165047
-3.692
-1.27461
-1.06089
-42.9041
-44.3428
-11.3398
-46.1931
-0.184236
-1.19223
-0.84405
0.211038
-1.01613
-16.9304
-55.7577
-3.2823
-10.9831
-3.12586
-9.66944
-0.627299
-0.896589
-0.53854
-2.07675
-49.5211
-3.70406
-1.55713
0.231661
-11.7625
-52.7145
-34.871
-13.156
-50.5169
-31.6337
-38.1492
-52.1275
-52.6863
-50.4417
-29.2068
-35.7719
-4.18366
-50.5943
-38.5054
-52.5119
-54.2817
-53.788
-37.6355
-52.1476
-52.5308
-53.224
-51.4514
-39.9659
-17.8283
-53.6498
-49.8939
-38.2781
-49.0212
-52.6222
-53.5427
-0.0809392
-2.35883
2.52411
-2.02302
-17.2272
0.243384
-43.5831
-0.813866
-11.8242
-0.0129611
-5.38336
-2.89762
-42.8004
-0.690136
-6.32872
-15.7122
-23.8967
-0.0620821
-2.63964
-9.35965
-36.9482
-44.7542
-41.0221
-9.10936
-18.1407
-11.2532
-16.8808
-1.98317
-6.65581
-10.2703
-37.2136
-60.5036
-45.0283
-6.54653
-8.75273
-52.9173
-53.7517
-52.9163
-51.0888
-6.8725
-20.2459
-36.1214
-48.5106
-51.8592
-53.3352
-51.5977
-49.0582
-19.8738
-52.0906
-0.83941
-46.8037
-44.934
-54.0835
-17.6767
-14.4058
-42.4986
-48.9229
-53.5124
-12.9799
-6.33885
-3.62694
-34.6932
-2.82619
-4.26723
-45.8016
-29.4348
-38.7158
-19.5682
-18.4185
-22.7441
-10.7067
-14.692
-50.9318
-2.06686
-2.93099
-5.76272
-4.0475
-2.50284
-0.273828
-0.664011
-6.2604
-11.2726
-51.8648
-53.6817
-28.2926
-16.615
-39.8003
-23.7763
-53.1509
-16.0686
-11.416
-49.2699
-49.0859
-52.7595
-15.8701
-13.5207
-9.16395
-11.2029
-10.2151
-14.1829
-14.0102
-10.0556
-52.4052
-39.1562
-35.6764
-35.4023
-38.4194
-38.5854
-50.7554
-20.904
-32.4431
-41.3905
-39.8797
-19.5114
-39.5493
-4.02361
-17.8791
-48.9619
-20.189
-12.0638
-11.8539
-3.71748
-10.1076
-19.122
-26.2979
-22.5966
-35.8516
-7.11812
-10.1632
-7.74636
-5.23673
0.417812
-2.59632
-53.3266
-53.7322
-33.3778
-25.2121
-20.3704
-7.92967
-16.1359
-17.8549
-49.61
-1.61433
-0.801198
-52.7816
-51.211
-52.8464
-52.9503
-43.6307
-40.5618
-44.5206
-40.2651
-36.0643
-51.2426
-26.15
-22.3397
-21.8049
-19.1054
-54.1535
-50.3291
-54.2188
-52.1564
-52.3269
-53.1083
-46.1283
-53.8859
-52.0989
-51.6621
-50.633
-51.7495
-41.448
-51.1221
-54.4585
-43.9147
-43.7725
-54.2547
-4.43151
-37.1089
-21.0365
-19.1404
-36.8102
-1.6971
-7.37382
-1.48993
-36.1001
-49.8938
-43.5976
-5.28648
-14.3621
-4.93776
-36.437
-14.6053
-16.9912
-13.7972
-48.9532
-15.2774
-35.308
-41.4509
-7.89956
-38.7738
-41.4297
-45.1859
-32.8803
-55.0712
-50.5417
-48.182
-45.3842
-45.2019
-26.16
-53.3572
-53.7548
-40.3028
-37.2173
-4.4352
-0.18884
-39.8831
-50.815
-11.8574
-27.8849
-32.7064
-31.6247
-53.0521
-51.4396
-47.5263
-40.6629
-10.7682
-31.4547
-12.0681
-50.9197
-20.1808
-45.7076
-27.7937
-44.9872
-31.3131
-26.4914
-35.5599
-22.2181
-29.1224
-31.8777
-31.1409
-9.26889
-27.8618
-38.0079
-3.95276
-1.71169
-4.39361
-19.4866
-38.7365
-3.61486
-13.0972
-25.3763
-4.68262
-35.1683
-7.82061
-5.20213
-3.99533
-2.83947
-1.83892
-51.2043
0.59905
-2.32654
-3.2944
-1.52174
-5.75524
-48.4504
-47.8824
-2.21233
-1.10238
-3.74538
-2.7832
-13.6764
-14.3795
-2.9576
-4.83211
-14.9744
-34.7629
-5.17012
-5.13528
-51.0457
-24.4426
-24.5441
-40.7123
-15.1557
-5.92531
-18.0372
-21.8647
-54.4125
-39.392
-25.9254
-33.6706
-39.112
-18.3067
-11.4643
-19.909
-28.2053
-43.0801
-32.7417
-29.5145
-51.6039
-23.7167
-46.9773
-39.3702
-14.2017
-36.6569
-50.1918
-30.6337
-16.355
-30.3811
-17.6164
-26.2179
-19.1728
-2.76155
-6.03838
-22.8135
-39.2635
-31.929
-34.0195
-35.2527
-38.5833
-54.5262
-26.8716
-16.9902
-50.1646
-17.1379
-45.0003
-2.26527
-48.4435
-22.2425
-19.1169
-35.8455
-6.54715
-1.99279
-25.69
-26.1852
-16.659
-14.9214
-8.8619
-21.3902
-37.2342
-36.9143
-11.9125
-38.2675
-35.0472
-30.6544
-24.7102
-6.57025
-7.01035
-21.6213
-27.4918
-51.6065
-17.8798
-49.24
-14.3749
-30.8298
-49.4746
-23.2977
-42.3921
-51.6275
-52.6004
-49.2955
-53.4175
-4.50748
-52.0108
-43.194
-2.62406
-53.2143
-4.71824
-53.8186
-4.09214
-3.51905
-26.1044
-43.8051
-31.4065
-33.3694
-32.1655
-47.902
-47.9777
-42.7638
-51.6954
-51.7502
-54.6717
-32.0475
-20.4769
-48.0168
-21.0775
-50.9956
-48.2599
-37.744
-2.46582
-11.2195
-40.5627
-53.4523
-52.826
-52.8148
-53.179
-53.547
-48.1357
-53.1181
-20.2159
-48.928
-53.1171
-52.8125
-45.2625
-47.9256
-43.5604
-52.17
-29.9532
-52.1747
-51.1419
-23.0146
-9.87493
-21.4722
-24.2148
-49.1948
-48.7685
-48.8105
-17.4342
-42.4824
-40.5777
-52.8186
-54.5446
-24.522
-51.2
-44.4253
-24.3448
-22.2459
-48.806
-16.0546
-27.4014
-24.0839
-38.744
-14.0951
-39.6212
-16.9243
-41.7457
-27.3657
-52.6138
-21.4445
-52.9552
-50.3474
-52.078
-49.7081
-32.2272
-48.3804
-52.5454
-52.9273
-51.7991
-52.7617
-45.1208
-31.9103
-52.4817
-49.0512
-50.9835
-52.1242
-53.5574
-35.0533
-34.7927
-3.13727
-1.13454
-0.988534
-1.51966
-0.416485
-0.398537
-0.267136
0.256896
-0.169518
-0.459581
-1.71202
-1.12165
0.610572
-7.43591
-0.780315
-3.56526
-0.734923
-0.320078
-4.61554
-3.24639
0.281612
-26.868
-4.04256
-2.78678
-51.4107
-51.6037
-0.859233
-0.602293
-0.967521
-0.457566
-0.672557
-2.245
-52.9596
-48.7219
-1.95676
-4.01775
-0.741763
-40.2543
-33.8906
-40.1307
-33.3256
-10.5854
-35.3042
-53.6857
-52.7668
-45.1265
-50.5282
-47.8057
-42.5827
-50.2971
-38.261
-37.6203
-45.9653
-51.6889
-33.0675
-53.1809
-52.5431
-53.1897
-42.6483
-52.4579
-51.311
-33.6199
-51.093
-13.634
-51.5927
-49.5255
-46.1753
-12.0223
-51.2498
-50.4785
-49.8343
-51.7271
-31.9415
-1.50783
-20.0137
-7.32741
-4.7007
-45.1448
-27.6317
-41.4108
-42.5385
-38.8275
-55.1758
-2.84861
-1.14465
-46.5953
-3.64514
-38.5668
-4.97945
-19.0237
-25.954
-41.9826
-9.93787
-21.478
-2.14049
-7.2114
-6.77645
-7.74628
-5.70448
-48.8308
-53.093
-48.0189
-4.25308
-3.92204
-5.11305
-4.15687
-5.61664
-6.2341
-31.6434
-1.05047
-8.63206
-2.16548
-18.0267
-50.4172
-33.1646
-53.3421
-26.2791
-52.5504
-0.173016
-5.60858
-0.559505
-50.8965
-0.604393
-50.3465
-12.0988
-1.58739
-11.1356
-5.92207
-4.68726
-24.4488
-50.405
-43.8756
-53.7858
-41.7784
-12.2477
-42.545
-38.6244
-51.7369
-41.2135
-53.0258
-37.2291
-0.673714
-0.731692
-0.915919
-0.544846
-6.3362
-3.42049
-44.5968
-11.4147
-18.688
-22.779
-33.3553
-26.0247
-52.3804
-48.1484
-49.3346
-12.7787
-48.5617
-10.5651
-16.7293
-1.63925
-42.8273
-10.4045
-32.2152
-4.00271
0.08905
-7.03998
-29.182
-51.1036
-0.28498
-25.0495
-6.12825
-4.23992
-3.00658
-1.03045
-0.99625
-1.38644
-1.51546
-0.678783
-51.6509
-51.6939
-51.2764
-45.5432
-45.8374
-53.1172
-53.854
-53.3552
-1.05052
-0.870765
-52.5956
-52.6963
-53.4395
-51.2104
-54.562
-51.6411
-51.6602
-51.032
-51.225
-51.4253
-52.701
-52.7851
-50.0546
-51.1866
-52.991
-52.8409
-52.4297
-52.1126
-12.2148
-52.114
-0.323787
-18.358
0.0591921
-53.7137
-33.4054
-0.804058
-2.01179
-23.8491
-3.60596
-9.47427
-6.42808
-1.94547
-33.6828
-45.2019
-53.0234
-49.3994
-13.2449
-21.5423
-19.5041
-5.73215
-43.0745
-53.0578
-12.3656
-49.1071
-7.95778
-50.1125
-44.6332
-26.6709
-43.8289
-38.1275
-39.8452
-38.6172
-30.161
-32.8782
-22.8182
-44.2116
0.00816206
-5.84394
-7.22548
-39.8924
-8.69284
-1.64086
-10.1094
-37.0079
-51.2107
-38.6502
-51.7241
-37.1305
-27.0584
-31.8832
-27.1617
-0.151644
-2.89561
-1.95458
-7.02318
-22.5153
-1.33151
-7.4924
-14.8783
-25.365
-6.10273
-4.67202
-4.27034
-4.67798
-12.4549
-1.89558
-14.0852
-8.96198
-18.6709
-17.6176
-31.6124
-15.7292
-36.7529
-11.3718
-16.5351
-7.92032
-6.68939
-17.6022
-12.1156
-9.75942
-8.37094
-28.1711
-33.349
-14.1891
-53.8145
-36.9317
-36.6031
-36.2053
-0.154103
-26.9274
-27.1138
-43.8867
-50.6144
-52.9155
-42.3179
-35.3844
-31.5307
-53.6105
-27.5278
-41.553
-48.368
-37.3594
-49.4379
-50.1781
-48.9854
-40.4688
-3.30619
-6.42138
-27.0422
-21.4969
-38.5092
-29.8308
-45.7614
-49.3076
-26.3757
-46.3474
-17.2435
-32.4275
-4.56217
-2.69866
-11.7443
-29.3919
-52.3883
-42.1451
-5.51405
-48.4436
-29.3528
-30.2012
-16.9413
-35.8923
-35.8039
-29.6367
-38.9363
-19.46
-14.7971
-14.0329
-33.5459
-7.11896
-28.7327
-38.5554
-29.1588
-27.4555
-31.4946
-32.2936
-18.4975
-26.4104
-48.4921
-55.1456
-54.4639
-11.6053
-22.1002
-53.9388
-36.1794
-51.6892
-52.037
-1.37157
-33.4602
-38.5911
-0.739502
-53.5841
-51.7084
-0.37123
-0.474624
-43.6344
-50.8296
-49.3143
-33.0131
-30.3393
-38.5542
-39.634
-32.9927
-52.6181
-40.2068
-36.9689
-39.0701
-45.9759
-50.8038
-1.69022
-4.45113
-49.5717
-19.4345
-15.3707
-6.21889
-39.4747
-52.514
-52.6934
-50.3575
-48.2768
-37.9293
-49.6374
-52.7121
-50.1036
-55.4737
-19.8034
-43.0742
-13.7196
-15.5781
-12.8312
-19.6298
-12.7842
-33.8869
-44.8976
-48.8346
-47.9463
-50.3715
-54.1434
-54.1385
-53.5932
-51.8569
-41.2814
-44.3141
-44.6264
-43.5465
-41.6715
-41.05
-32.8686
-48.9933
-43.5021
-45.9231
-52.4964
-50.021
-35.3164
-22.0255
-51.1233
-43.8326
-52.3913
-40.3413
-4.52015
-6.78459
-3.15975
-48.8377
-49.6704
-40.7422
-40.4625
-37.5066
-44.3686
-50.6426
-39.6462
-31.4409
-35.0474
-34.409
-37.32
-51.2214
-30.0172
-28.6739
-41.1779
-41.7244
-24.9394
-45.7007
-33.5453
-7.50744
-26.0286
-14.1206
-19.0541
-39.6641
-10.7331
-34.2452
-39.2104
-12.6603
-49.9893
-21.4899
-49.9927
-44.702
-27.1924
-44.6959
-30.6603
-40.1488
-3.20613
-1.4364
-29.9766
-12.5925
-19.5005
-43.4929
-0.919446
-1.75163
-0.296852
-0.694346
-0.621322
-0.748772
-0.112419
-5.34188
-44.7914
-47.9599
-2.10186
-43.2406
-45.8503
-48.2971
-50.6826
-1.00463
-1.52729
-1.08997
-5.74369
0.202844
0.0110237
-6.1731
-1.31907
-3.94322
-5.43887
-32.0115
-13.6748
-6.97409
-2.02798
-0.430379
-0.603462
0.480433
-0.230032
-1.0293
-0.749261
-37.6012
-42.156
-38.4353
-52.4842
-49.9429
-45.2434
-52.1621
-34.6784
-40.8459
-53.2949
-39.1511
-52.4611
-51.7914
-52.8329
-50.113
-49.5106
-53.0357
-51.9901
-52.1597
-55.3614
-48.4724
-39.1692
-42.2686
-51.9689
-52.1732
-54.2594
-55.7161
-37.3861
-50.401
-49.9633
-36.6427
-41.1691
-40.625
-49.5258
-28.5149
-47.7556
-48.4277
-51.9158
-48.0393
-45.6415
-40.2753
-49.7455
-2.06631
-1.29944
-12.2242
-52.1283
-50.0575
-1.5308
-12.8619
-7.05184
-3.95914
-2.66703
-5.82036
-2.18665
-3.96264
-17.0755
-45.7975
-2.47892
-3.88189
-1.46092
-2.41181
-6.91738
-7.18417
-23.3757
-19.5439
-12.9982
-4.45993
-9.95734
-2.994
-2.61205
-2.34626
-0.697086
-4.0188
-0.911375
-2.29786
-0.174736
-53.2992
-52.9292
-46.445
-26.1295
-51.7626
-32.4189
-17.7818
-29.5813
-30.3529
-37.5867
-41.9721
-32.0287
-44.4362
-46.5056
-53.8654
-41.9674
-49.0642
-48.222
-29.1849
-7.64654
-51.3698
-44.9818
-45.9947
-43.9338
-51.1356
-50.288
-49.0972
-36.184
-15.0928
-33.0056
-34.6164
-26.4725
-29.1847
-10.0057
-34.3121
-51.2851
-29.9217
-19.9892
-15.4108
-11.9631
-10.0106
-46.1484
-19.0317
-46.6411
-51.3923
-41.9676
-45.4303
-11.5986
-56.4865
-52.0565
-35.8419
-38.3577
-35.2699
-36.7191
0.0581388
-0.121948
-0.781136
1.01292
-1.70868
-31.7943
-43.672
-15.2347
-1.51521
-52.852
-43.3871
-53.2632
-3.64507
-20.6488
-21.5322
-15.6104
-44.7136
-41.9791
-1.05045
-0.701545
-19.462
-52.0873
-37.4588
-5.67044
-23.9602
-51.3887
-7.3275
-53.455
-41.0449
-38.416
-45.4974
-22.7947
-38.2938
-45.6257
-40.1142
-38.898
-36.2333
-35.7844
-31.1822
-17.4953
-16.1931
-18.9849
-0.090005
-0.093933
-21.8672
-29.714
-25.9048
-1.27594
-38.4705
-13.3138
-44.9218
-14.6741
-18.8423
-2.33988
-0.986267
-1.81936
-8.91661
-6.17019
-1.82781
-1.34374
-5.39713
-9.45728
-15.4576
-15.0086
-14.1222
-26.6417
-51.7728
-50.9855
-46.3987
-43.8149
-45.4166
-47.7883
-43.5386
-45.1483
-45.3459
-39.7135
-33.8039
-50.4621
-45.0066
-19.9781
-18.2499
-16.3833
-18.406
-39.7147
-26.669
-38.3819
-29.7475
-38.334
-39.0456
-42.1762
-20.5938
-36.4194
-26.0245
-28.5316
-2.7613
-3.6232
-13.4003
-31.9505
-17.9768
-32.5649
-45.896
-22.6974
-11.7937
-14.9345
-9.89998
-10.3085
-8.71488
-46.2847
-28.8604
-26.677
-3.10335
-3.79439
-1.12842
-1.07736
-1.47914
0.630982
-0.835727
0.290599
-0.17814
-0.16158
-0.627446
-1.80298
-2.07364
-0.832201
-35.0082
-36.5271
-35.0648
-51.5607
-52.3618
-51.5441
-51.6053
-27.3379
-24.5433
-14.8279
-22.3607
-0.646789
-0.599237
-35.1845
-35.3078
-50.4373
-46.4594
-47.5446
0.192412
-38.5882
-48.9533
-46.2928
-12.1107
-48.5409
-16.2641
-11.7737
-8.85757
-16.1247
-14.1605
-12.701
-17.6952
-10.5827
-31.9805
-36.6798
-34.4951
-28.2969
-30.034
-26.2853
-32.9557
-39.4352
-17.8223
-21.6169
-29.141
0.437952
-1.31474
-1.26483
-0.8605
-51.4613
-52.8079
-52.5499
-45.928
-51.5266
-53.1681
-52.5321
-49.0375
-52.2161
-50.8174
-51.9372
-50.2371
-51.5617
-25.6506
-34.1386
-22.0977
-9.12234
-43.6326
-43.4273
-33.1444
-38.7443
-21.9527
-22.1368
-16.1629
-12.947
-1.72809
-10.6453
-42.3609
-3.63807
-33.8526
-30.1547
-1.7239
-1.53962
-8.37012
-25.8857
-22.0139
-25.746
-13.1676
-25.4814
-29.4839
-20.9967
-49.9134
-3.27605
-1.13194
-1.76655
-3.5196
-2.3923
0.359769
-2.20904
-8.23977
-3.21932
-1.01266
-22.9341
-36.5922
-4.06017
-19.5705
-23.1733
-15.2576
-41.2113
-40.2988
-12.5306
-42.6254
-36.0999
-37.3398
-18.9912
-52.5434
-38.5854
-36.3743
-29.7632
-53.3934
-48.1265
-16.3317
-32.074
-41.1948
-13.5637
-22.212
-6.75523
-29.8905
-33.625
-2.47653
-9.85169
-2.4067
-11.1225
-3.39279
-3.62392
-2.18135
-2.63759
-4.71504
-3.01628
-6.58435
-3.91179
-2.97567
-23.5505
-1.61919
-2.20258
-20.1029
-15.7314
-19.3875
-10.9334
-6.38822
-2.77314
-6.95868
-13.1161
-42.172
-10.2448
-24.2295
-12.4762
-19.5204
-10.4403
-5.79431
-9.21267
-17.5189
-11.375
-28.7734
-46.6106
0.420308
-52.9435
-32.9571
-41.7604
-21.8195
-27.6887
-36.8747
-29.6223
-35.7753
-36.8963
-49.0302
-29.7042
-48.0679
-31.2298
-32.3932
-16.3199
-24.0356
-32.9994
-43.7612
-0.450951
-30.6332
-42.7739
-31.4408
-31.5916
-40.4661
-25.9736
-50.8633
-6.29493
-50.8288
-20.2658
-5.19009
-11.1448
-40.0592
-43.9513
-49.3108
-43.8264
-25.1434
-15.1495
-12.6336
-23.32
-21.7841
-32.3735
-1.4335
-4.75864
-3.16605
-3.65075
-6.26264
-20.0596
-10.6051
-8.81479
-5.12132
-36.5089
-21.2903
-26.2223
-26.4009
-30.0812
-17.6553
-27.0472
-44.8892
-47.3884
-49.9278
-44.8084
-46.4762
-31.143
-43.6642
-46.0377
-7.97066
-23.6821
-18.524
-5.04218
-18.8973
-13.194
-24.7031
-27.6952
-16.0468
-53.3632
-47.3821
-52.9166
-26.6708
-38.373
-39.1183
-40.7881
-52.2998
-53.61
-40.5588
-50.4997
-51.771
-41.4635
-36.705
-35.2357
-37.5845
-44.9445
-47.4334
-47.8503
-54.8132
-46.469
-53.4467
-52.3452
-41.3438
-32.3124
-40.7938
-45.6309
-50.9097
-46.1015
-41.9928
-22.0451
-15.4689
-6.17854
-40.3705
-6.62451
-33.1788
-11.5349
-51.9229
-53.5859
-53.2591
-52.5713
-53.1067
-39.8421
-51.5601
-52.0578
-52.0442
-36.2962
-53.8248
-36.3382
-42.7661
-53.1231
-44.7017
-44.2755
-54.2523
-53.7658
-53.6665
-53.6933
-53.7433
-50.7645
-43.2639
-32.792
-32.7359
-43.196
-33.6499
-51.2203
-45.1762
-21.2051
-32.063
-10.3326
-43.0123
-47.3448
-50.9963
-56.5431
-41.3393
-53.4641
-44.5362
-53.9103
-51.7087
-52.3026
-51.7104
-50.6032
-40.4554
-42.2845
-44.0658
-47.5189
-45.9049
-44.1299
-3.53998
-0.657662
-2.74358
-5.78385
-2.46332
-4.01519
-6.72293
-5.65736
-24.1517
-15.4169
-1.28871
-0.59737
-2.03842
-0.752382
-0.322894
-5.76024
-15.5378
-0.888037
-2.24216
-2.2658
-0.123195
-52.9143
-12.2429
0.0408571
-16.6609
-52.4442
-53.1945
-24.709
-40.4234
-0.458968
-49.3484
-4.28701
-0.225747
-15.3881
-35.0089
-48.787
-45.5373
-43.4451
-28.9734
-50.8285
-51.393
-54.9789
-42.1096
-23.5677
-28.5956
-52.7022
-52.3048
-29.1263
-48.0661
-52.1463
-48.7026
-51.4149
-50.8832
-33.4214
-49.275
-51.7
-23.2764
-10.5747
-11.8483
-20.2052
-0.901748
-0.42852
-8.97787
-5.36996
-4.97081
-9.13372
-18.8069
-5.12143
-5.72146
-3.74227
-37.0847
-39.7649
-38.9167
-0.705708
-0.437546
-53.1659
-0.786305
-0.837379
-16.806
-41.1458
-51.2716
-41.0899
-19.4801
-0.956094
-5.49378
-5.52328
-6.28623
-7.46448
-0.565521
0.20696
-50.4599
-46.1135
-45.0116
-40.7254
-46.9409
-52.5873
0.910524
-2.05216
-42.7721
-53.8833
-52.8633
-36.7072
-36.9155
-20.3124
-18.4369
-46.8569
-43.3155
-49.9102
-5.71715
-2.51634
-3.55403
-1.60814
-5.04385
1.91378
-43.6306
-5.35058
-7.73248
-5.50584
-1.63916
-1.70433
-3.12046
-3.12748
-30.115
-22.6006
-44.0705
-50.4142
-39.4951
-39.6055
-8.37076
-49.4537
-3.51037
-6.94136
-7.4289
-9.339
-3.5426
-17.4311
0.168226
-1.97572
-13.7522
-5.19899
-4.45781
-14.7662
-11.6027
-22.7353
-52.5671
-49.5949
-27.3693
-38.6804
-46.7669
-25.5372
-3.54344
-4.93204
-4.89529
-0.190345
-4.79214
-1.22756
-2.76938
-4.32901
0.471264
0.0902078
-0.246888
-6.08571
-8.2355
-33.8181
-21.0659
-13.0507
-25.7437
-19.359
-29.6382
-24.6098
-5.29625
-27.6633
-49.2635
-43.2287
-41.3485
-51.811
-1.47535
-7.37054
-1.05282
-6.01717
-30.9788
-46.293
-27.7753
-51.2201
-23.8852
-51.3261
-6.04279
-3.56587
-9.23706
-1.57639
-39.7281
-40.071
-1.43548
-0.761461
-1.39148
-0.785149
-1.62133
-42.9819
-0.230525
-2.64712
-53.8946
-2.79576
-53.6106
-51.1158
-1.60691
-49.5274
-50.2435
-53.6597
-28.6145
-19.3606
-21.5137
-12.2668
-27.0083
-48.7419
-12.4893
-6.21464
-7.7669
-0.736822
-0.741251
-0.519986
-8.65185
-10.0684
-6.03155
-3.92342
-3.67456
-15.402
-18.3515
-22.1838
-23.2027
-22.1331
-7.40646
-8.23738
-14.7195
-7.98262
-8.28675
-17.8257
-16.6422
-30.151
-41.6268
-37.3174
-53.872
-34.6504
-53.2891
-2.58639
-3.05683
-38.678
-3.69894
-12.3459
-8.40766
-17.5953
-45.9051
-21.9752
-26.5764
-49.8651
-54.384
-44.0278
-51.7465
-50.5737
-40.0012
-27.6345
-1.58994
-0.673091
-38.5841
-14.9797
-25.5158
-28.414
-24.9172
-51.7286
-5.0395
-45.4786
-21.5544
-40.0997
-30.3595
-3.6795
-44.0995
-48.2232
-29.9331
-50.1505
-55.8782
-20.9051
-49.4087
-45.7595
-37.3628
-45.6672
-39.6956
-47.8694
-14.6315
-22.4077
-50.9658
-52.7297
-50.7818
-53.528
-49.4428
-37.3449
-0.598018
0.818381
-1.49509
-0.555048
0.588242
0.033192
-1.18802
-33.0061
-0.919413
-3.05307
-0.723464
-1.86114
-2.03123
-29.446
-5.25681
-34.3787
-1.50011
-2.07228
-9.16098
-10.8136
-9.49966
-19.1917
-21.175
-13.2519
-14.8826
-11.2822
-2.29127
-22.8355
-10.0215
-7.74514
-8.319
-8.74728
-35.5175
-16.4178
-25.9073
-14.0771
-39.2905
-18.9508
1.12603
-1.31013
0.424401
-14.9032
-30.2537
-40.1428
-6.75249
-1.50453
-33.9891
-14.0796
-52.5848
-36.8802
-50.2636
-35.9462
-31.9524
-15.6278
-38.43
-39.3568
-30.2176
-47.3334
-20.5497
-13.9693
-27.2056
-54.155
-51.3391
-28.5714
-11.7763
-41.4022
-34.6111
-21.9522
-11.4806
-40.075
-43.8078
-36.0985
-34.037
-30.5084
-43.0667
-26.7287
-33.1702
-15.6611
-47.2716
-50.4044
-54.726
-42.2289
-49.5541
-52.4708
-1.69534
-2.82312
-3.55923
-54.7688
-7.86152
-9.94228
-54.4969
-52.8666
-9.17118
-21.6141
-48.8273
-55.6486
-33.9073
-53.7611
-36.8434
-20.593
-41.6231
-22.4332
-26.8795
-37.0407
-15.2055
-30.1923
-22.1577
-34.6273
-25.614
-28.5835
-10.4438
-38.0458
-30.9191
-29.8339
-14.4023
-47.6286
-51.1166
-45.2521
-51.3136
-50.5777
-41.7414
-51.3223
-39.534
-38.8064
-41.5783
-52.622
-50.5068
-53.4996
-50.3735
-47.4764
-51.5697
-46.9536
-44.9267
-21.4046
-9.07002
-10.128
-7.41329
-11.4358
-11.8625
-50.0095
-53.3195
-47.0636
-53.8557
-46.7846
-18.4648
-20.8662
-50.8729
-53.2071
-27.727
-52.7823
-35.1939
-50.7875
-49.6949
-51.5922
-50.4992
-30.6196
-28.1005
-44.1128
-51.7459
-52.6084
-53.6947
-41.577
-29.4713
-47.4056
-31.5771
-27.2208
-9.96571
-8.81018
-53.2187
-47.7861
-10.2242
-11.601
-8.92091
-9.58209
-2.90072
-3.56517
-48.2963
-5.27492
-35.7601
-6.02746
-2.80889
-2.28402
-47.71
-30.0853
-39.7691
-41.5893
-30.7354
-51.2641
-32.6188
-4.48277
-34.7118
-44.9632
-41.3699
-7.93224
-44.0109
-24.4482
-38.1873
-29.1727
-0.329516
-28.3788
-0.837535
-0.70091
-25.6476
-29.1254
-43.282
-36.3635
-51.1534
-21.1433
-19.1132
-11.5019
-17.919
-17.2432
-13.6925
-11.9299
-30.2104
-41.1585
-50.0728
-47.033
-45.7278
-42.4589
-37.8544
-33.304
-30.6787
-52.51
-48.4938
-25.5143
-49.5549
-53.0916
-46.5783
-50.6775
-41.2508
-36.9965
-50.3741
-10.737
-43.9418
-52.0967
-52.5549
-50.2846
-50.4207
-45.2515
-33.9004
-45.9888
-43.0776
-45.2639
-48.3753
-25.313
-47.7991
-44.6859
-47.7593
-52.416
-52.936
-14.3739
-28.4089
-52.8428
-50.9349
-31.4359
-36.2478
-35.0896
-32.7908
-48.2002
-46.9983
-60.8354
-53.1872
-52.7349
-51.7256
-52.9042
-52.0752
-50.0945
-16.075
-28.5102
-48.7078
-12.7288
-40.2142
-9.89892
-47.7413
-54.8394
-55.0179
-17.7508
-3.81209
-1.1789
-34.3465
-7.23311
-20.7371
-28.8735
-0.485177
-2.07526
-23.1835
-33.9544
-5.24961
0.598278
1.51772
-9.52146
-40.4382
-54.0139
-54.1037
-53.5134
-52.6226
-8.38737
-7.60195
-12.5529
-16.6575
-19.2732
-0.499304
-8.50057
-2.73549
-0.696733
-53.7379
-3.62213
-1.7126
-1.02907
-53.9503
-32.5323
-43.4161
-41.2627
-40.9069
-0.862264
-2.06201
-1.41265
-1.00602
-2.34994
-26.9131
-3.92698
-16.5166
-1.28743
-11.6787
-0.503382
-48.7195
-52.6645
-51.6907
-47.2384
-47.5214
-49.8172
-44.6143
0.161206
-1.01514
-14.3464
-0.338442
-0.13264
-1.04478
-0.584675
-0.500891
-0.527495
-0.366731
-1.08154
-0.682784
-38.0164
-0.524869
-52.0787
-3.99197
-22.9683
-32.0261
-27.3362
-54.18
-36.673
-38.1894
-37.1147
-42.6639
-0.674591
-52.7588
-36.568
-25.5094
-2.907
-37.5742
-39.4475
-49.9552
-52.2794
-52.7687
-34.7447
-34.3792
-42.4211
-1.50216
-1.74028
-36.6466
-53.4131
-37.46
-26.4415
-37.7625
-37.7825
-39.8448
-5.44712
-1.04174
-9.53825
-6.35055
-4.30691
-5.12499
-51.9778
-6.59891
-53.5766
-44.6105
-46.8421
-48.9976
-51.6814
-39.9307
-38.0309
-46.5979
-38.5375
-1.854
-0.832045
-34.739
-24.3234
-48.1308
-39.6822
-33.3855
-6.84542
-18.7294
-7.89667
-26.4077
-24.2108
-22.6002
-21.5627
-10.968
-20.9432
-23.9467
-50.7417
-49.4472
-26.4719
-49.5001
-50.8447
-23.5901
-25.3357
-44.1196
-19.8817
-46.5375
-35.0798
-11.8927
-10.2355
-9.7167
-7.82282
-5.51337
-6.0565
-4.66567
-39.9405
-17.6574
-17.842
-4.50485
-5.10223
0.177806
-3.39103
-16.703
-17.163
-18.7518
-41.6086
-37.1778
-36.8586
-43.1779
-40.0614
-13.9441
-3.77602
-38.661
-2.6035
-30.7757
-32.0732
-35.801
-20.5159
-18.7835
-49.128
-51.6981
-50.6565
-44.4481
-23.3799
-49.8607
-19.3235
-53.0084
-26.4694
-32.037
-35.5789
-37.9653
-40.4239
-45.4185
-45.588
-31.3571
-47.441
-48.3802
-34.0177
-31.7454
-40.3304
-5.75944
-49.4211
-43.9868
-30.6406
-19.2848
-45.062
-40.274
-25.9575
-12.9673
-29.5793
-37.9005
-44.2952
-7.71522
-23.2447
-29.8608
-20.0205
-15.5376
-10.1095
-50.7597
-32.3777
-7.88096
-3.01887
-33.3824
-9.52995
-38.5644
-24.3588
-33.8198
-2.56815
-22.7327
-51.1973
-46.1627
-10.7002
-27.4409
-6.363
-4.69082
-15.092
-7.65268
-2.0654
-2.48432
-1.95041
-12.3863
-7.49337
-14.1188
-11.2108
-28.0749
-37.4215
-48.0366
-43.7653
-24.151
-26.3181
-31.4094
-43.7117
-44.8908
-38.5763
-33.1314
-23.4586
-2.11575
-4.33584
-11.9168
-17.015
-5.08028
-4.14875
-26.0113
-19.7298
-17.102
-25.6233
-51.7904
-53.6031
-39.048
-36.6326
-43.5109
-21.3276
-11.2075
-21.8884
-28.6154
-34.5569
-26.8286
-31.5151
-39.1469
-35.4825
-37.3694
-12.161
-36.5293
-9.56449
-9.50536
-12.9425
-10.3355
-21.9719
-10.4589
-24.7533
-47.3372
-52.1627
-51.0559
-26.0256
-23.6371
-26.299
-26.5639
-18.8882
-5.47264
-17.4632
-11.413
-6.5469
-7.05513
-27.9486
-23.324
-39.9647
-40.4759
-7.79818
-28.1735
-34.2357
-9.84056
-38.9306
-39.2941
-17.9812
-5.95188
-41.5496
-23.2104
-9.98129
-21.5694
-4.42616
-49.9086
-53.0394
-33.4869
-46.4747
-5.71123
-26.9979
-27.1158
-15.3988
-41.1334
-2.74586
-52.1372
-42.735
-36.3391
-36.9681
-37.7984
-25.8126
-36.2587
-36.0905
-54.3442
0.16376
-4.04174
0.151816
-2.15025
-2.629
-16.6758
-5.3575
-1.42462
-2.0003
-3.0227
-27.9215
-24.0929
-22.8546
-45.6321
-24.9677
-48.7688
-40.506
-42.4589
-45.8859
-31.4148
-24.346
-8.97751
-12.0279
-10.5416
-38.0139
-21.0274
-23.4718
-51.0456
-21.2919
-26.183
-3.41118
-3.50349
-6.47347
-2.74033
-7.86601
-7.98825
-5.33832
-39.905
-38.7538
-38.0856
-45.0456
-0.87724
-4.50144
-23.2482
-42.1076
-17.2543
-23.9175
-40.6875
-20.5974
-5.90398
-19.0747
-14.8534
-43.3954
-44.5944
-46.7567
-40.966
-42.4492
-19.9074
-21.7642
-21.0748
-21.2319
-18.7811
-31.7193