/*--------------------------------*- C++ -*----------------------------------*\
| =========                 |                                                 |
| \\      /  F ield         | OpenFOAM: The Open Source CFD Toolbox           |
|  \\    /   O peration     | Version:  2506                                  |
|   \\  /    A nd           | Website:  www.openfoam.com                      |
|    \\/     M anipulation  |                                                 |
\*---------------------------------------------------------------------------*/
FoamFile
{
    version     2.0;
    format      ascii;
    arch        "LSB;label=32;scalar=64";
    class       volScalarField;
    location    "0.0441308";
    object      k;
}
// * * * * * * * * * * * * * * * * * * * * * * * * * * * * * * * * * * * * * //

dimensions      [0 2 -2 0 0 0 0];

internalField   nonuniform List<scalar> 
47425
(
0.327515
0.356744
0.330811
0.331083
0.493768
0.339356
0.451354
0.343396
0.366895
1.16735
0.349853
0.343272
0.387883
0.331013
0.328575
0.347765
0.329596
0.365095
1.09909
0.551817
0.336163
0.333582
0.343851
0.333727
0.334795
0.325829
0.322674
0.867682
0.321137
0.327963
0.34139
0.336981
0.356279
0.327815
0.328213
0.341785
0.331698
0.363403
0.330617
0.335098
0.375032
0.442969
0.734092
0.378418
1.0062
0.36898
0.344824
0.351442
0.32884
0.326527
0.827676
0.611237
0.323918
0.910359
0.38178
0.369992
0.326808
0.325978
0.460359
0.334103
1.02626
0.835317
0.87166
0.351715
0.364469
0.333325
0.344573
0.373338
0.848744
0.344194
0.327101
0.32534
0.328221
0.335671
0.897351
0.368715
0.880074
0.331665
0.895165
0.555274
0.925758
0.334904
0.335929
0.349583
0.327981
0.337603
0.324963
0.324951
0.554801
0.656255
0.337907
0.354904
0.332281
0.376596
0.388737
0.373122
0.327993
0.324638
0.325242
0.372288
0.340537
0.460516
0.335593
0.481555
0.33016
0.370681
0.326878
0.332064
0.34222
0.340406
1.00724
0.337372
0.421157
0.35925
0.349505
0.856182
0.34623
0.673719
0.356016
0.352953
0.332574
0.362722
0.347979
0.369145
0.361842
0.405633
0.339687
0.364896
0.361976
0.33098
0.337197
0.347852
0.537761
0.365974
0.436518
0.366903
0.338228
0.411965
0.330813
0.328928
0.355096
0.386062
0.347547
0.465364
0.35007
0.366229
0.453885
0.343433
0.373026
0.362179
0.464553
0.821388
0.36037
0.836716
0.359204
0.342487
0.366198
0.954338
0.370365
0.349545
0.358505
0.328488
0.327344
0.334834
0.760274
0.882264
0.343594
0.906987
0.34973
0.897561
0.917792
0.366022
0.354111
0.346436
0.367807
0.408184
0.876072
0.320937
0.326256
0.329528
0.870023
0.323542
0.322265
0.331713
0.327674
0.34131
0.331657
0.453323
0.361637
0.323241
0.358051
0.324224
0.450959
0.365308
0.332881
0.340298
0.360557
0.344707
0.352075
0.314627
0.349953
0.367824
0.335274
0.343006
0.362559
0.377982
0.321053
0.338806
0.35855
0.36198
0.323326
0.328345
0.35303
0.324174
0.330403
0.334772
0.322952
0.608441
0.366048
0.363185
0.580365
0.304399
0.553784
0.321939
0.400659
0.558182
0.330696
0.344857
0.37225
0.407911
0.322064
0.339409
0.365596
0.369379
0.375548
0.339381
0.595713
0.355107
0.559475
0.372224
0.345168
0.322979
0.328802
0.336736
0.329927
0.362674
0.327697
0.358011
0.325941
0.328979
0.329306
0.539621
0.334232
0.3657
0.337149
0.32675
0.332386
0.376138
0.327207
0.357686
0.392035
0.353428
0.330258
0.370131
0.398616
0.365236
0.330106
0.396031
0.325417
0.341827
0.333931
0.543575
0.591048
0.326803
0.534324
0.38135
0.535349
0.485417
0.57594
0.574742
1.09627
0.32575
1.03442
0.379131
0.336062
0.320834
0.367502
0.336274
0.374757
0.361119
0.801557
0.347887
0.371308
0.325246
0.327927
0.348203
0.351801
0.327624
0.335553
0.383811
0.356589
0.327565
0.348567
0.325669
0.88018
0.888132
0.852668
0.328935
0.32553
0.3308
0.34274
0.831721
0.339073
0.346338
0.603609
0.363415
0.357193
0.380446
0.33668
0.656312
0.579468
0.337296
0.329962
0.322649
0.355575
0.325765
0.330059
0.325823
0.324791
0.326688
0.325323
0.844431
0.350274
0.329874
0.383996
0.329798
0.83751
0.340161
0.326186
0.328841
0.335757
0.335357
0.324952
0.334601
0.326234
0.328232
0.326502
0.336366
0.33092
0.360372
0.33745
0.334561
0.339719
0.336896
0.338075
0.368746
0.342422
0.333928
0.336876
0.360556
0.384506
0.366402
0.348868
0.340822
0.326838
0.337602
0.379137
0.358579
0.342775
0.33689
0.375426
1.22462
0.325055
0.343089
0.385671
0.34128
0.420932
0.370916
0.364467
0.332165
0.357753
0.339828
0.324311
0.355405
0.363497
0.364535
0.343442
0.334771
0.350286
0.341607
0.338806
0.342913
0.347016
0.327085
0.334137
0.336783
0.334722
0.339944
0.417058
0.325508
0.686967
0.328399
0.833992
0.353244
0.377969
0.369365
0.32739
0.363204
0.323824
0.351776
0.339656
0.641833
0.876678
0.325599
0.358249
0.327977
0.326827
0.337038
0.337875
0.324512
0.367387
0.34218
0.32737
0.327944
0.332294
0.323632
0.459851
0.326242
0.337863
0.526357
0.59107
0.330616
0.664076
0.60293
0.367169
0.596007
0.796668
0.327791
0.326044
0.327625
0.325755
0.815915
0.354696
0.327549
0.329576
0.331784
0.332148
0.33749
0.330426
0.745582
0.794742
0.539734
0.35648
0.428281
0.48959
0.330721
0.336039
0.376802
0.33457
0.355479
0.363132
0.377806
0.333313
0.369614
0.33147
0.328887
0.356287
0.341003
0.333546
0.331234
0.3491
0.357708
0.377562
0.357579
0.327347
0.363601
0.336936
0.779627
0.368002
0.421265
0.346317
0.372017
0.794162
0.355161
0.328283
0.357616
0.351318
0.334742
0.35458
0.368729
0.318454
0.349169
0.324352
0.348005
0.47078
0.323884
0.37106
0.332386
0.383218
0.327212
0.32788
0.327968
0.330455
0.343405
0.348483
0.330872
0.324773
0.330717
0.343373
0.344492
0.354824
0.353855
0.32705
0.333293
0.320652
0.321108
0.333479
0.353761
0.330422
0.357502
0.363327
0.375411
0.806186
0.337518
0.332142
0.350212
0.365741
0.474531
0.478647
0.356882
0.329538
0.359943
0.449951
0.33554
0.488999
0.362436
0.607734
0.372208
0.373298
0.328846
0.479722
0.331506
0.333226
0.340512
0.331586
0.324584
0.322697
1.03006
0.330226
0.379848
0.330237
0.457481
0.327559
0.328004
0.437345
0.426352
0.338416
0.327
0.301647
0.325698
0.332891
0.325491
0.326819
0.328736
0.397926
0.469227
0.347534
0.328142
0.340181
0.330557
0.550861
0.337621
0.333012
0.274979
0.337362
0.326857
0.375527
0.781307
0.338686
0.228806
0.249548
0.322983
0.348186
0.324999
0.331813
0.369863
0.361055
0.795554
0.334627
0.364148
0.326215
0.471736
0.393185
0.370371
0.335633
0.870787
1.85239
0.331774
0.342261
0.333207
0.339554
0.377025
0.3898
0.335166
0.346369
0.378981
0.317789
0.361645
0.498911
0.364129
0.330982
0.505265
0.356631
0.331557
0.347253
0.353321
0.32476
0.361992
0.386678
0.386551
0.346256
0.332891
0.32919
1.04249
0.342951
0.409882
0.83435
0.809219
0.329449
0.371596
0.78025
0.36507
0.445071
0.778607
0.376812
0.845809
0.32718
0.330336
0.35535
0.52625
0.381599
0.37559
0.325376
0.379884
0.329988
0.334765
0.329685
0.357655
0.349379
0.745355
0.739406
0.357842
0.36602
0.359428
0.342709
0.379711
0.352079
0.352778
0.360655
0.34499
0.347462
0.366624
0.355422
0.326117
0.419078
0.377943
0.841883
0.578451
0.359361
0.336409
0.365175
0.328901
0.868801
0.332932
0.884015
0.366031
0.454864
0.364443
0.342837
0.344658
0.319603
0.382539
0.333216
0.321277
0.399401
0.405772
0.368562
0.413417
0.364189
1.31899
0.364961
0.382323
0.392775
0.363694
0.325392
0.374826
0.338793
0.411439
0.343359
0.339752
0.379533
0.34115
0.345314
0.333009
0.33038
0.504075
0.582294
0.327793
0.465072
0.328246
0.346067
0.324441
0.326523
0.448078
0.31912
0.329802
0.336733
0.327662
0.702654
1.16511
0.339123
0.339174
0.328095
0.353963
0.322456
0.347044
0.351724
0.580908
0.345469
0.328178
0.34176
0.328867
0.33131
0.33346
0.32634
0.332989
0.33072
0.32505
0.353586
0.574758
0.327406
0.271574
0.634335
0.58049
0.250873
0.353702
0.852113
0.384237
0.361836
0.539056
0.310406
0.859679
0.349484
0.324556
0.477973
0.355683
0.592348
0.340941
0.359864
0.326633
0.332557
0.442389
0.365921
0.346584
0.363297
0.491681
0.399079
0.349003
0.378435
0.521002
0.496454
0.543746
0.92718
1.03015
0.657569
0.690476
0.363128
0.367641
0.329679
0.327404
0.35942
0.288922
0.353446
0.353603
0.363203
0.330511
0.29422
0.282489
0.327666
0.394412
0.344396
0.328953
0.379268
0.328455
0.331979
0.330189
0.359639
0.460981
0.327863
0.329297
0.326786
0.371041
0.362237
0.562411
0.467622
0.324558
0.360782
0.323916
0.329651
0.329627
0.364755
0.3696
0.559801
0.332218
0.328532
0.330314
0.420746
0.901901
0.343556
0.342904
0.432975
0.359754
0.344341
0.365335
0.350587
0.376811
1.19401
0.456628
0.867053
0.36686
0.420111
0.328513
0.410446
0.332059
0.352144
0.359422
0.334493
1.11595
0.468484
0.385446
0.513043
0.384798
0.324886
0.349164
0.425343
0.334016
0.365963
0.248286
0.330497
0.4156
0.381623
0.4034
0.754513
0.384305
0.381228
0.537512
0.332027
0.332459
0.462222
0.559432
0.345885
0.442232
0.484391
0.340347
0.34312
0.326661
0.351402
0.363941
0.361385
1.63724
0.767124
0.388576
0.54031
0.530177
1.44729
2.05466
0.556484
0.37175
0.360819
0.373578
0.37999
0.974496
0.330467
0.357189
0.372939
0.37552
0.353006
0.348897
0.366773
0.325834
0.391191
0.507652
0.363505
0.974946
0.32947
0.409365
0.376587
0.365721
0.357426
0.350439
0.374832
0.476893
0.375896
0.399426
0.497473
0.352835
0.331883
0.358021
0.453063
0.327261
0.416799
0.367137
0.384599
0.679965
1.05127
0.324982
0.363518
0.344292
0.361918
0.367818
0.709707
0.55647
1.4236
0.333247
0.393937
0.350184
0.817172
0.329587
1.29185
0.408089
0.3885
0.500979
0.631429
0.336354
0.322142
0.332315
0.349066
0.463789
0.34333
0.427331
0.801447
0.426614
0.325298
0.327174
0.715754
0.899572
0.53734
0.565059
0.934168
0.405755
0.370857
0.424365
0.328473
0.511461
0.378335
0.392839
1.38373
0.354305
0.326025
0.329298
0.357892
0.411519
0.381723
0.346192
0.345831
0.483054
0.330753
0.345558
0.329506
0.353137
0.377666
0.400773
0.369035
0.355852
0.339918
0.389777
0.331556
0.324803
0.335694
0.343057
0.403471
0.505886
0.35465
0.389778
0.327674
1.43406
0.386383
0.371675
0.345568
1.00155
0.68104
1.09056
0.315818
0.355456
0.360419
0.738478
0.359371
0.364295
0.407597
0.364463
0.365935
0.851142
0.372337
0.340251
0.370952
0.37836
0.327928
0.623542
1.01554
0.329772
1.00611
0.35228
0.694337
0.64512
0.329136
0.363902
0.375448
0.653992
0.356251
0.358364
0.362124
0.779715
0.466326
0.628266
0.327099
0.342098
0.326953
0.333847
1.11529
1.14122
0.363132
0.387995
0.403083
0.719621
0.335355
0.324631
1.35521
1.07561
0.358338
0.34144
0.923219
1.31337
0.895889
0.378522
0.697419
1.02591
0.786781
0.337229
0.480648
0.469269
0.351383
0.358029
1.15529
1.44088
0.390071
0.394934
0.350207
0.341387
0.366088
0.343107
0.519876
0.340486
0.36694
0.328768
0.348114
0.991461
0.918915
0.340946
0.614388
0.452618
0.334897
0.552938
0.323917
0.349678
0.331283
0.363385
0.395121
0.325787
0.768662
0.333548
0.894043
0.714051
0.738563
0.410665
0.419041
0.353358
0.36986
0.331106
0.577412
1.11315
0.363751
0.879512
0.557242
0.84411
0.499109
0.942645
0.747325
0.344689
0.330792
0.918631
0.342611
0.342933
0.33315
0.730419
0.708017
0.333019
0.356289
0.662196
0.444727
1.00414
0.827718
0.359952
0.491876
1.05478
0.356079
0.353099
0.739149
0.336082
0.789548
0.865742
0.337581
0.329589
0.340959
0.329133
0.380659
0.326329
0.334967
0.370664
0.376224
0.506218
0.372995
0.34346
0.529151
0.796767
0.858508
0.369126
0.367927
0.565818
0.341193
1.00239
0.345133
0.361561
0.363885
1.33657
0.351295
1.79161
0.388585
0.529425
0.374823
0.841917
0.65597
0.586064
0.444436
0.573214
0.393251
0.363543
0.415749
0.612642
0.500114
0.487591
0.811498
0.388178
0.475754
0.835828
0.375574
0.328077
0.78432
1.67007
0.330298
0.352997
0.359534
0.379491
0.873292
0.967252
0.32724
0.346545
0.359205
0.816172
0.356138
0.63942
0.401209
0.348131
0.35324
0.501831
0.38491
0.655975
0.631119
0.367282
0.403922
0.46471
0.342291
0.946073
1.40742
0.354221
0.893669
0.838425
0.376778
0.634383
0.36068
0.388569
1.01108
0.388277
0.98598
1.0822
0.350338
0.394708
0.450979
0.365364
0.353696
0.417267
0.517497
0.442294
0.339995
0.416864
0.344785
0.826912
0.417006
0.37445
0.383384
0.561138
0.330895
0.868611
0.706964
0.391326
0.808961
0.816368
0.326581
0.50621
0.571564
0.370088
0.368077
0.530069
0.730168
0.529671
0.78737
0.332807
0.79618
0.470089
0.326644
0.411889
0.38044
0.522063
0.363626
0.412011
0.645963
0.326505
0.622788
0.370338
1.35021
0.392121
0.321815
0.384064
0.555353
0.385814
0.69119
0.459135
0.346776
0.906093
0.328344
0.354967
1.14012
0.325811
0.38647
0.74306
0.361296
0.798754
1.38853
0.379891
0.432683
0.329083
0.923582
0.658206
0.783286
0.702391
0.435177
0.363851
0.458593
0.879251
1.11152
0.82722
0.358818
0.357726
0.365351
0.339874
0.382677
0.743636
0.357087
0.340601
0.363777
0.325731
0.350117
0.363632
0.343517
0.351057
0.369574
0.468333
0.331801
0.373656
0.59298
0.344312
0.329657
0.385404
0.373681
0.359681
0.326862
0.355144
0.352348
0.341257
0.376578
0.685741
0.350379
0.349809
0.330319
0.329682
0.55014
0.333707
0.334495
0.68238
1.21423
0.74397
0.341542
0.669231
0.508722
0.332856
0.64
0.460192
0.620335
0.365093
0.339118
0.358145
0.417445
0.335017
0.372211
0.388015
0.376593
0.330857
0.331406
0.371236
0.531827
0.362518
0.434766
0.884713
0.349061
0.688276
0.426813
0.878732
0.325487
0.372323
0.369096
0.328682
0.34262
0.368721
0.328708
1.15384
0.606564
0.884526
0.388182
1.07293
0.327412
0.349827
0.537994
0.331905
0.801788
0.424827
0.637053
0.321942
0.957552
0.949033
0.33908
0.325812
0.796849
0.344923
0.628502
0.330234
0.370476
0.331671
0.329493
0.333815
0.343633
0.351208
0.621645
0.41611
0.393335
0.356005
0.335937
0.333779
0.365367
1.11472
0.371556
1.70335
0.524847
0.331189
0.380916
0.350244
0.345898
0.346684
0.37459
0.352549
0.362927
0.341192
0.315927
0.365747
0.367017
1.53364
1.27782
0.372013
0.373845
0.910535
0.350069
0.327263
0.327142
0.326332
0.3656
0.380563
0.400116
0.380581
0.348582
0.327852
0.421708
0.326412
0.318432
0.341071
0.75258
0.393024
0.863085
0.782124
0.851891
0.341898
0.329362
0.323514
0.324102
0.329086
0.666886
0.343846
0.328617
0.347214
0.363585
0.32888
0.493113
0.326717
0.377741
0.469968
0.353892
0.326034
0.331968
0.34844
0.354503
0.330073
0.356586
0.337687
0.520257
0.332786
0.350714
0.389616
0.337629
0.340856
0.32806
0.352723
0.325845
0.376485
0.395671
0.32878
0.323339
0.328679
0.333725
0.330665
0.368849
0.327088
0.329371
0.328136
0.344008
0.874229
0.337459
0.450847
0.324821
0.328961
0.776776
0.342986
0.369985
0.324661
0.339064
0.361598
0.377275
0.770317
0.375472
2.23397
0.326731
0.335154
0.369095
0.330452
0.328429
0.383473
0.350858
0.329099
0.330224
0.989491
0.460245
0.691872
0.37809
0.592165
0.37254
0.321302
0.391302
0.926766
0.3678
0.332917
0.332146
0.812136
0.327767
0.339699
0.356227
0.347589
0.332407
0.817643
0.330453
0.348186
0.348686
0.347179
0.39115
0.955487
0.846552
0.3323
0.329854
0.330327
0.381874
0.360768
0.328143
0.825172
0.890521
0.326707
0.362227
0.792121
0.333918
0.612213
0.47525
0.327793
0.329105
0.332602
0.336332
0.642434
0.3535
0.347266
0.349373
0.389529
0.339954
0.361562
0.620721
0.362936
0.508132
0.527597
0.419296
0.61818
0.3675
0.387752
0.415562
0.3792
0.355942
0.349344
0.862467
0.626459
0.37791
0.376557
0.360726
0.368283
0.356792
0.411246
0.33359
0.325184
0.357312
0.350822
0.522897
0.451623
0.899275
0.741713
0.360485
0.377958
0.341334
0.343738
0.365146
0.330069
0.345097
0.32707
0.32901
0.38543
0.335058
0.330903
0.332436
0.649919
1.18576
0.373904
0.323491
0.467787
0.529607
0.858844
0.336893
0.786503
1.54568
0.687336
0.824413
0.426183
0.328374
0.326699
0.360675
0.890241
0.324938
0.372739
0.3541
0.327436
0.714504
0.663855
0.638176
0.345288
1.42029
0.325479
0.33383
0.363938
0.364035
0.788211
0.859195
0.258164
0.466112
0.285029
0.399045
0.33293
0.934202
0.353883
0.895064
0.372211
0.886578
0.358258
0.51494
0.413263
0.555123
0.380234
0.382908
0.483637
0.353284
0.355271
0.423763
0.404268
0.360792
0.345186
1.26922
0.69232
0.350002
0.643785
0.823934
0.629707
0.335941
0.332924
0.846848
0.72801
0.788612
0.334934
1.06975
0.333213
0.899949
0.767501
0.627981
0.684702
0.325022
0.38373
0.333641
0.340528
0.34547
0.539488
0.431377
0.327621
0.325904
0.368976
0.342824
0.327889
0.331354
0.486872
0.327884
0.322593
0.356085
0.334856
0.452633
0.350676
0.384376
0.376305
0.328295
0.452918
0.472417
0.32521
0.33055
0.508982
0.720327
0.350025
1.32826
0.373603
0.454198
0.748057
0.430592
0.357706
0.328177
0.521332
0.343894
0.323686
0.369124
0.340457
0.331789
0.3468
0.333044
0.326551
0.338195
0.355324
0.346043
0.377571
0.730298
0.338121
0.342865
0.34202
0.350086
0.449079
0.788398
0.352158
0.336194
0.353711
0.61287
0.435354
0.344175
0.35185
0.879778
0.368536
0.390637
0.375525
0.429512
0.357012
0.361697
0.350555
0.54787
0.3813
0.369115
0.955416
0.347245
0.400285
0.354282
0.367163
0.355932
0.392847
0.347002
0.339483
0.332715
0.3776
0.336215
0.361151
1.33086
0.333427
0.44452
0.376808
0.347567
0.697565
0.388105
0.391947
0.367882
0.614822
0.677424
0.359585
0.336125
0.396497
0.41341
0.364172
0.333057
0.826993
0.490804
0.397766
1.2859
0.408122
0.336948
0.542744
0.574326
1.20196
0.572693
0.411132
0.603654
0.357852
0.578769
0.498916
0.876418
0.375509
0.382588
0.339409
0.646146
0.377566
0.415899
0.346055
0.369345
0.368405
0.405339
0.654053
0.354522
0.373233
0.384144
0.531957
0.797338
0.438304
0.771267
0.379653
1.04271
0.373556
0.37469
0.838425
0.567435
0.73633
0.550965
0.695499
0.597566
0.335438
0.331688
0.325293
0.399433
0.371911
0.834064
0.37404
0.39872
0.330585
0.492111
0.365101
0.331254
0.900573
0.369526
0.536714
0.301145
0.410161
0.357865
0.366508
0.373214
0.395576
0.332484
0.323746
0.360049
0.413269
0.239457
0.238301
0.439502
0.380554
0.353669
0.439838
0.476459
0.383983
0.367901
0.375147
0.228223
0.393298
0.416311
0.2828
0.37556
0.82179
0.576424
0.350831
0.99388
0.393662
0.507593
1.18531
0.395416
0.377461
0.334627
0.806596
0.331958
0.327588
0.383891
0.377786
0.413161
0.35499
0.565146
0.364339
0.517061
0.332888
0.383603
0.373009
0.323536
1.09052
0.493398
1.07381
0.593061
0.32478
0.892723
0.506744
0.330286
1.98586
0.329752
0.326592
0.474686
0.488552
0.971682
0.717942
0.372683
0.722807
1.2492
0.341008
0.596055
0.974241
0.503963
1.3178
0.406321
0.339394
0.629841
0.708176
0.391273
0.968236
0.386614
0.358594
0.555171
0.387267
0.337146
0.371154
0.800411
0.75996
0.323876
0.550872
0.338765
0.382439
0.35787
0.380493
0.60522
0.454045
0.760061
0.351902
0.360724
0.746826
0.330513
0.347326
0.487716
0.335107
0.365072
0.945559
0.360212
0.925848
0.838201
0.843406
0.83306
0.37639
0.421805
0.3275
0.325571
0.444726
0.331664
0.332969
0.399986
0.337776
0.441028
0.91007
0.331956
0.541324
0.339631
0.494136
0.386527
0.889649
0.367946
0.478309
0.337605
0.344244
0.410473
0.333554
0.351631
0.340782
0.326212
0.565673
0.329515
0.379282
0.382555
0.345675
0.367602
0.366868
0.377619
0.700103
0.357913
0.332758
0.34297
0.415858
0.266079
0.680923
0.510654
0.687691
1.01245
0.429808
0.447282
0.149206
0.324564
0.919656
0.425266
0.552953
0.41139
0.764404
0.723789
1.29088
0.386084
0.35559
0.551985
0.98991
0.369759
0.320031
0.473412
0.351376
0.433467
0.428305
0.852819
1.27535
0.294169
0.400914
0.212423
0.355356
1.14746
0.349858
0.364953
0.336772
0.334679
0.473783
0.337448
0.623394
0.495667
0.332692
0.38618
0.334308
0.576154
0.662253
0.35
0.439091
0.387113
0.94636
0.463085
0.359424
0.551075
0.552575
0.325925
0.336255
0.363324
0.327671
0.673864
0.333263
0.460607
0.637746
0.340072
0.36668
0.335072
0.336301
0.574335
0.391551
0.547587
0.322846
0.324777
0.592688
0.876461
0.334381
0.350509
0.334063
0.331522
0.65273
0.45601
0.818894
0.36549
0.330584
0.473404
0.401216
0.366167
0.335652
0.393606
0.38146
0.570486
0.468227
1.35756
0.42392
0.440907
0.336162
0.37651
0.834035
0.982308
0.419743
0.930023
0.367941
0.958324
0.447523
0.755347
0.491635
0.526913
0.394738
0.346884
0.377943
0.431024
0.582056
0.361398
0.387939
1.0013
0.374565
1.96364
0.373446
0.350491
0.376939
0.568075
0.417
0.333891
0.836
0.328485
0.337829
0.325829
0.370442
0.869877
0.505194
0.34079
0.537743
0.349207
0.364286
0.335876
0.344266
0.43526
0.410258
0.425215
0.365601
0.336277
0.418267
0.358798
0.323773
0.425673
0.384955
1.15812
0.384938
0.477274
0.369221
0.420455
0.371853
0.442585
0.324885
0.37203
0.350117
0.356686
0.384299
0.838842
0.325663
0.623448
0.416425
0.391466
0.379803
0.371092
0.382567
0.455123
0.65318
0.334392
0.360489
0.364827
0.522062
0.398901
0.325562
1.20104
0.930762
0.656135
0.331391
0.333935
0.521729
0.354104
0.354154
0.5167
0.364446
0.346543
0.383874
0.997123
0.332495
0.592549
0.330897
0.344258
0.440903
0.346156
0.385551
0.476812
0.333834
0.596282
0.420431
0.421428
0.460949
0.948819
0.337844
0.360027
0.377956
0.409063
0.371323
0.371768
0.326809
0.326793
0.374495
0.593797
0.379091
0.373127
0.96412
0.37641
0.648491
0.358521
0.383041
0.409748
0.350638
0.725075
0.365206
0.502337
0.383864
0.355253
0.356746
0.403353
0.575307
0.466434
0.334905
0.635397
0.376982
0.829676
0.775713
0.9083
0.341816
0.473195
0.37775
0.257267
0.410161
0.289898
0.456366
0.240937
0.417189
0.723605
0.419674
0.636319
0.702109
0.377463
0.274095
0.398087
0.993366
0.537552
0.708731
1.28918
1.43154
0.586396
0.842589
0.340738
0.361891
0.764039
0.404446
0.921331
0.387855
0.7659
0.775293
0.352436
0.375727
0.344698
0.325015
0.365703
0.325809
0.742231
0.397035
0.373345
0.565804
0.339371
0.363642
0.322739
0.356889
0.361695
0.36769
0.400046
0.328018
0.422653
0.911463
0.326946
0.33664
0.355594
0.332096
0.733413
0.800666
0.40654
0.41798
0.56709
0.327846
0.321744
0.357346
0.379724
0.341733
0.34915
0.337016
0.330791
0.430033
0.327911
0.387128
0.347825
0.327022
0.333593
0.689316
0.34399
0.358214
0.329921
0.439391
0.361595
0.364593
0.730794
0.426882
0.358026
0.40072
0.355159
0.386373
0.394758
0.372729
0.341141
0.381687
0.368535
0.345304
0.372977
0.364807
0.44405
0.467674
0.347758
0.352866
0.414231
0.449077
0.496803
0.575724
0.867783
0.949625
0.354803
0.33614
0.907065
0.551042
0.576457
0.340917
0.330526
0.348678
0.325535
0.349268
0.334252
0.338634
0.368114
0.329722
0.33491
0.33301
0.34298
0.334262
0.542754
0.39283
0.360716
0.335144
0.340583
0.653482
0.326741
0.33553
0.409382
1.0456
0.56899
0.374255
0.362351
0.348944
0.384488
0.480482
0.729384
0.41891
0.344114
0.37127
0.343498
0.340164
0.38261
0.444343
0.371412
0.334883
0.41085
0.409074
0.645702
0.407973
0.741722
0.588442
0.394083
0.405361
0.342278
0.355494
0.380165
0.326955
0.338721
0.627738
0.343009
0.35818
0.72501
0.359938
0.375503
0.511834
0.413587
0.333124
0.361064
0.337533
0.369455
0.732079
0.35738
0.44454
2.19946
0.587375
1.1087
0.854959
0.345
0.354943
0.547156
0.329342
0.573781
0.510463
0.711984
0.369859
0.329518
0.768149
0.330067
0.565341
0.429429
0.337728
0.735437
0.859332
0.327112
0.338736
0.908998
0.327086
0.33046
0.329723
0.32878
0.357528
0.550543
0.589428
0.355828
0.816815
0.343884
0.353419
0.33366
0.889983
0.349101
0.933474
0.33079
0.369653
0.331054
0.448663
0.337951
0.522114
0.326748
0.657365
0.490766
0.492585
0.717857
0.347196
0.348559
0.853217
0.464793
0.358403
0.434558
0.637942
0.352766
0.442939
0.340222
0.614021
0.421151
0.335437
0.325513
0.474467
0.345637
0.397941
0.364082
0.327716
0.352265
0.331732
0.333597
0.348327
0.727897
0.339366
0.332827
0.331248
0.340783
0.332617
0.345202
0.332683
0.373174
0.435878
0.388427
0.386439
0.335013
0.303415
0.350584
0.39222
0.856082
0.342434
0.789558
0.339402
1.39716
0.382434
0.45192
0.381434
0.387208
0.387753
0.337549
0.324807
0.360707
0.364643
0.323726
0.344335
0.330957
0.698305
0.330297
0.345951
0.383184
0.884555
0.2248
0.353917
0.829145
0.837405
0.633186
0.569993
1.08874
0.177867
0.422736
0.361635
0.361845
0.398095
1.91984
0.577185
0.404539
0.33116
0.329068
0.777691
0.35872
0.578912
0.538815
0.38409
0.588974
0.377466
0.623154
0.335048
0.368954
0.351627
0.326935
0.395723
0.325035
0.360443
1.13094
1.13149
1.08236
0.464433
0.786875
0.348806
0.323023
0.327228
0.376475
0.329989
0.383241
0.336916
0.423745
0.382555
0.325752
0.328022
0.369611
0.327978
0.34758
0.36964
0.337391
0.369059
0.534899
0.348614
0.387706
0.831323
0.378659
0.720482
0.849486
0.365569
0.396743
0.327731
0.494706
0.375969
0.385485
0.660213
0.331739
0.397971
0.361442
0.382093
0.334917
0.339855
0.49407
0.538794
0.375515
0.367376
0.799726
0.401033
0.644778
0.597532
0.360554
1.07976
0.450262
0.394685
0.373163
0.351916
0.416258
0.369664
0.312692
0.336706
0.260376
0.599401
0.226737
0.345934
0.380075
0.440216
0.222268
0.79538
0.343558
0.371384
0.403856
0.30834
0.407466
0.685759
1.70701
0.377988
0.344422
0.368061
0.658592
0.333065
0.390119
0.380139
0.342261
0.360284
0.348476
0.560866
0.336106
1.64249
0.392542
0.959614
0.340838
1.14861
0.813618
1.09872
0.362232
0.350682
0.487545
0.376295
0.348709
0.371925
0.350922
0.819353
0.326615
0.483024
0.630347
0.326643
0.337431
0.336402
0.338932
0.362801
0.360622
0.403522
0.402746
0.372791
0.362538
0.410445
0.349238
0.455187
0.339899
0.376279
0.334939
1.28446
1.04079
0.385665
0.439303
0.327044
1.67249
0.323231
0.330674
0.3648
0.327479
0.382641
0.366029
0.328113
0.324611
0.350681
0.841941
0.622088
0.370891
0.813648
0.330202
0.361765
0.339139
0.35961
0.799905
0.391664
0.855471
0.325678
0.343494
0.809191
0.900388
0.351853
0.349184
0.657175
0.377086
0.378545
0.496863
0.397745
0.380008
0.431562
0.380056
0.323506
0.386549
0.361694
0.495181
0.329713
0.369401
0.327698
0.346382
0.78643
0.686204
0.340948
0.346016
0.353101
0.36396
0.343444
0.542305
0.346406
0.362017
0.390935
0.361025
0.456686
0.412142
0.503159
0.391334
0.322901
0.333813
0.329706
0.388424
0.320373
0.549481
0.449587
0.333675
0.733449
0.349826
0.32699
0.368823
0.331016
0.379667
0.652507
0.35161
0.445915
0.3708
1.01493
0.404259
0.388031
0.37473
0.725103
0.377023
0.549862
0.381478
0.416521
0.344261
0.425613
0.401358
0.722019
0.467009
0.363223
0.342551
0.338682
0.569373
0.355573
1.06704
1.52801
0.375917
0.436645
0.357521
0.488897
0.462273
0.397979
0.878525
0.494381
0.684514
0.331044
0.395949
0.965907
0.499569
0.365217
0.485876
0.344144
1.11049
0.399108
0.39086
0.339372
0.328884
0.332934
0.353292
0.329838
1.14078
0.334769
0.656509
0.330725
0.439832
0.408482
0.544995
0.352322
0.357245
0.345101
0.601098
0.477486
0.525153
0.330414
0.333539
0.465905
0.382417
0.370248
0.328212
0.327212
0.329265
0.347881
0.328376
0.385592
0.334568
0.571386
0.4411
0.954335
0.783382
0.635024
0.582058
0.40103
0.408006
0.325818
0.60955
0.339819
0.35281
0.339498
0.471265
0.508997
0.341294
0.434379
0.807461
0.496281
0.330577
0.329651
1.32193
0.842535
0.392571
0.885931
0.900058
0.660334
0.783022
0.597386
0.743098
0.414743
0.661315
0.80069
0.326986
0.333536
0.321629
0.47972
0.623955
0.342621
0.329996
0.412246
0.371883
0.391318
0.856737
0.495377
0.958763
0.356889
0.328157
0.345266
0.326321
0.371569
0.819129
0.604875
0.684318
0.760699
0.33196
1.00201
0.954303
0.329163
0.537628
0.484487
0.799816
0.37834
0.488987
0.793489
0.798366
0.480557
0.85169
0.519139
0.758003
0.374
0.354248
0.386241
1.06482
0.783405
0.402766
0.347926
0.576413
0.455602
0.598396
0.363847
0.387645
1.10683
1.32288
0.264395
0.329704
0.281615
0.328944
0.248624
0.397268
0.474831
0.628524
0.229977
0.448376
0.501653
0.156076
0.47022
1.56284
0.430447
0.395678
0.729144
0.348411
0.513694
0.340971
0.326349
0.344869
0.360032
0.809428
0.722718
1.1802
0.402512
0.401868
0.617293
0.389053
0.420235
0.418512
0.371305
0.347049
0.594044
0.37993
0.391727
0.33795
0.433042
0.416748
0.783034
0.486015
0.824556
0.961024
0.800492
0.373809
0.414282
0.731243
0.345395
0.575317
0.371474
0.402889
0.336203
0.826229
0.615903
0.525363
1.1983
0.627058
0.328082
0.448294
0.86525
0.839305
0.403456
0.362832
0.479913
0.937915
0.366137
0.331598
0.366397
0.351544
0.740441
0.350158
0.639575
0.91504
0.79649
1.48187
0.557881
0.477589
0.808109
1.18678
0.88011
0.608615
0.761607
0.913828
0.55129
0.394294
0.462712
0.356616
0.321255
0.333383
0.43578
0.540634
1.46431
0.368705
0.391676
0.405574
0.377974
0.452262
0.580727
0.486598
0.366533
0.383318
1.00679
1.11522
0.232295
0.405376
0.34377
0.379987
1.25189
0.825751
0.373581
0.618533
0.343662
0.405987
0.388365
0.590819
0.352919
0.353838
0.337942
0.399758
0.895046
0.46096
0.368257
0.839278
0.328143
0.914345
0.708935
0.47994
0.708806
0.378008
0.329231
0.336725
0.335907
0.366287
0.417892
0.339229
0.353405
0.339665
0.337348
0.534776
0.687733
0.752216
0.338993
0.489911
0.375821
0.405572
0.359066
0.660203
0.369201
0.35324
0.35097
0.327737
0.344364
0.343965
0.46987
0.32429
0.370393
0.383615
0.630883
0.341638
0.406753
0.503035
0.819792
0.900826
0.400003
1.12193
0.565211
0.384046
0.365675
0.544336
0.343168
1.32078
0.445978
0.331547
0.440704
0.537663
0.422407
0.475864
0.727167
0.762437
0.478014
0.825878
0.357261
0.327858
0.411048
0.331488
0.32974
0.425803
0.336721
0.33441
0.586969
0.330147
0.309612
0.886878
0.650702
0.328644
0.331023
0.77171
0.345912
0.341112
0.602469
0.33916
0.748654
0.423149
0.791201
0.336129
0.561992
0.459336
0.701137
0.338481
0.453554
0.336216
1.13922
0.364344
0.33132
0.805677
0.437188
0.513204
0.367538
0.385322
0.373715
0.338214
0.510049
0.337769
0.336019
0.320287
0.455274
0.565261
0.331825
0.341326
0.33343
0.333617
0.347232
0.94735
0.331219
0.462154
0.330819
0.600822
0.36291
0.382983
0.369948
0.483529
0.348706
0.448335
0.322667
0.349245
0.35282
0.368326
0.334314
0.447995
0.42747
0.89279
0.913041
0.812436
0.40679
0.359361
0.357257
0.328041
0.32986
1.02272
0.657096
0.41059
0.380905
0.323902
0.35052
0.325778
0.334406
0.539098
0.525035
0.778701
0.742449
0.385137
0.351975
0.432578
0.331358
0.62939
0.358554
0.456609
0.367284
0.373695
1.05218
0.433808
0.323881
0.346688
0.414904
0.330871
0.38843
0.330108
0.669668
0.387311
0.916906
0.49812
0.787898
0.335187
0.355745
0.37063
0.374511
0.3781
0.358329
0.328659
0.329167
0.336912
0.344101
0.355074
0.597007
0.393151
0.878145
0.431769
0.3357
0.524111
0.381695
0.361519
0.328682
1.0562
0.910665
0.33546
0.333312
0.337052
0.856923
0.363675
0.446539
0.388724
0.376713
0.294728
0.367836
0.366172
0.327637
0.428884
0.562219
0.961165
0.545572
0.45037
0.323897
0.413555
0.66515
0.364941
0.333523
0.84816
0.843664
0.465846
0.710504
0.33349
0.327078
0.417923
0.334528
0.868168
0.33371
0.331181
0.335647
0.694457
0.329101
0.373706
0.473844
0.481386
0.331474
0.347138
0.353174
0.346378
0.323859
0.358121
0.384058
0.595009
0.453451
0.374874
0.610712
0.367
0.638217
0.378794
0.916369
0.460524
0.382421
0.708066
0.314948
0.443394
0.545784
0.599078
0.41999
0.328465
0.333056
0.327542
0.369531
0.859598
0.380405
0.330975
0.361823
0.386577
0.329955
0.49952
0.358735
0.374329
0.476507
0.352983
0.333937
0.36861
0.360638
1.18269
0.890897
0.404502
0.362877
0.439064
0.360626
0.818494
1.04236
1.21037
0.797035
0.354019
0.351569
0.359764