/*--------------------------------*- C++ -*----------------------------------*\
| =========                 |                                                 |
| \\      /  F ield         | OpenFOAM: The Open Source CFD Toolbox           |
|  \\    /   O peration     | Version:  2506                                  |
|   \\  /    A nd           | Website:  www.openfoam.com                      |
|    \\/     M anipulation  |                                                 |
\*---------------------------------------------------------------------------*/
FoamFile
{
    version     2.0;
    format      ascii;
    arch        "LSB;label=32;scalar=64";
    class       volScalarField;
    location    "0.0441308";
    object      p;
}
// * * * * * * * * * * * * * * * * * * * * * * * * * * * * * * * * * * * * * //

dimensions      [0 2 -2 0 0 0 0];

internalField   nonuniform List<scalar> 
47425
(
1.33874
1.3457
-0.0106778
-4.23986
-19.6672
0.11115
-17.5597
0.021699
13.3247
-35.9779
-0.01235
13.898
-13.2646
-0.0224489
-1.45991
12.3041
0.0265811
25.0422
-106.951
-33.1179
3.80102
16.0288
-0.0504338
1.06685
14.768
1.10792
0.0919377
-41.3098
-0.0161854
0.290276
15.8397
12.7747
13.9835
0.347911
-0.00749713
0.0142646
16.81
13.7497
6.72854
1.33276
1.52755
1.08302
4.44051
13.668
-39.6507
1.25093
0.149527
13.5435
1.31134
0.552284
45.9832
0.846011
0.177005
-29.3444
1.16886
8.847
1.33364
0.14876
-12.4603
0.0710509
-30.9976
-32.0141
-69.1808
20.9225
13.1734
3.2003
14.0631
-1.21473
-47.8047
23.2061
3.50021
0.798085
1.47924
3.853
-56.0066
12.9987
-69.1182
0.194575
-102.187
-20.0499
-58.775
10.3149
21.3774
12.9267
1.90965
1.39396
1.29445
1.53976
-3.23588
-25.7187
15.1428
2.40577
0.502982
1.37399
1.42839
1.36406
0.408102
1.4423
1.53445
11.8085
12.6666
22.0251
9.57968
45.8072
9.46111
1.35452
1.47848
1.4225
1.86528
14.1309
-41.4669
13.5328
0.934505
1.44818
-0.19609
34.9406
0.142485
47.1034
8.13503
-2.3722
1.49919
14.0088
13.4592
-7.79208
11.5602
0.0915729
1.43105
13.0707
1.16819
0.53345
21.9904
1.09396
55.9489
8.10826
1.50649
-9.77364
2.23939
0.0504881
11.5273
-0.286933
14.0464
-6.56758
6.22593
0.438792
11.5831
13.1214
-17.7018
13.3106
6.24517
13.9502
0.94757
38.3778
13.3474
-6.53719
21.5139
1.17574
2.24796
-120.865
1.30341
0.342795
-1.4374
1.05495
0.720805
11.2263
-50.1421
-87.4367
13.3359
-55.5931
0.77763
-45.1527
-56.73
0.622665
13.0892
18.6774
1.37412
13.2815
28.8834
0.0539931
0.025545
0.375581
22.7943
1.32785
0.0585693
0.0727649
0.184138
12.7731
10.627
50.503
0.385363
1.3715
13.8993
0.436629
-11.5228
14.1178
0.441917
-1.13944
14.0982
0.97895
-1.82726
1.45833
0.321304
1.33031
1.93552
-0.720882
9.21908
2.16813
0.00351468
-0.349102
12.751
13.0169
1.39962
-1.211
13.0559
1.09509
1.61642
-2.42766
2.11563
-20.422
21.5125
13.9433
-22.2993
-2.92317
4.35743
1.9236
2.5708
-20.1126
0.43243
-1.99699
-3.50316
-8.33516
2.61976
0.22072
1.37924
13.7633
0.120722
12.7353
-24.9814
0.722984
-22.5392
0.0550676
0.157932
0.464554
0.519151
-6.64562
8.22705
13.0068
1.39378
12.9022
0.811055
-0.0410971
1.1571
-18.0417
0.0311099
14.082
0.236926
0.226152
15.348
0.325253
7.38211
12.9478
0.27635
13.5838
10.0953
9.92787
-9.13493
1.42891
0.0963107
-9.03419
0.272803
10.2412
10.683
-22.5046
-24.9015
10.6014
-20.0783
10.6151
-21.1159
32.3918
-23.1986
33.4716
-29.9544
1.45944
-35.0067
0.716784
0.720749
-2.4945
0.666336
0.0672021
1.61867
-0.0351958
56.351
19.9704
13.1987
0.0421536
0.0989665
11.0435
-5.60221
10.596
13.4349
-8.57902
1.44874
0.985468
0.245187
0.154147
-58.6416
-71.206
36.7593
0.435859
1.07021
11.5835
11.5387
48.7094
-0.0466094
0.0922919
-13.0949
1.42526
0.501336
0.429593
0.119412
-37.1775
-12.9466
12.3059
11.9239
0.0589131
1.21645
0.0787123
12.1579
1.27652
0.70952
0.240776
-4.85526
-63.6972
6.38266
0.127702
13.937
0.0370222
-62.8291
13.5527
0.755754
0.820607
12.3032
12.062
1.36252
13.9178
0.622645
0.0436715
0.190137
16.4935
-0.0759889
0.171294
12.5438
7.80745
12.7772
13.5357
13.0102
-2.60933
0.407924
20.7128
13.3495
13.271
19.0371
-3.27264
1.01614
0.121149
8.71174
1.25018
0.153042
13.3607
13.6581
10.1527
0.212278
-40.5374
1.35161
11.1804
13.1331
11.0546
-0.415383
12.6767
13.0021
16.4159
12.9194
10.9967
1.01441
13.4968
1.21263
13.5192
0.0402134
10.5241
13.9981
0.105278
6.655
7.93091
-0.0294837
7.14653
0.579523
7.23597
13.8195
-0.00462149
-12.9783
0.33176
-26.9032
0.464498
-35.179
0.216448
3.10319
0.23788
0.278062
-0.00610037
0.170702
0.233512
8.01971
-70.3526
58.5046
1.0247
7.48988
5.3513
3.8993
0.922474
0.0696853
0.545229
0.173581
0.699343
1.55163
3.77022
0.0257236
0.0793919
-4.9727
-3.61772
-0.844387
18.2001
-66.3569
1.25967
28.1278
-65.1822
1.68655
-68.8787
-30.4531
0.859576
1.06538
2.01329
-1.72206
-72.156
1.27285
0.940503
0.507282
-2.18202
-0.00998883
1.11561
1.27767
-21.4063
-68.8332
-23.8486
13.8194
20.7019
-1.15948
1.12023
1.32132
-10.5997
1.59517
13.7968
14.0588
14.0792
7.32449
13.9901
0.840415
11.1354
0.21052
-0.273683
0.567327
0.529145
13.8478
13.9813
12.9323
8.65645
11.9095
1.11954
0.59087
-21.2357
12.8699
-11.7534
14.0152
-0.490409
0.203175
13.5296
0.957986
11.8921
13.3541
12.9169
10.0883
0.582817
0.678975
12.1884
1.52013
8.56823
22.8956
0.901462
14.2203
12.8635
15.8979
1.37163
0.393829
0.978376
0.156047
2.93702
0.0417693
0.11163
1.01114
1.27107
0.0218616
0.146339
-0.0230175
24.702
0.0101282
1.63156
1.44319
1.08663
0.0111637
0.137458
12.0361
8.56705
13.0867
13.0913
46.2573
0.0719772
0.0324307
13.3334
13.5585
-19.9292
-23.6813
0.216979
1.36814
1.34245
-7.68821
12.7211
-25.7559
13.983
-34.8878
28.0026
19.9717
0.183894
-20.0304
0.220779
1.27982
0.326212
1.82521
0.136114
0.860895
-66.0613
0.273388
-0.021627
0.331088
-18.8857
0.902157
0.102471
-18.9016
-14.8773
0.129757
0.208192
-29.5459
0.461702
0.491754
0.113695
0.420488
0.312535
-10.5391
-9.04949
20.0225
1.64131
1.4224
0.0583853
-27.0156
19.4902
1.59678
-29.4194
0.108324
0.23832
-30.6853
-37.4688
14.7066
-29.1168
-29.1449
0.246306
13.8984
0.115184
17.7097
12.957
0.112924
-45.443
12.363
0.0712789
0.732082
-16.6619
-9.93131
13.9782
7.40595
-57.27
-27.5674
2.92547
0.567929
1.21544
4.33232
0.59292
0.560398
12.9934
8.90984
13.979
-0.442504
13.0861
-24.6962
6.72045
4.93676
-26.4985
11.577
0.59472
7.55798
11.0433
0.619298
13.3587
-0.659573
30.709
13.1004
0.262964
1.49121
-91.6773
9.04528
-8.67512
-38.9407
-40.5827
0.283404
1.58311
-41.6601
-0.0242463
6.19465
-16.3739
13.4209
-36.9354
0.238859
0.219859
13.1927
-32.2026
14.0622
14.1374
0.420932
0.128585
0.937588
0.0125443
0.861732
1.07807
0.517672
-30.4745
-35.2995
2.7319
13.7325
0.245991
18.6844
12.4034
14.0488
14.0528
14.107
14.0429
20.7914
2.60504
13.9829
10.2557
-7.8733
0.09872
-73.3919
-24.8711
-0.0589685
19.3964
5.70491
0.18952
-76.4692
0.0138215
-56.7099
0.273546
-10.1398
-11.6479
0.725732
14.3218
10.1191
27.6881
0.412377
0.66214
1.2902
-13.0924
13.9084
-14.3162
1.44505
-76.7245
-10.0522
1.30037
-12.3689
14.0047
1.12683
6.58564
1.36122
-13.6395
13.8797
12.7523
-13.0354
0.332574
1.34901
0.168787
0.826651
30.6856
29.3486
16.6352
17.5734
0.142402
-0.0223412
3.84293
1.39902
0.549532
0.184633
1.22472
0.152307
1.19028
32.9479
-12.8699
0.110726
12.8121
1.08991
1.04436
1.3481
0.0425451
-1.8623
-21.3153
1.29367
0.226139
0.0835561
1.00454
15.9493
0.0552913
1.29591
0.844891
0.764525
1.20271
19.7417
37.7039
0.980109
-28.9406
-5.55344
-29.1107
-28.3678
1.27749
1.98558
7.13013
0.0876332
44.5325
-30.1333
56.7379
-7.72144
2.21039
-14.2374
0.44857
58.4832
3.77263
1.51479
1.30706
0.258172
-8.17939
1.64074
1.21325
0.995596
-32.867
27.307
13.2905
13.5668
46.7256
42.9841
-12.9719
-55.3049
-17.6572
48.5968
45.6122
13.4482
0.618424
18.9638
0.464573
7.41001
-29.3799
2.98917
6.53816
7.86781
0.290786
-31.0294
-31.4451
0.154234
6.66775
0.684394
0.472347
7.82744
0.305643
17.2041
0.0831443
0.61881
33.9027
0.262087
-0.0506415
0.0737426
0.536545
0.193121
53.6212
-18.2738
0.0362757
6.71793
0.644769
16.8529
17.0972
-13.3397
0.542655
-32.7935
-14.3471
7.04546
3.36721
25.8397
-53.226
0.0488847
0.112714
-9.4998
1.28379
13.5911
3.84038
-0.0291967
14.1539
-42.8417
-16.9126
-53.2453
14.1232
28.1742
0.199161
-9.59068
18.4186
-13.8511
0.0662938
20.0121
-46.0453
-11.7686
-14.9416
-33.1339
-13.2601
1.28114
0.0434288
-11.1234
0.125253
-15.1266
-29.031
0.0346844
-18.3191
1.1193
1.05666
-38.1729
1.17685
1.40534
14.8029
16.7712
13.1501
-21.24
-3.37076
1.08984
-12.252
49.2075
0.786118
15.6052
1.3755
0.830806
1.15638
1.20015
-28.6907
-72.0972
-9.47141
1.93879
-15.6516
-15.3472
-21.0109
2.08513
1.2752
13.6574
13.8529
1.35802
-9.81088
17.4848
24.6218
13.7171
-29.2985
-14.7021
2.64583
1.24621
0.4844
1.19723
34.463
13.4659
-12.1316
0.306538
5.90126
13.5746
13.5563
13.4378
13.2358
13.7893
-21.8105
-5.16755
23.8094
25.9767
17.9227
8.12094
-1.2067
37.1962
1.27151
-6.93277
1.13717
-13.6551
-10.3028
-3.2204
0.633975
13.7995
16.3393
13.5918
1.36911
-44.9707
-26.9874
-41.3805
11.1223
-7.92122
7.42476
-33.402
1.44471
-43.7292
1.40651
1.39959
-4.72959
9.37062
1.44096
11.3479
0.319435
4.94219
-6.5159
0.971447
-0.056621
-25.176
-9.16703
0.130563
18.1139
51.8857
-63.5334
40.5779
-23.2634
-55.9559
0.275294
1.07331
23.3483
0.516131
53.3152
0.47827
0.288101
-70.527
15.0827
2.85943
0.298423
13.3877
23.9747
11.8763
0.826872
13.5763
-15.8607
10.5876
14.3166
14.5452
14.0122
0.856697
-11.1225
-7.35578
30.2288
14.7942
1.11341
11.4928
0.639146
0.684467
8.31697
-8.86604
-5.90475
-8.36198
-8.14652
12.1193
-41.1095
0.73723
0.674149
0.757798
-67.3429
-62.9712
-18.3355
-28.2451
1.25565
-1.21885
-36.6401
-30.2194
-4.35316
10.5633
0.878201
1.76931
-35.5807
4.99168
-0.413257
0.919458
11.1592
1.91008
34.3598
-106.011
-13.4923
-28.0022
1.0087
56.4741
-68.7985
1.52529
11.863
3.34337
-34.6379
11.9111
-4.08563
18.1403
-24.5825
2.73535
-25.4615
3.2129
-8.74108
1.48515
8.14384
-23.7833
-23.2749
10.9511
18.8522
-9.35315
-48.4122
10.2298
1.5274
-24.438
-35.1973
12.6385
9.36993
-56.654
-64.9237
-39.6108
11.1976
-5.09851
-15.9028
-39.9391
10.7544
26.0351
-20.9826
-7.27854
-5.22971
-20.9874
-37.6745
-4.1896
10.2175
13.1851
14.0542
13.6236
11.0357
-5.51136
13.8881
13.9465
14.6895
1.89703
-42.4395
-33.762
12.0085
41.4299
-16.8557
12.3173
-22.8532
6.6845
11.1823
-7.62135
-2.74682
11.4039
9.98514
-45.6225
14.3465
-30.6836
-71.4442
-37.4462
10.859
-9.07554
12.8079
1.63212
1.6379
-15.1822
-37.0232
0.993929
-37.8281
-25.2114
61.8785
-20.3698
-57.537
-26.3215
0.0843208
1.6125
-41.4637
0.95979
16.2632
0.110463
-47.8672
-37.702
0.0213924
1.71611
-32.4012
-16.4363
-42.7867
47.659
0.477734
-8.73612
-62.1941
0.254918
23.3308
-26.2749
16.0445
-76.3266
-20.9554
11.8271
0.326535
0.480112
1.36079
0.416982
2.10201
0.662358
0.485963
8.34097
36.6581
14.9791
25.9968
-23.6962
-9.07352
26.4399
-2.0324
3.50638
-9.29135
14.1673
-67.7497
0.947505
1.28091
0.96632
-35.3926
0.961435
-74.2178
1.14108
9.44775
6.9822
-72.9121
52.3206
-31.4385
-20.5853
36.6259
-2.30576
13.4319
-7.74373
-23.8958
-30.8006
-26.2578
46.5755
13.2973
-15.2319
-38.9771
-6.25348
-3.90944
-36.134
-28.5188
2.17561
-12.4161
13.1591
13.4452
-39.745
-52.1902
-0.469043
10.164
13.3077
-69.2112
13.4757
-17.8849
-12.2333
13.4179
13.7231
-18.9601
2.66033
52.1098
-16.4526
5.15777
31.5674
28.526
10.7783
-85.1864
-37.6145
-12.9914
-109.743
63.7299
13.7961
-32.7218
13.7877
24.8248
-83.5234
3.54277
-73.5725
-42.2347
-2.04583
22.2292
-5.23267
13.6514
13.6639
17.1324
-20.3893
2.68504
0.134428
27.6714
0.347645
-1.19213
15.4957
-11.3645
0.0760692
-15.0803
16.7189
-57.538
-33.9565
5.27151
-32.1186
-39.3193
0.110214
49.8496
-40.9121
-2.87034
30.8098
-8.58268
-12.102
-21.2114
-27.2016
8.3399
-40.8521
-18.393
6.77942
-0.554054
0.497992
-21.4642
-4.82471
26.4216
-21.1908
1.34744
25.3002
0.784653
-52.7428
0.249156
0.278704
-7.07188
-20.7357
23.0312
-2.16639
-10.5858
-7.57768
-75.7024
0.167749
-11.0253
-58.6396
1.03838
-7.41934
59.7017
-5.26915
-19.1977
-61.3479
0.141011
9.89471
-0.00772056
-122.153
-35.5756
-39.3804
-35.0849
21.361
-3.96809
-4.33579
-43.3698
-60.3048
-10.9829
0.584465
13.5124
1.18548
0.559119
3.23943
55.2224
14.026
13.1746
-6.48826
0.552804
15.958
14.1401
23.3588
13.7119
0.534508
22.9023
14.4492
11.339
-12.2858
1.55482
12.711
10.774
-8.79741
13.0179
0.526725
1.20445
11.6253
14.0715
13.7764
-71.0972
12.9988
19.1288
1.10269
0.265441
-26.1998
14.799
14.1157
-65.9661
-56.2591
60.0889
15.8041
-69.4131
21.3536
1.68274
-61.4249
7.23796
-65.465
1.15073
1.27002
13.5985
21.2151
11.5619
1.30798
1.15296
1.60194
7.95737
9.81848
1.14719
-15.6565
0.915501
-10.7308
59.8648
12.9942
-44.4733
-13.2824
-68.0717
1.12549
11.9358
0.195269
14.4957
1.47147
13.0961
1.24525
-39.6079
-22.1365
-37.597
-2.16422
-7.14525
1.35916
3.29369
-29.9425
1.61032
-49.4897
-0.182493
-44.1953
1.83059
-56.2121
-84.456
1.15172
0.0694468
-51.5558
0.281827
-54.0196
12.7085
2.1991
1.01324
1.26726
0.671864
0.162065
-9.97745
-25.1734
-5.65593
12.7852
1.3325
12.7596
0.911685
12.7058
-48.4862
10.5283
-34.4298
2.62004
1.24267
10.427
0.613153
10.4096
9.96792
0.17508
1.20547
13.6099
1.16419
-2.24726
1.27086
1.28492
-20.8899
-44.6687
-4.4643
1.15208
-40.8051
0.984214
0.638199
0.49493
0.466737
-0.00665852
1.30111
12.95
12.669
0.989627
0.758656
42.9496
1.35937
1.11741
1.48561
-42.9127
1.43044
-51.7078
-36.4052
-45.8616
10.8117
0.320226
1.44722
0.145675
1.07322
-41.9387
-9.22593
0.95379
0.95779
1.45669
1.53703
-30.6788
1.52533
-0.0148308
-14.0332
0.681966
0.519077
0.321467
0.534205
0.344847
0.345281
0.537018
-9.37129
-13.5649
-0.0310305
12.8436
-0.592235
-7.78734
-6.59249
0.660915
1.10977
-9.24646
1.493
0.174848
1.47167
1.07666
-8.56276
0.0186481
1.26418
0.638467
0.694472
1.6596
-4.67551
0.0599829
-51.1
0.714665
-15.099
1.47958
-0.00799093
-53.0584
0.0292006
1.05672
0.0571566
0.880735
0.882342
0.990268
52.1441
1.33786
-24.042
0.99489
0.245956
1.60364
0.882283
0.60677
1.30749
0.520432
0.833688
0.31357
-6.90362
-10.2183
-35.6987
11.2836
-10.5318
1.2646
1.31098
1.20079
-24.15
0.148809
0.19591
0.165392
-52.4686
0.130022
1.56897
-0.0580929
0.218979
1.7798
-137.076
0.0823355
1.39574
12.9478
0.0158503
-7.02164
27.075
27.6192
0.0475667
7.94348
0.175391
1.15662
0.564296
0.314056
-51.0257
-55.9889
0.115637
1.10064
-44.7868
-0.0590704
-0.649286
-20.8102
0.0618065
0.99383
5.51282
-0.139178
-5.19318
0.0387945
1.51186
20.1623
0.979476
0.00406696
12.9934
-21.5915
13.0429
-25.4289
-24.8108
-30.4663
-21.925
0.508007
12.966
-15.3089
13.1124
1.04773
16.9274
-33.4734
-23.6553
13.4125
-10.9083
13.3966
0.730736
1.43423
-30.9142
0.90686
0.460197
13.198
13.2105
41.8415
45.3147
63.6746
-18.3817
28.9282
13.4341
15.3875
23.5983
13.2807
0.740874
0.21119
0.471141
-0.0912793
-30.966
-30.0982
0.749049
1.87503
-0.806704
-67.5101
-2.0962
1.17467
1.18071
-26.0994
-52.1527
0.822245
-45.5848
-1.04964
-29.3641
-36.3603
-14.8989
0.273494
0.80032
13.922
-53.1743
0.256476
14.0236
0.588571
0.13179
-59.7117
-58.0529
-63.58
0.282745
-43.4477
17.1916
9.9938
3.27797
-14.0957
-68.8322
-67.4537
-27.8504
62.0259
-28.5487
35.2387
12.9269
-38.0852
13.5603
-55.8119
12.964
-51.6735
12.859
-23.8299
2.65215
-25.4816
13.4563
13.379
2.61351
13.2208
13.0947
33.6864
3.37046
13.3591
13.1056
-63.6449
-48.8435
-12.5374
-22.7219
-51.7852
-22.2308
1.24595
15.6311
-42.4996
-27.6016
-33.6606
14.4621
-65.5245
6.86668
-55.5565
-71.8799
-41.4979
-11.5233
15.9836
5.46092
10.0514
13.2805
1.76201
-28.4112
0.186908
0.670596
1.69296
0.199396
0.126902
1.26617
0.43334
-22.7659
0.299235
0.159222
0.465215
1.62637
-18.2145
1.13045
0.021776
0.271661
1.72008
-8.01538
-11.124
0.743301
14.3042
-27.8687
-71.4567
-2.89281
-55.877
-10.2894
-5.60253
-19.1006
37.7983
8.73378
9.0627
-5.9939
-0.00370162
0.140322
-0.342221
-0.0140664
-0.116195
-0.847815
0.0520288
1.80937
1.84441
11.9564
-6.05953
1.46766
44.9975
-0.0643768
13.332
0.0729909
0.00804416
44.5725
-52.1466
25.263
0.0265352
1.28073
-22.9812
-30.0639
-0.282312
1.46413
14.5694
-10.1797
0.533494
0.106663
-14.4427
13.2183
-0.0694966
14.7435
56.0022
1.39284
0.896233
-11.5484
-0.570327
0.949528
0.894426
0.961063
13.0144
13.0713
10.6759
13.2041
13.5707
5.30475
4.0624
-3.45502
-55.4297
6.09534
-6.49608
13.107
12.9892
63.7445
4.13305
1.5487
1.32932
-28.3206
-33.3033
5.17909
16.9507
1.26281
30.561
-4.72248
15.5805
-31.0089
48.9827
30.8366
-9.20379
3.22595
5.78822
-26.3239
-66.0503
-77.2306
2.35604
-9.40504
-68.1866
2.40364
-11.3807
-5.5258
-34.6529
-30.9066
2.17855
16.2872
-71.3501
11.3107
-5.8246
2.64654
11.4825
-2.17527
14.8266
-3.11099
14.7912
10.6812
-40.1946
6.99707
59.5334
-17.1443
56.6022
33.1806
-66.4404
14.1264
14.1645
-52.2095
-10.8292
0.192354
-31.5267
-22.0104
-4.71955
2.17585
1.94409
-31.6162
-1.73499
7.57096
58.776
-6.66542
12.939
-5.09958
-15.7751
8.31099
8.53663
-29.9617
-31.0462
-27.5362
-30.4322
0.630411
-14.8971
1.30917
-15.5363
-10.3366
1.78103
1.20666
-13.7449
-2.97253
-29.9128
-29.9538
-0.155636
7.9702
1.06787
-10.2348
-19.8419
9.85705
9.49972
-14.4548
-29.3236
9.95016
-6.30134
-29.8459
2.38234
-34.9291
-0.255486
-3.26455
-50.9463
2.37283
53.8532
-8.39331
1.51953
1.5042
0.721409
-70.9775
0.932158
0.956813
-4.20325
0.267868
11.4753
0.778209
-25.7586
12.2201
36.7723
12.7428
12.3394
12.1497
1.04618
-10.7985
-3.17148
-7.39599
-69.2465
-0.735479
-40.9072
-8.63943
-0.026389
-60.9899
0.0385458
0.834829
1.21766
-6.43531
-52.2791
-21.7487
12.1497
40.1727
-6.0056
2.06617
-32.245
-40.7391
-7.23969
-49.9604
34.9203
12.8807
-8.49625
41.688
13.0482
-62.6872
19.5445
10.8154
49.9947
35.2695
13.0786
13.1554
62.1497
-45.432
1.25007
55.2989
7.58788
13.1537
-8.15897
13.0655
-27.057
10.5631
61.0553
13.2218
13.368
39.7917
11.3714
18.6167
-7.99026
-2.01911
16.065
-45.0634
24.9903
-19.3662
-52.2284
-65.6777
-21.9049
13.4566
37.7916
15.0694
5.57394
10.0513
12.7157
13.2689
1.39926
1.37126
42.1347
-38.1107
13.1303
-24.3901
2.63247
9.36398
-15.352
-63.5792
1.40991
-14.0208
13.7165
5.75582
1.27388
11.5443
-6.86695
1.53021
1.341
-30.9922
3.45183
0.962008
-6.4142
11.3326
0.788911
22.5477
0.86058
-14.4689
28.6085
3.94392
17.3512
37.8642
-28.6964
58.27
42.7249
-28.2116
-55.5888
-29.5914
-23.4396
-28.4635
-28.652
-23.9201
-20.0698
-29.5749
-29.7337
60.7529
-0.566764
-55.3869
10.6162
-0.276965
-32.928
-60.2158
-5.32864
-29.3482
-14.5298
-28.0709
-13.0291
42.7441
-38.9225
-31.3489
-29.0712
25.4595
-28.5103
1.22678
-63.3406
24.2806
7.20358
1.29289
-0.421178
46.8408
9.08747
-26.8833
-11.1257
13.8493
1.26813
-5.54291
-23.3255
-29.2789
-1.20525
-3.10793
18.8243
-25.5008
-5.62899
1.40625
-19.8352
46.8314
-1.15924
6.24324
1.31474
3.73965
-37.2416
11.0575
8.5797
-3.84766
1.5167
6.17326
-0.679809
-1.31286
63.9953
3.93555
-20.7542
-4.96972
2.88522
-70.4136
-69.9266
9.79043
10.1011
9.2435
12.1992
-21.1471
-7.80719
58.744
-8.21389
11.9705
-18.8763
-1.68231
-4.72584
9.70337
-10.1386
9.70287
-17.7749
-30.2486
-41.9321
33.1683
-16.4522
18.282
9.94443
-52.7852
-63.0372
33.3422
-63.0674
10.3393
-57.0562
34.7524
-4.38749
21.0173
-13.1609
1.62861
0.337938
-5.71875
-11.5708
-36.3435
1.40633
10.4182
-90.2232
13.9723
-27.0225
13.834
-0.405205
11.2777
2.84176
0.536985
0.248875
-3.33864
8.21392
2.42962
16.3219
0.737821
-56.9144
35.4072
12.3141
41.6273
13.1987
1.27134
12.1465
14.0116
31.5337
0.853137
31.4458
1.5339
0.737514
-18.5721
0.959526
0.351615
-16.1582
-9.37405
-33.1101
-2.2399
34.7756
6.45476
28.9186
0.893808
19.3509
16.0435
1.07322
0.849817
0.446865
1.23229
59.0946
0.356249
-7.40051
-28.6543
13.3028
13.6563
16.5091
13.5075
-20.396
-28.2108
0.660553
-2.42032
-2.33906
-11.9115
35.2008
0.272423
-53.9161
-5.64946
-30.4685
0.990009
9.7644
-21.4902
13.3767
13.5202
-16.9101
13.658
1.38177
7.62107
-47.0803
18.5041
56.0355
1.04714
0.824633
35.5679
8.26315
1.92457
34.7137
8.69663
-11.5528
38.32
-13.7636
40.1828
-57.7548
3.35697
14.0431
0.480149
-6.70483
1.07858
1.03928
-0.0376744
0.26135
14.0514
-32.1761
5.40819
1.3488
-28.4979
1.31183
9.09182
13.512
13.6485
25.1698
5.27028
3.10278
-5.76657
0.9099
-10.4783
13.3134
1.48414
-18.5618
60.9229
-17.6206
1.51546
59.4853
13.5439
-67.7403
54.7976
0.70125
5.10509
35.4314
13.684
-28.4742
39.6847
-28.5582
-3.84416
-28.1539
-14.6767
-39.5753
35.3459
-3.61072
61.428
0.863267
-29.0001
-28.0366
-73.7053
-67.6674
-34.2257
-67.1737
-32.4366
-32.4955
58.2243
10.3962
11.4782
50.0953
24.5357
-41.2325
8.3428
-43.5888
46.4876
1.06239
11.7772
0.0363873
1.21656
0.757
0.82788
59.6003
0.945108
0.900801
13.8478
1.0483
1.00259
11.8206
-5.027
1.02728
-5.98213
1.08
8.06161
28.0556
-42.5577
1.11589
2.57578
-4.34651
0.975544
-42.2986
-37.2404
-19.6534
1.69794
40.3855
14.7133
-1.15509
-4.41856
7.31071
5.06249
1.06656
12.765
12.3546
-30.3843
1.08651
19.2642
-1.86722
3.79354
12.5745
0.174378
8.9751
12.9039
12.5636
-11.689
12.2611
10.5214
52.2183
26.9545
13.0736
24.092
11.9166
-0.0245419
12.4607
1.3078
-2.09162
1.3326
6.17158
-0.0168984
23.8925
11.9879
-15.0488
24.9607
0.198226
10.6714
29.4544
-11.7858
34.504
-22.699
-46.4516
-47.1914
1.12384
-0.0623792
-20.0269
35.494
-6.55889
-0.996527
9.70964
2.06385
0.276804
-0.0536583
10.3866
13.9412
30.3663
9.20266
2.33689
12.6791
12.2122
0.0827232
-32.8797
36.4392
-0.0358883
8.87384
-9.42595
41.9446
13.6972
11.3911
-8.45641
-44.3838
-67.9205
12.9834
12.9158
-4.52949
-8.80847
-6.90202
-27.1311
33.3121
1.40811
1.46808
-0.330404
0.327795
19.113
-15.96
0.393606
0.39571
31.8042
0.471557
-4.70786
25.8378
-31.6373
-22.8843
0.660965
-8.88119
14.8087
0.0157759
0.809637
13.4853
10.3259
-4.70651
22.0307
5.18125
-49.1072
0.884797
0.775605
-36.2686
-5.57126
14.6203
0.687829
8.66279
12.9962
61.988
0.769155
-8.35935
-41.7529
-34.7421
-79.4079
-54.4946
0.782395
17.5372
48.0383
-0.0409821
10.5277
11.5516
-39.5938
14.1779
7.09439
-35.1285
13.6313
22.3269
-14.608
9.95737
-37.2548
-64.5863
15.8075
19.9381
-48.2965
16.044
11.8779
3.63628
15.1101
13.4911
2.51783
-30.5136
-4.74762
10.0212
15.1417
13.4195
13.8386
5.27131
0.0369615
37.2573
0.0227143
-5.87495
1.27583
37.5623
13.5405
-10.6982
5.65027
58.6826
-20.6216
-25.5222
-44.9849
4.09489
-3.896
-45.4905
-16.1512
15.4603
-13.1978
-3.60884
0.0475337
-6.82182
12.9329
8.15001
5.54916
0.147612
0.316601
-16.8804
-2.94603
-9.97293
1.05531
1.1621
0.250619
0.863096
-4.10015
14.0864
-37.4234
14.41
0.831699
0.841412
12.569
12.3052
13.235
1.46898
0.896911
-6.27588
5.01883
0.888645
0.80958
-26.94
3.44125
-7.24069
-46.1894
-28.4437
-37.7811
15.3977
-48.0625
18.4793
-28.1293
1.32641
-29.5993
1.06658
3.25854
1.31942
-3.3187
1.28196
3.84235
-0.864339
13.4043
5.48023
14.7832
-3.46773
-6.73336
-67.6587
-28.9617
24.6252
34.3317
-38.8067
-28.4255
-30.2982
-65.2655
-28.6594
-6.28283
-29.2284
1.76249
1.7838
-57.7412
-69.403
-6.88485
0.899994
13.0133
52.7946
-2.92933
-69.4273
2.69652
5.69713
-0.762427
0.790498
-30.4275
1.63381
1.48231
1.37708
2.95151
7.92905
1.38562
1.06187
-57.93
-60.1776
-36.085
23.9563
-36.1943
13.3138
0.941494
15.2881
7.50961
4.96766
22.8915
12.8048
24.1921
1.24707
4.72175
6.24049
1.22505
3.13025
-9.79143
9.81762
14.3996
9.71816
43.0927
1.75818
23.3068
-52.4339
-2.97602
-43.5261
39.6572
11.4202
10.3075
7.04956
-19.0513
-8.11815
11.9195
-36.6959
8.42271
7.32419
-2.87383
17.6028
10.5097
-3.7945
-12.8041
-19.8336
14.0387
-1.54344
-48.6272
0.733849
-41.651
-34.4635
13.9197
-71.552
-3.99491
34.9083
-2.35781
13.8908
13.8607
17.5854
-4.41445
13.1664
-29.1824
-11.9249
-28.5929
-3.92844
-7.96531
18.5444
-28.7768
-17.6831
2.19338
1.61271
17.4513
-29.3806
8.87237
1.00393
-43.4987
0.735705
0.637822
12.6255
-70.2299
-3.77764
-0.0900957
1.24067
-0.506101
12.2246
11.5271
2.01198
12.2899
-14.8574
12.3269
-75.7745
12.617
-40.0527
-27.5308
-7.34607
11.0354
-6.04128
-0.399017
11.9395
-2.21015
1.19548
-6.34403
53.414
0.199747
35.6784
-5.75555
0.0889623
-2.53907
0.193346
13.4871
12.0222
13.2519
-6.70332
0.248164
12.7919
-2.28302
0.0120787
0.665088
-20.3784
2.63541
0.295565
13.5842
-37.1205
-39.8972
0.072328
-2.08278
0.73424
-31.5011
0.452095
0.38711
1.19209
0.309977
1.26777
1.2258
0.0439549
0.730531
12.3357
-34.5316
-24.7821
13.5756
47.1861
16.9073
13.3069
-0.0547176
14.0035
39.9231
0.0174107
35.906
1.48955
0.0459797
2.33748
27.9685
0.927117
0.0582037
55.2846
14.0896
28.0204
-7.24685
-11.3795
0.143404
-2.6698
-0.0517551
1.08931
3.18219
0.680865
51.3583
1.08843
0.611769
0.698525
12.8902
-35.8854
-17.9624
-2.77192
2.57873
1.30565
0.551652
15.6304
-25.858
26.5064
18.0767
2.18248
0.552589
43.9583
-11.9005
42.0128
32.7329
12.4043
13.4085
0.346695
-5.0955
2.50109
-10.5321
-9.88734
13.4629
-68.0169
1.41458
1.47175
1.13632
11.7267
1.12903
49.626
-2.79642
47.1136
1.30816
-66.3576
-8.98473
-11.6859
1.04003
-41.0561
1.37473
30.3057
13.1335
33.4379
1.4542
-14.9601
4.65161
-42.526
29.6272
12.9508
12.7091
0.349806
-21.0198
12.478
-76.839
-22.0536
13.0172
35.1028
12.8805
-19.3297
44.5799
6.32254
-3.58621
44.1354
36.4111
2.32035
3.8244
-65.642
43.8397
10.3839
41.3073
-3.39824
-59.372
29.659
-0.734834
-0.0813897
0.256811
-0.0651028
1.50667
14.8725
-43.1659
0.774909
-29.8956
17.3182
39.7694
-10.9239
37.4844
-0.0920941
-0.0375967
-10.9494
57.6875
-15.1535
49.2094
16.9701
5.12337
25.7407
5.80187
18.1991
0.0145742
-0.104517
-0.00985665
-0.0207134
9.64892
-12.2033
14.2715
-30.303
1.53876
-36.2689
11.9083
-18.394
46.4365
-0.503365
-0.453743
0.150977
40.242
0.104863
23.5634
-0.730467
9.44764
-6.3293
1.26736
33.0924
37.4626
-11.085
0.109509
1.1755
-47.0582
-58.8157
-7.30427
53.0874
29.1224
55.781
58.8699
45.875
-44.7625
-0.36201
45.7062
-42.6878
-0.0147125
6.02986
0.0620671
-23.7517
-20.7224
-0.745271
2.44292
-6.4226
-0.0398493
12.3494
-36.0645
42.3812
-40.8413
12.2376
-0.500517
10.973
2.61313
-4.02338
-75.4524
2.92261
-29.9858
-12.6441
12.629
-71.6507
-66.5666
12.6643
-8.4978
-10.5835
21.1434
12.7049
-11.164
26.9675
-63.2845
-27.1486
-38.0014
40.2571
-39.2416
5.81005
26.5565
5.31743
-50.1219
-44.9425
2.41336
0.674222
51.1026
-0.920424
-33.6035
-0.676299
-13.7356
-57.4024
-15.957
-29.5463
1.87899
-30.1458
0.318826
-29.6639
14.111
-19.0965
51.4265
-28.7526
22.2388
-27.3316
-28.4548
-17.6723
-40.4805
34.8008
32.5481
-35.2834
11.909
23.5907
17.5752
6.93387
14.3298
-3.26633
-34.5272
-83.5069
-45.2303
17.6832
21.6735
-35.7099
25.0481
-28.8744
-12.3765
7.22581
5.5181
-37.9477
13.6471
-31.2169
15.2545
32.1057
34.0271
62.1327
31.6019
-24.6109
-52.5574
45.7374
13.6313
38.2385
-43.9285
-29.6047
51.9894
31.4991
-2.85854
23.0957
22.1208
-40.4215
-31.9837
-67.7752
18.2986
11.3444
37.6549
-50.8625
45.9727
30.336
13.9148
38.881
-39.5311
3.87055
3.58838
13.8973
-9.78464
-58.3122
-30.8525
46.5879
0.51092
-31.3046
-58.4911
43.9829
47.6647
41.0543
-45.3087
-89.3214
46.4003
-24.2905
-52.9064
47.5622
-0.32659
-7.77517
13.4517
1.34952
1.74441
-5.97958
45.0558
-27.9776
1.22478
1.96413
1.69034
2.2261
1.1007
7.27556
-30.1888
-3.12888
1.47389
-50.6152
-69.3798
-29.2575
-16.2322
0.572199
-15.0955
-33.1442
-36.1167
1.52084
-37.0687
0.145951
-35.2267
-28.202
44.4493
20.6079
27.632
0.0159226
6.78054
-64.4452
-22.212
-7.68006
-53.9798
0.0029588
-54.268
-37.5458
-22.0635
-37.7846
-2.43455
17.1025
12.9616
16.1605
12.1116
44.0308
0.0676236
-0.0357369
0.139105
15.8436
-14.1038
-60.3361
-49.3457
16.907
38.8198
25.2198
31.0108
2.07076
-61.4169
-4.12528
14.2072
5.77456
0.374728
20.2048
9.21622
-11.2266
15.9638
-8.91712
-7.78991
-3.78358
18.101
37.4083
-27.781
54.8268
-38.0276
20.3965
-76.3263
-55.2278
-8.33647
15.3744
36.0078
-6.62215
-42.5423
6.6609
15.7462
-18.2897
-31.0948
17.7564
48.1213
61.4937
-65.4739
-2.64331
-54.6532
15.6248
2.18159
-9.13424
11.8342
8.34041
-15.7558
4.62645
9.85728
-37.0566
-6.78004
-29.4723
-11.7646
-35.2375
0.135948
13.2059
-75.6542
-14.6029
0.00836118
62.2362
13.0626
47.6936
11.2147
-22.3435
18.2919
3.33575
35.1669
56.6256
16.7106
35.3286
-0.128278
-46.3575
13.6968
13.5196
0.408115
8.34031
-32.3398
-2.22941
-6.17512
13.8545
4.89282
-19.3356
6.19404
10.8123
-5.12059
-10.0456
-26.3571
-0.059717
14.707
-0.00595828
15.5019
0.0591689
-15.7915
13.5013
-19.9845
12.8726
-34.9434
-0.0623049
34.9281
-8.50147
37.0345
0.0529984
8.04738
-0.0744857
-0.0054581
-4.61795
7.17842
17.9755
35.4877
30.9293
-41.1622
-50.2071
43.9889
25.7971
22.4118
7.11465
-0.00801299
0.216961
-68.1689
45.344
20.2988
16.1121
0.0775707
19.7151
0.156917
0.103081
-18.3268
-21.5604
-33.6867
-37.6487
9.00616
2.17649
-7.94518
13.4888
43.3819
11.9567
-11.3012
11.9861
-5.42352
-71.7477
-14.5851
0.291994
5.52118
-6.59484
-4.69067
-37.1121
13.5986
-36.901
24.7883
-68.9
-28.5475
-24.597
0.310109
22.9657
4.26278
13.7836
36.052
13.8357
-8.40714
11.7748
12.6636
10.2289
13.7343
-35.9661
18.7666
7.11875
44.2273
13.2295
-19.6568
13.9306
13.8472
-30.1409
-70.4274
-26.1002
-30.4176
-29.4555
11.0529
59.5471
-30.3001
-5.11625
13.3495
20.8638
-29.7038
0.660249
0.641348
11.677
-20.6681
-31.7393
-43.4191
33.0106
0.250556
1.24775
5.04431
-33.4893
29.0564
10.7722
-51.839
-33.2895
-30.9497
61.6964
15.0862
11.3748
4.09176
15.1766
-60.0074
17.9359
12.0614
20.0999
-2.61407
18.2252
23.9666
45.7664
37.1338
11.5214
-14.5003
23.3792
-7.69616
0.702652
0.6038
31.8213
-27.7724
-14.2691
0.568395
56.8626
0.60423
-33.6046
31.4959
22.7209
40.3729
-29.8385
-24.6933
-29.6933
32.8974
-9.92578
-27.8453
-8.76901
12.1528
2.11639
15.0853
1.11556
17.205
0.97573
12.2759
1.14766
-9.98652
0.345692
36.1211
4.05052
5.36298
-23.7735
8.69107
1.42424
9.81004
-4.59636
-38.504
-47.0079
-18.7645
5.64585
37.6978
1.30342
59.686
-46.4743
59.953
53.8336
1.14674
4.37063
5.84631
1.07462
1.19275
-84.2754
12.1539
-33.3054
-15.3023
5.62837
1.40712
-27.7464
6.65631
6.56111
10.8222
7.72802
1.16665
-41.863
-2.72667
1.44479
-7.38395
1.72581
1.18226
1.65986
1.40581
-3.71937
6.8938
-52.1317
1.24029
1.54229
-9.94642
-5.01774
23.8058
-17.4293
13.0945
12.9844
-0.0723236
0.289346
-8.08568
-14.7977
8.58153
0.120941
-0.68775
9.74585
0.090654
57.9441
0.0909292
3.14601
0.107113
-0.00359576
-25.8883
-0.000318291
-29.9843
-3.1713
52.8286
4.7567
-0.17195
-5.067
-1.37513
-1.64053
-39.991
1.9695
0.0897929
7.52974
-29.7897
0.0645545
7.51757
28.6284
42.9119
-8.69491
9.72357
9.97776
-42.6878
-21.9889
0.0585334
48.9309
-56.1886
-19.6928
-7.09768
50.658
-8.57465
-8.41902
32.6494
-62.4513
-0.650221
0.115057
0.0752179
0.0556287
-0.0042877
0.00406468
-34.8696
18.1859
-0.0251589
-52.2397
1.58203
0.188984
-7.91117
3.19601
16.6389
-45.5545
6.60907
16.5892
-23.9169
1.77535
15.8803
60.2843
15.7756
-49.4279
41.8449
18.376
33.1459
0.278531
45.3922
0.619797
7.415
24.6191
0.078946
-42.8826
-26.7158
0.749223
0.728618
-133.404
20.1153
-30.64
1.24982
-2.59611
1.22553
14.0642
22.8503
49.6913
14.0711
55.5644
14.0427
-79.2576
-29.207
-32.0765
-26.466
-10.9033
-6.0997