/*--------------------------------*- C++ -*----------------------------------*\
| =========                 |                                                 |
| \\      /  F ield         | OpenFOAM: The Open Source CFD Toolbox           |
|  \\    /   O peration     | Version:  2506                                  |
|   \\  /    A nd           | Website:  www.openfoam.com                      |
|    \\/     M anipulation  |                                                 |
\*---------------------------------------------------------------------------*/
FoamFile
{
    version     2.0;
    format      ascii;
    arch        "LSB;label=32;scalar=64";
    class       volVectorField;
    location    "0.0441308";
    object      U;
}
// * * * * * * * * * * * * * * * * * * * * * * * * * * * * * * * * * * * * * //

dimensions      [0 1 -1 0 0 0 0];

internalField   nonuniform List<vector> 
47425
(
(10.1441 0.11704 -0.0295984)
(10.022 -0.100615 0.0220496)
(10.0616 -0.0389178 -0.00230284)
(11.3079 -0.508883 -0.190138)
(12.2423 0.631462 0.672495)
(10.1263 -0.00746866 0.0116989)
(12.1502 0.457966 0.635337)
(10.1042 -0.00876895 -0.000680302)
(10.0065 0.00880162 0.00421203)
(3.49971 5.9383 -0.67038)
(10.0732 -0.0063747 -0.00669869)
(9.92406 0.0930211 0.0177501)
(11.9715 0.458544 0.194567)
(10.0658 -0.0263466 0.00230212)
(10.824 0.41592 -0.124193)
(10.02 -0.179719 -0.0319492)
(10.0794 -0.0317221 0.00685816)
(8.6962 -0.462136 -1.38858)
(8.56819 1.1769 -4.80885)
(13.1701 -0.49025 -0.959607)
(10.7766 -0.685697 -0.519542)
(9.80061 -0.0665958 0.00810441)
(9.97618 0.053651 0.00688161)
(10.0459 0.0059168 0.0234367)
(9.91642 -0.116653 0.00247004)
(9.97977 0.0612797 -0.0149015)
(9.99068 0.0293404 0.0188737)
(11.3204 -0.310881 -8.47805)
(10.011 0.0246084 0.0211813)
(10.046 0.00491582 -0.0369759)
(9.71869 0.752165 0.111248)
(9.98316 0.0869246 0.000748242)
(10.0026 0.0027099 0.00464585)
(10.0006 -0.00578375 -0.01473)
(9.94852 0.00118599 -0.0229919)
(9.91985 0.00756717 -0.0115563)
(9.72863 -0.0712268 -0.0291338)
(10.0009 0.0166555 0.00766224)
(10.5477 0.329702 0.0144325)
(10.0027 -0.000990348 -0.0143926)
(9.88169 0.0771778 0.025539)
(9.25496 0.293511 -0.905666)
(6.95242 -1.56103 -1.1964)
(9.98418 0.0132181 0.00511597)
(-0.0852615 -0.0744597 1.65752)
(10.0392 0.0567933 0.024417)
(9.97098 -0.0243257 -0.041799)
(9.99708 0.0367551 0.00228861)
(10.039 -0.00189282 -0.0139003)
(10.0453 0.00283549 -0.0273583)
(2.0741 -0.6034 -5.60684)
(9.08404 0.995813 1.49484)
(10.0315 0.00672516 0.00995679)
(6.83447 -5.94046 2.91962)
(10.0219 0.021049 -0.0222706)
(10.1572 0.030696 0.0195465)
(10.1412 -0.0878671 0.0320263)
(10.0883 -0.0227798 0.0236904)
(12.4806 1.13199 1.50613)
(10.0007 -0.00708725 0.0261673)
(4.95895 -5.84772 2.3459)
(4.90822 -0.0760601 2.55787)
(5.98339 -5.80706 1.3338)
(9.17188 -1.11688 0.0121893)
(10.0072 0.0100309 -0.00699163)
(10.7395 -0.25824 0.0463341)
(10.0013 -0.0221465 -0.00774571)
(10.6538 0.0217446 0.424816)
(8.61433 -6.14009 3.01767)
(9.07403 0.541322 0.378511)
(10.8463 -0.466774 0.173854)
(10.0088 0.0120803 0.0476055)
(10.7947 -0.034627 -0.00597478)
(10.7118 0.243723 -0.600182)
(5.86205 3.67755 1.28787)
(9.99885 -0.00399074 0.00143232)
(6.47277 -5.48967 2.18828)
(9.99743 -0.00133706 0.010859)
(8.39793 -5.18846 2.53764)
(11.6686 0.335352 1.67998)
(6.16671 2.87878 1.35492)
(10.2014 0.279321 0.0478441)
(9.21094 0.0801191 -0.209781)
(10.0095 0.0298966 -0.00682072)
(9.89516 -0.00253517 0.0293049)
(10.1613 -0.0549997 0.0209095)
(10.5999 -0.204438 -0.00884798)
(10.1277 0.0481801 -0.0142316)
(10.7653 0.845049 -1.75485)
(10.7823 -0.140449 2.4562)
(9.80771 0.378531 0.0205988)
(10.6264 -0.0200657 0.00984811)
(10.0498 0.0439537 -0.00709228)
(10.0456 -0.0364247 0.00179049)
(9.9927 -0.0285161 0.00369614)
(9.99951 -0.0052403 0.00957799)
(10.0357 -0.0180974 -0.0438645)
(10.1866 -0.228027 -0.0208379)
(10.1302 -0.0217732 0.011628)
(9.9815 0.00900703 0.00210196)
(10.0704 0.024058 -0.0287798)
(8.69916 0.101612 -3.89307)
(10.2441 0.181172 0.0615961)
(5.3365 1.92723 -0.542511)
(10.2643 0.0770373 -0.0154646)
(10.3844 -0.731813 0.157159)
(10.0658 0.121938 0.0328489)
(10.0607 -0.0431391 0.0128908)
(9.59522 -0.0395623 0.0495335)
(9.89814 0.105537 0.0545002)
(-3.28562 -1.89764 -0.0980476)
(10.0881 -0.10113 0.0412092)
(10.3291 -0.92758 0.269956)
(10.1677 -0.0129139 0.00806856)
(10.7249 -0.456143 0.158256)
(1.75765 -4.30077 -5.5835)
(10.7234 -0.428872 0.121815)
(4.09369 0.0274221 -4.14405)
(10.3213 0.194769 -0.0144362)
(10.9187 0.290974 0.472883)
(10.2419 -0.0339963 0.00407832)
(10.0006 0.00277895 0.00591641)
(10.0052 0.0522128 0.0109937)
(11.6274 0.832892 -0.642232)
(10.0837 -0.0175327 0.0129921)
(10.6019 -0.863837 0.275114)
(10.0866 -0.0758722 -0.00923262)
(10.0068 0.00369587 -0.00706302)
(9.98778 0.0011518 0.0279441)
(9.99634 0.00703547 -0.0195295)
(9.2786 -0.280177 0.365513)
(10.1866 0.426371 -0.0343125)
(4.31229 0.026421 0.754129)
(10.3653 -0.383706 0.0505584)
(9.60469 -0.322508 -0.855999)
(11.8268 -0.519318 -0.803814)
(10.976 0.678202 0.242036)
(10.6327 -0.849604 0.413151)
(10.1485 -0.0740587 0.0286112)
(10.9685 0.143751 -0.0377435)
(9.99277 -0.00965642 -0.000183623)
(12.4487 0.0441943 0.121987)
(10.5008 0.0397955 -0.060731)
(10.4092 -1.20637 0.41001)
(10.1652 0.220564 0.0199126)
(10.0057 0.00531908 0.0053513)
(11.7999 0.0976037 0.914696)
(10.0483 -0.0150195 -0.0272923)
(10.4785 0.0100775 -0.0278065)
(9.97755 -0.0110127 0.00395555)
(10.3229 -1.25897 0.265888)
(2.97119 -0.382867 -6.63253)
(10.0115 0.0171358 -0.00447666)
(5.68284 0.0867616 -11.2076)
(9.00652 -1.14036 -0.647426)
(9.98692 0.0129267 -0.00680613)
(10.7984 0.407527 -1.58922)
(7.54253 -3.74227 -2.53751)
(9.97643 -0.00245133 0.0193398)
(9.98855 -0.0264911 -0.0150426)
(10.993 -0.380933 0.155051)
(9.97155 0.0588884 -0.0342753)
(10.0187 -0.00734326 0.0599953)
(10.1572 0.27508 0.0348998)
(12.0579 0.115207 -0.336612)
(0.772307 -1.80503 -2.01357)
(9.97832 -0.0266923 -0.00645731)
(6.27534 3.42369 1.22671)
(9.93099 0.0015114 0.0283198)
(12.0916 0.632024 -4.04899)
(7.25382 2.73863 0.832723)
(9.99579 0.0059987 -0.021524)
(10.0085 0.0261646 -0.00135177)
(9.4641 -0.956141 -0.580163)
(10.1388 -0.0224575 0.0220932)
(9.26814 -3.03832 -1.1743)
(2.74585 0.93661 -7.33719)
(10.0036 0.0295912 0.0222725)
(10.0217 0.0129459 0.0343823)
(10.0581 -0.0121678 0.0260149)
(2.56436 0.398088 -10.6448)
(10.0187 -0.0761442 0.00639353)
(10.0144 0.0193389 0.022384)
(9.97999 0.019664 0.0166262)
(10.029 -0.0508334 -0.00156582)
(10.0385 -0.00868604 -0.00610203)
(10.2014 0.0661927 -0.0263684)
(5.65803 -0.4269 -0.42317)
(9.90535 -0.00674974 -0.0430899)
(10.0702 0.095599 0.0342135)
(10.0011 -0.00729633 0.000420727)
(9.99509 -0.00578227 0.0286127)
(12.0691 -0.0230605 -1.04116)
(9.99746 0.00223746 0.00410122)
(9.97604 0.00973824 0.0293946)
(10.9695 -0.148554 0.0414125)
(10.0025 0.000855489 0.00722321)
(9.97585 -0.00721121 -0.0184438)
(11.1505 -0.125423 0.0759613)
(10.1717 -0.215394 0.0501346)
(9.99751 -0.0372947 0.0246178)
(10.3185 -0.0405408 0.00549386)
(9.82535 0.0782857 0.115482)
(10.9035 -0.274301 0.0529376)
(10.1668 -1.50108 -0.809922)
(10.5202 -0.00924055 0.0184557)
(10.0187 0.00847657 0.018335)
(10.8984 -0.187055 0.0391687)
(10.0333 0.12549 -0.013568)
(10.0006 0.0143605 -0.00448143)
(10.1595 -0.122457 0.0114247)
(10.9562 0.108827 0.00669475)
(10.0078 0.0467692 -0.00372529)
(10.0557 -0.0569454 0.035921)
(10.5497 -0.0477382 0.020772)
(11.1684 -0.181752 -0.14888)
(10.6918 0.0159761 -0.0360793)
(10.4445 0.484055 1.45241)
(8.762 -1.24706 -0.556492)
(9.99013 -0.00378255 0.0104715)
(11.6045 -0.150081 1.98345)
(10.9479 0.079083 0.139164)
(9.77121 -1.50573 -0.765152)
(10.6941 0.0510362 0.0265042)
(10.5135 -0.00195889 0.0135947)
(11.6667 -0.424784 1.93099)
(10.0467 0.00923873 -0.000609708)
(11.0864 -0.158101 -0.0804303)
(11.2307 0.401729 0.281421)
(11.7853 0.49967 -0.236184)
(10.6943 0.004097 -0.0583134)
(9.98614 -0.0284051 -0.016458)
(10.3066 -0.10513 -0.0085537)
(10.0017 -0.00286366 0.000501881)
(9.89148 0.0107314 0.00498916)
(9.94485 0.182297 -0.0273551)
(11.4902 0.461097 1.76356)
(9.95157 0.0198117 -0.00874251)
(11.8106 0.449533 1.56802)
(9.83464 -0.00392435 0.0208488)
(9.90356 -0.00401177 0.0329311)
(10.014 0.00490834 -0.0125998)
(10.0227 -0.0225682 0.0190413)
(11.7849 0.428419 -0.00802074)
(10.4513 0.353171 0.069663)
(10.0059 -0.00507351 0.0129475)
(10.2168 -0.0333589 0.0138694)
(10.0051 -0.00657606 0.00984682)
(10.0097 -0.00534083 -0.0125377)
(9.93345 0.00184909 -0.0104247)
(10.005 0.0334948 0.00464416)
(11.6447 -0.00868094 1.75264)
(9.93431 0.0024011 -0.0233196)
(10.0028 0.00377346 0.00638804)
(9.95357 -0.0340345 0.00427093)
(9.93604 -0.0126601 0.0298214)
(9.85978 0.114633 0.0212335)
(9.81714 -0.0165583 -0.00769289)
(10.4825 -0.572961 0.154702)
(10.0111 0.00204866 -0.00629056)
(9.78758 -0.00477881 -0.00964179)
(9.99382 0.00823823 -0.00407575)
(10.1996 0.0800971 -0.0176061)
(10.1704 0.028453 0.0195724)
(11.5546 0.265816 0.695977)
(9.96924 -0.407206 -0.0588722)
(9.97687 0.0219444 -0.0293596)
(11.632 0.268349 0.540799)
(9.98222 -0.00864596 -0.0181053)
(10.2178 0.0769179 -0.0307353)
(10.1799 0.0742354 -0.00130487)
(11.864 0.564918 1.24834)
(11.3228 0.585228 1.46784)
(10.1996 -0.119712 0.00483214)
(11.7134 0.275485 1.60171)
(10.0906 0.0141509 0.0374694)
(11.7827 0.425001 1.43069)
(6.80257 3.27994 2.44587)
(11.2846 0.478534 1.5523)
(5.85127 1.22182 -4.9644)
(3.9671 -5.65857 2.17852)
(10.1634 0.110211 -0.0373192)
(3.72127 -6.06008 1.49122)
(9.91454 -0.00261792 -0.0230871)
(10.0005 -0.0115684 -0.0189013)
(11.157 -0.135632 0.0957136)
(9.93014 -0.0107357 -0.0013735)
(9.99981 -0.0484776 0.00144527)
(9.93404 -0.131901 0.0117362)
(10.7127 -0.633055 0.0496761)
(1.41078 1.75325 -3.30813)
(9.19975 0.817189 0.136609)
(10.0029 -0.00152262 -0.00214784)
(9.9596 0.0292131 0.0205394)
(10.0402 -0.0585501 -0.00760063)
(10.5548 0.27621 0.456172)
(11.849 0.528832 0.156607)
(10.2285 -0.604114 0.189827)
(10.0855 -0.13686 -0.00369805)
(11.7091 -0.0436357 0.374411)
(9.98279 0.135053 0.0157657)
(10.0887 0.015985 0.0671647)
(9.9943 -0.0328737 -0.00982505)
(10.0416 -0.0668118 -0.00317141)
(11.5087 3.92443 -0.120699)
(6.71174 1.81083 0.405087)
(1.47183 1.2053 -6.05716)
(9.93973 -0.000439158 -0.0192355)
(10.0681 -0.0782537 0.00191598)
(10.0578 -0.597508 0.0476574)
(10.1522 -0.514989 -0.145249)
(1.18735 -0.703803 -5.61192)
(9.99819 -0.0274286 -0.0442795)
(9.98259 -0.0271774 -0.0427258)
(10.8091 2.59682 1.50388)
(10.0965 -0.106425 0.0159536)
(9.89439 0.0332454 -0.00956076)
(9.82174 0.0283631 0.00255623)
(9.93965 -0.00167668 0.0111432)
(13.2602 1.79636 -0.51208)
(11.0909 2.30028 1.39666)
(9.99229 0.157137 0.0453479)
(10.1417 0.123743 -0.0559955)
(10.0086 -0.0123179 -0.0660421)
(10.1697 -0.0284155 0.00568447)
(10.0406 0.0214941 -0.0157026)
(10.0136 0.211342 -0.0221751)
(10.0621 0.0770798 0.00522241)
(10.0444 -0.0098595 -0.00901453)
(10.0154 -0.0213312 -0.0212923)
(11.2218 0.0584969 0.278316)
(11.1751 -0.886953 0.6124)
(10.4288 -0.730168 -1.23412)
(9.98675 0.0233146 0.00604989)
(9.9653 -0.00359152 0.00792438)
(9.9719 0.0244532 0.0496152)
(11.0637 -0.300614 0.635168)
(9.91964 0.147652 -0.0239036)
(10.0671 -0.0180115 0.00578458)
(10.0005 -0.0278395 -0.0100441)
(10.045 0.249425 0.0359287)
(10.0528 0.273007 0.0364124)
(10.0798 0.0338224 0.00514171)
(9.89564 0.25791 -0.0223055)
(10.0212 -0.00374926 0.00745023)
(9.95726 0.00797888 -0.0307488)
(10.0809 -0.0261435 0.0232863)
(9.65146 0.38382 -0.132782)
(9.98775 0.0182739 -0.0235327)
(10.0034 -0.0191428 -0.0123852)
(10.0271 0.23726 0.0279059)
(10.3973 -0.41873 -0.0251332)
(10.0922 0.228941 0.0270321)
(9.93117 0.241192 0.0118149)
(10.0233 0.191395 0.0357973)
(11.2301 -1.19677 -0.035015)
(9.9628 0.00380643 -0.016493)
(9.28494 0.207659 0.157112)
(9.95322 0.188903 0.0203875)
(10.0043 0.0268417 -0.00484221)
(9.82179 0.242156 2.0894)
(11.2223 -0.491321 -0.511113)
(10.055 -0.0110967 -0.0088937)
(9.97944 0.00151118 -0.0260925)
(10.3701 -0.356908 0.076899)
(10.3977 0.454211 -0.0242024)
(9.84913 -0.00278407 -0.00132616)
(10.0142 -0.00441511 0.00237988)
(10.0714 -0.127833 0.00162837)
(10.1874 0.687984 -0.111863)
(9.88105 -0.00694286 -0.00947434)
(-0.250218 0.644384 0.371542)
(10.5416 -0.0587076 0.0418236)
(10.0671 0.913217 -0.0797931)
(9.97947 -0.00239991 0.00747528)
(10.0604 0.803616 -0.0594147)
(10.1108 -0.295324 -0.955291)
(9.99022 -0.0239807 0.0110384)
(10.0035 0.00563922 0.00402081)
(9.77173 -0.059175 -0.0176761)
(10.0119 0.00178953 0.00488141)
(10.04 0.814473 -0.113945)
(10.119 -0.0513376 -0.026123)
(10.0094 0.0225325 -0.00157452)
(9.96994 -0.0357721 0.00975225)
(10.0027 0.0186759 0.00414763)
(10.0081 0.00579804 0.0110651)
(10.1647 0.187682 0.0524955)
(10.0059 -0.00319349 0.00459467)
(9.99616 -0.00536417 0.0131968)
(10.4565 0.874893 -0.291108)
(10.2968 1.07896 -0.335704)
(9.99068 0.0222698 0.0198544)
(10.5235 -0.411535 0.077657)
(9.95503 -0.0416264 0.0129983)
(10.3824 0.815276 -0.262006)
(9.9797 -0.0476857 0.0412607)
(9.92948 0.0222902 0.0104773)
(12.0928 -0.0698942 -0.628405)
(9.99404 0.0113292 -0.00219397)
(10.4019 -0.822678 1.63221)
(10.0081 -0.0168106 -0.0172232)
(11.0082 0.162893 -3.19924)
(10.0042 -0.0103869 0.00088689)
(10.5481 0.131022 0.000844919)
(9.95822 -0.00362498 -0.0268804)
(10.0187 -0.00813897 -0.026512)
(9.83595 0.00287469 0.00728808)
(10.0625 0.000946763 0.0197925)
(9.99637 0.00434706 -0.0451344)
(10.2861 0.955241 -0.262668)
(1.84402 -2.06949 2.03047)
(2.09993 -0.601715 -2.40304)
(10.044 0.0360518 0.0195464)
(10.3252 1.49834 -0.801212)
(10.6388 0.710172 -0.286029)
(10.7272 0.665566 -0.281404)
(9.98355 -0.014901 0.00478493)
(9.98311 -0.00497511 -0.00818375)
(9.99508 0.000506147 0.00840352)
(9.9605 -0.000691532 -0.00384998)
(9.95627 -0.0524593 0.0179028)
(10.1467 -0.192471 -0.0222616)
(10.7322 0.59789 -0.193181)
(9.98792 -0.00293239 0.0243573)
(10.0461 -0.00142335 0.0139913)
(11.1702 -1.30604 0.50345)
(11.3766 0.540987 -0.187305)
(11.0194 0.538062 -0.098604)
(8.07248 -1.31767 -4.86228)
(-0.0369655 5.41895 0.775443)
(10.425 -0.272002 0.0538834)
(7.42271 -0.984487 -5.37449)
(-0.0545151 5.1629 1.12752)
(9.9318 -0.160491 0.0105072)
(-0.157781 5.38911 0.962903)
(8.81931 -1.77238 1.48131)
(10.0312 0.0304317 0.00272873)
(10.9539 0.638843 -0.298233)
(10.9048 0.686392 -0.322216)
(11.1697 0.615985 -0.302683)
(-1.30761 4.62095 1.34017)
(10.0803 0.12457 -0.000381471)
(9.99197 0.0333179 -0.0185456)
(10.0147 -0.0376896 -0.0157259)
(11.2338 0.659799 -0.406497)
(11.1165 0.690856 -0.460457)
(10.0374 0.000165848 0.0168045)
(10.0754 0.0812018 -0.00112406)
(9.86732 3.71592 3.17021)
(-1.21988 4.5116 1.31088)
(12.7177 -0.37331 -2.91919)
(10.0083 -0.010333 0.00701272)
(8.70325 -0.696576 -3.13761)
(10.042 0.00622268 1.02825)
(9.97463 -0.00904745 -0.0118437)
(10.8585 0.368678 -0.037313)
(11.8006 0.386778 0.225184)
(10.8448 0.274285 -0.0290645)
(9.99894 -0.00904987 0.00404908)
(9.99893 -0.00420839 0.00691628)
(9.98299 -0.00614248 0.000781184)
(10.4596 0.319705 0.0151681)
(9.999 0.00233487 -0.000133665)
(9.98687 -0.00370385 0.020919)
(10.1316 0.093472 -0.0394896)
(9.95133 -0.00844836 0.0167778)
(10.9933 0.11218 -0.00949596)
(10.0341 -0.00968928 -0.00913902)
(10.0116 0.0110452 0.0235785)
(10.003 -0.0103743 -0.00022416)
(10.0064 -0.00623719 0.00815597)
(9.93683 -0.0257251 0.0203841)
(10.3889 0.286638 0.00715562)
(10.1794 0.0401243 -0.0178867)
(10.0278 -0.00179823 0.0476557)
(10.9204 0.126606 -0.023189)
(9.27912 4.45564 2.65356)
(9.95458 -0.00796751 0.0200673)
(11.8787 1.63344 -1.28505)
(9.99949 -0.0109985 -0.00223617)
(10.728 -0.234415 -0.0395449)
(6.70761 -0.753556 1.37225)
(9.76083 1.40853 -0.535695)
(9.9741 0.0546644 -0.0308869)
(9.83579 1.49126 -0.597041)
(10.009 0.023078 -0.0249611)
(10.0755 0.0294436 0.0518744)
(10.0514 1.28805 -0.819854)
(9.98236 -0.00876352 0.0130247)
(10.5764 -0.188547 0.0570395)
(9.92966 1.16887 -0.565595)
(10.2246 -0.0549972 0.0465977)
(10.4878 0.00137213 -0.2535)
(8.14649 0.287743 -3.9914)
(10.0302 -0.00464459 -0.0243358)
(9.65755 1.87151 -0.529835)
(10.0448 0.020826 0.0446244)
(9.06369 2.01837 -0.926851)
(10.0509 -0.0742839 0.017665)
(10.0029 -0.0449354 -0.0183823)
(9.98571 0.022065 0.00137889)
(9.97422 0.0165575 -0.00624699)
(10.9339 0.849227 0.843151)
(9.9694 0.00651895 -0.0208982)
(9.9765 0.0212047 0.000523844)
(10.0512 -0.017465 0.00380951)
(9.9986 0.0232782 -0.0155902)
(11.1016 0.480342 0.0118626)
(10.1147 0.00313487 0.00443952)
(10.0767 0.00346134 -0.00279529)
(8.64518 0.242183 -0.539912)
(9.96257 -0.0190644 0.0584472)
(9.88632 0.0567249 -0.0104299)
(10.0462 -0.111757 0.02863)
(10.0348 -0.0522586 -0.0339585)
(10.1263 -0.000389062 0.0289005)
(9.98978 0.00397006 0.00514516)
(10.1329 0.0347199 -0.0170615)
(10.3152 1.34012 -0.95848)
(10.0068 0.0101187 0.00618351)
(9.98882 0.00488195 0.00217703)
(2.92492 -0.44783 -5.61107)
(10.0472 -0.0141388 0.020315)
(10.026 0.0248629 0.00780561)
(10.0577 0.122405 -0.0212617)
(10.0044 0.0113815 0.00544335)
(12.6147 1.24665 -0.300865)
(12.7177 0.892665 -0.00681524)
(9.95191 -0.0363117 -0.0244314)
(9.96515 -0.0677297 0.0225542)
(9.91561 0.00219784 0.0206664)
(11.2588 -0.223714 1.15099)
(10.0244 0.0573922 -0.0272285)
(12.66 1.39005 -0.295277)
(9.99828 0.00514328 -0.00311469)
(-0.52666 -1.69703 3.06152)
(8.14948 -0.466728 -0.604679)
(9.2896 -0.83578 1.99821)
(10.0525 -0.0132035 0.00631836)
(12.6068 1.29072 -0.219366)
(10.0718 0.0235741 -0.0326885)
(10.0794 0.105627 -0.00140237)
(10.0321 0.0146845 -0.0565057)
(9.8593 0.0369679 0.103057)
(10.0282 -0.012904 -0.014829)
(10.065 0.0268698 -0.0169507)
(7.48513 -0.899514 0.153946)
(10.0045 0.0108884 -0.00380166)
(9.96494 0.0119817 0.00643514)
(9.97981 -0.0287915 0.0132679)
(12.5307 1.26102 -0.24768)
(10.0518 -0.00063162 0.0376426)
(10.032 0.0109247 0.0102638)
(12.3506 1.28841 -0.327547)
(12.2504 0.62347 0.0418833)
(10.0353 -0.0067238 0.0192611)
(10.0163 -0.00657238 -0.00220375)
(-0.349791 1.93406 1.01269)
(10.0302 0.0184741 -0.0182214)
(10.5141 -0.332808 0.160547)
(9.95655 0.015797 0.0344217)
(10.0653 0.027921 0.0315872)
(10.0464 -0.00860958 0.0133296)
(11.9204 0.756942 -0.155454)
(11.1105 -0.122858 1.32672)
(9.32222 0.654119 0.879089)
(9.93703 0.043347 0.0827333)
(10.0065 -0.0152469 0.0279284)
(9.99768 0.0213601 -0.0142815)
(12.6054 -0.404166 0.704745)
(9.28751 0.126694 -0.379056)
(9.8766 0.03914 -0.0581349)
(-0.223252 1.87452 0.711557)
(9.97867 -0.0233312 -0.0136789)
(10.0077 0.00966742 0.0227694)
(-1.12106 1.72917 1.07483)
(11.9604 1.98927 -1.11789)
(9.83852 0.120387 0.030025)
(0.0369411 1.95483 0.584711)
(-0.0196036 1.97897 0.956986)
(10.0159 0.0216833 0.00528092)
(9.99707 -0.00278746 0.00208859)
(10.0523 -0.0179282 -0.0221131)
(9.68867 -0.393041 0.0705087)
(9.98988 0.0166452 0.00374882)
(9.95377 0.0137871 0.00289245)
(11.5939 1.44252 0.422796)
(10.0575 0.247434 0.0792246)
(9.96216 0.0600382 -0.00615691)
(10.0721 0.00636465 0.00985726)
(12.6019 0.679761 0.0360966)
(11.8406 1.07806 -0.161997)
(9.97405 -0.00553541 -0.00352868)
(10.3287 0.361045 -0.0617555)
(-4.64216 -2.58757 -0.543189)
(1.13652 -1.81537 -1.01608)
(10.6579 0.336048 -0.189055)
(9.9592 -0.00135054 0.00441786)
(10.3444 -0.181105 0.174615)
(10.8444 -0.139478 -0.697585)
(9.90065 0.00737764 -0.0368798)
(9.90068 0.0110076 -0.0368595)
(10.0324 0.00562819 0.0143063)
(10.2943 0.179588 -0.0149501)
(9.97993 -0.0114648 0.00692721)
(10.711 0.155356 0.237933)
(10.0167 -0.00535978 0.0215761)
(12.7963 0.957973 -0.620479)
(10.3027 1.52922 -1.03885)
(10.6097 0.31935 -0.115659)
(12.8362 1.14026 -0.930544)
(10.1155 0.070007 -0.0401332)
(10.0038 -0.0146166 -0.0412829)
(10.5715 0.63132 0.150508)
(10.1797 -0.0719249 0.0315264)
(10.0096 -0.00620172 -0.015561)
(10.0099 0.00543441 -0.00193347)
(10.8211 0.79427 -0.456405)
(7.969 -0.718377 -1.32969)
(10.0222 -0.00151003 0.012727)
(10.7286 0.224104 0.071988)
(9.98825 0.0943352 0.0338105)
(12.2823 -5.48708 -1.78012)
(10.6107 -0.770671 0.965926)
(11.4504 -0.218474 0.775975)
(6.21572 1.19729 0.350634)
(6.07437 1.17902 0.204292)
(10.0538 -0.0315428 0.014233)
(9.89111 0.102193 0.00406024)
(5.09957 1.02869 -0.166189)
(10.0479 -0.00187892 -0.00821339)
(9.8775 -1.74041 -3.29718)
(7.03433 0.50208 1.768)
(9.98548 0.000148139 -0.00274606)
(9.89413 1.40159 0.757298)
(10.0261 -0.0670167 0.00366246)
(10.0124 0.0136185 0.0184178)
(10.0244 -0.00522812 0.0057767)
(12.9555 0.401936 -0.0908563)
(9.977 0.0100153 -0.00488917)
(9.98493 0.0040445 -0.00126135)
(10.0204 -0.0200292 0.00706577)
(9.91585 -0.00828737 -0.0602017)
(10.0178 0.0064263 0.00458062)
(10.0574 -0.0192584 -0.00268889)
(10.0225 -0.0177734 0.0507444)
(10.004 0.0225456 -0.0139157)
(11.1928 0.865577 0.608059)
(10.1469 0.772631 -3.26873)
(13.3161 3.14725 1.27569)
(10.7732 0.381797 0.0242768)
(9.8206 1.28959 1.40207)
(10.0057 0.0283924 -0.00628471)
(9.43765 -0.92007 0.132963)
(10.0578 0.0208378 0.0152443)
(10.0002 -0.00485527 -0.00680879)
(10.0031 -0.000395381 -0.00661276)
(9.99983 0.000374905 -0.00681634)
(9.98708 0.0117121 0.00564605)
(9.09741 0.300745 -0.859575)
(11.4368 0.497868 0.237298)
(9.98428 0.0100117 -0.00404334)
(10.2333 -0.486336 0.151585)
(11.6188 1.31824 1.90033)
(10.0164 0.00859325 -0.00550913)
(4.63597 -0.488178 2.31851)
(12.9075 -1.00483 -2.71619)
(9.93677 0.0353202 -0.00224095)
(9.44191 -0.562771 0.0681589)
(10.4478 0.0364921 -0.0238924)
(10.0349 -0.0105409 -0.0344319)
(5.07299 0.89476 1.84025)
(9.98662 -0.00369917 0.00839104)
(8.47662 -4.00577 0.975586)
(10.0806 -0.00340845 0.00412692)
(11.4274 -0.323736 0.996217)
(11.8584 0.508123 -0.031966)
(9.99106 -0.0272456 -0.0156059)
(9.97621 0.0461879 0.000324051)
(10.2731 0.504176 0.0583894)
(8.54187 -0.544281 -2.18125)
(9.95853 -0.0383374 0.016725)
(10.0253 0.000850639 0.0369567)
(10.1612 0.00181348 0.00949145)
(11.7687 -0.0743099 0.666782)
(10.0011 0.00381253 0.00198316)
(12.073 0.523599 0.265068)
(10.2958 -0.0181324 0.00602967)
(1.37181 -0.495326 0.630497)
(11.8038 0.442407 0.0648359)
(10.23 -0.00918936 0.00625532)
(11.9036 0.482486 0.181496)
(10.0014 -0.00380202 -0.00221491)
(10.1076 -0.0478801 -0.0287305)
(10.5289 0.337632 0.0174128)
(10.2706 -0.0307363 0.00417665)
(12.0936 0.583326 0.0975858)
(9.99722 -0.0173435 0.00742132)
(10.0182 -0.213945 0.0405204)
(11.9457 0.520102 0.0205588)
(10.0064 0.00852585 0.000535464)
(10.3034 -0.041017 0.00238012)
(10.004 0.0043365 0.00087339)
(10.0244 0.0138664 0.000951134)
(6.84872 0.37546 -4.98795)
(6.66562 -0.119318 -5.55326)
(9.86961 0.0583773 0.414145)
(8.75659 0.340928 -4.0561)
(10.0126 0.0107398 0.00500286)
(9.9815 -0.00296232 0.000467972)
(10.7113 0.628255 -0.22067)
(10.2977 -0.130564 0.0353914)
(9.21188 0.119367 0.487687)
(10.0254 0.00678817 0.00107757)
(10.044 0.0289565 -0.0191316)
(9.95005 -0.0199576 0.0282553)
(9.97206 0.0504557 -0.0314322)
(5.25945 0.217558 -6.18894)
(2.30302 -1.29038 0.275509)
(9.95422 -0.0127708 0.0225348)
(10.0215 0.0652351 0.0106417)
(9.93832 -0.051554 -0.0174717)
(9.93993 0.0197794 -0.0152846)
(10.1117 -0.103567 0.0260504)
(9.95036 -0.0168867 0.0125531)
(11.0735 -0.150264 0.0889274)
(11.6145 -1.43824 2.04014)
(10.0687 -0.0152136 0.00965638)
(10.0583 0.013674 -0.0247004)
(9.95265 -0.0231581 0.0130791)
(10.0069 0.0148443 0.0179661)
(9.78996 0.205821 0.0365946)
(9.96638 -0.0261702 0.000517169)
(10.5062 -0.185567 0.0194682)
(9.96811 -0.00914049 -0.0498721)
(10.0251 -0.0398899 -0.0275469)
(10.0557 -0.0002685 0.0132268)
(9.23306 -0.828939 -1.17944)
(5.1345 0.719194 -4.63894)
(10.0007 -0.0560754 0.00371189)
(-0.363369 -1.73856 0.775875)
(10.0922 -2.66006 1.35235)
(12.8557 -1.36341 -0.975281)
(-0.211563 -1.84474 0.555922)
(10.1707 0.0420685 0.0169355)
(6.32325 -0.234282 0.364529)
(10.3837 -0.465295 -2.47656)
(11.0133 -1.37542 0.434736)
(5.67042 0.291633 -3.63443)
(-0.474008 1.84894 1.728)
(1.45371 0.552584 -3.36742)
(11.2778 -0.0234153 0.445208)
(10.6418 -0.0504915 -0.0129345)
(10.7985 -0.0206334 1.0224)
(9.94736 0.00260068 -0.025721)
(3.78658 -0.243135 -0.142979)
(10.683 -0.0200952 -0.322505)
(10.5597 -0.024122 0.0219068)
(10.0092 -0.000570539 0.00718583)
(10.0227 0.00130207 -0.0111769)
(11.2588 -0.253011 0.992385)
(9.90079 0.116713 0.0284169)
(10.1111 -0.0217365 0.023721)
(9.98143 0.0594705 -0.0147043)
(-1.85279 1.09655 0.490328)
(8.10024 0.277426 -2.38903)
(10.029 -0.000276043 -0.00661803)
(9.98545 -0.0052706 0.00367523)
(5.06189 0.276884 -2.25038)
(5.94477 0.141053 -2.91884)
(10.943 -0.138429 -1.96575)
(-3.38637 -3.80096 -1.18392)
(3.36524 0.884757 1.15484)
(4.11761 0.00529904 -3.72448)
(3.83818 -0.070344 -4.59551)
(10.008 -0.0033098 0.00672498)
(9.7521 -0.00631064 0.000348705)
(9.46798 -0.0289601 0.123969)
(9.99357 -0.0542786 0.0291123)
(10.4258 0.0429807 -0.0525352)
(-0.513295 1.94041 0.981194)
(10.8053 -0.105415 -0.252196)
(10.4718 0.0368587 -0.0499903)
(10.3835 0.0394098 -0.0471357)
(10.0715 0.0163494 0.0265609)
(-0.369822 1.88803 1.90661)
(-0.365373 2.17502 1.90062)
(10.0236 -0.00649509 -0.027955)
(10.4495 -0.00221706 -0.0511012)
(9.93326 0.0606459 0.0299214)
(9.97579 0.00755395 -0.0170472)
(10.4117 0.0165251 -0.0387349)
(10.0066 0.0193541 -0.0221813)
(9.67843 -0.0462451 0.000600071)
(10.0433 0.020875 -0.0513133)
(9.96884 -0.000612067 -0.0054869)
(6.87308 -0.663782 -2.99748)
(10.0054 0.00599599 -0.00672238)
(9.98016 0.0306966 0.0443294)
(10.0374 -0.0558245 -0.0117077)
(9.9054 0.041679 -0.0177482)
(9.92869 0.02248 -0.0213012)
(4.20745 -0.502215 -2.24824)
(12.4728 -1.33446 -0.285566)
(10.0174 -0.0217721 -0.0190836)
(10.6613 0.404839 -0.202115)
(10.0535 0.0140053 -0.0135054)
(9.78847 -0.352955 0.146383)
(9.7638 -0.426485 0.216112)
(11.9602 -0.072864 -0.0499507)
(9.95568 0.00135343 -0.00558305)
(-0.513303 -1.13547 2.54249)
(12.0577 -0.136204 -0.0603927)
(10.425 0.0702623 0.0191739)
(10.7268 0.311322 -0.0432358)
(8.09793 0.318011 -3.30471)
(12.5347 2.498 0.993511)
(10.0149 -0.0362269 0.0018627)
(10.0216 -0.0308165 -0.000486072)
(11.9606 1.49319 2.02469)
(10.0607 0.00730821 -0.0222986)
(10.0067 0.0284661 -0.00438115)
(11.1423 0.499912 0.365137)
(10.0108 -0.0336011 -0.00505774)
(9.9837 -0.00232175 0.00183893)
(-1.08625 0.225747 2.92018)
(12.4706 0.0977318 0.204366)
(11.7757 3.12689 0.0341793)
(10.0021 0.000761208 0.00500515)
(7.63544 0.528717 -2.55237)
(9.94191 0.00795343 -0.0157538)
(11.7961 -0.509517 -0.225613)
(9.61229 -0.417183 0.320437)
(12.0048 -0.0866524 -0.0210565)
(9.95038 -3.51329e-05 -0.00951952)
(9.42227 -0.450402 0.283784)
(-0.644192 0.622482 3.15529)
(12.0008 1.59359 2.48735)
(12.223 -0.381393 -0.81467)
(-1.12777 1.84673 2.07675)
(11.9462 0.352146 0.165603)
(10.3656 0.152924 0.059527)
(9.90158 0.00746588 -0.000233881)
(12.0349 0.415357 -0.188475)
(9.9895 -0.0137111 -0.00427681)
(12.123 -0.0949268 0.149243)
(-0.193469 -1.0817 1.6275)
(10.0021 -0.0178261 -0.0029126)
(12.5696 0.0430335 -1.17766)
(10.0221 0.00429866 0.0285486)
(10.0106 0.00745846 0.0285749)
(11.3103 -1.90629 1.02294)
(10.0229 0.00294897 0.0311934)
(10.1006 0.0834383 -0.0542322)
(8.25361 -5.83824 0.268968)
(9.60264 0.397443 0.0812216)
(10.0224 -0.240294 0.0252353)
(12.4173 -0.819322 0.234078)
(10.4665 1.37461 1.46844)
(10.0707 -0.00829039 0.0548793)
(11.8367 -2.44738 -0.659571)
(5.25917 -0.822259 0.0160164)
(10.5931 0.0418593 0.0705465)
(9.59208 -0.714607 -0.81134)
(9.99089 0.0672743 -0.00291031)
(10.362 0.15902 0.0151635)
(10.0304 -0.0124984 0.0377927)
(10.0042 -0.0135707 0.0148422)
(2.57503 2.04866 -1.37265)
(1.06114 -3.49432 1.68446)
(12.2676 -0.278163 -0.147875)
(9.98452 -1.65283 -0.289483)
(12.0593 -1.65423 -0.142135)
(1.94123 4.8965 1.01676)
(-2.15302 0.436058 0.425596)
(9.81637 -3.56815 4.37824)
(9.9829 -0.00936014 0.00357456)
(10.0052 0.0118299 -0.00763569)
(9.98873 0.010421 -0.00326765)
(9.8944 -0.0754518 -0.0806371)
(6.02594 0.658816 -2.37169)
(9.70829 -0.544567 0.204239)
(9.06748 -0.600327 1.17419)
(9.98827 0.0172576 -0.00740291)
(-1.19285 -1.4041 0.541851)
(12.0754 -0.0861758 0.0138659)
(9.87931 0.208714 -0.127264)
(10.0392 0.0413303 0.0106215)
(10.0073 -0.0457129 0.0300332)
(10.0485 0.0503841 0.00960531)
(6.24307 -1.84188 -3.04483)
(10.0051 -0.00228068 -0.00514441)
(6.14456 5.59663 0.147431)
(10.0195 -0.0317563 -0.00108003)
(10.1016 -0.555221 -2.97466)
(9.98884 -0.0038427 -0.00219657)
(10.0014 -0.00715893 -0.00532607)
(10.0164 -0.00896437 0.00367367)
(10.0318 -0.00344687 -0.00286758)
(9.98782 -0.0123497 0.00239673)
(12.8552 0.844563 0.13207)
(12.2302 0.181525 0.651756)
(9.10491 1.39037 2.53759)
(7.1898 4.0211 2.59231)
(9.42723 1.12727 0.547975)
(10.3327 0.515098 -0.0675436)
(11.2267 0.965695 0.0650041)
(6.52825 -0.341802 -2.78348)
(10.4704 -0.124396 0.0485369)
(11.8888 -0.038592 -0.072008)
(10.3496 -0.705104 0.139053)
(11.8783 0.0247881 -0.0446779)
(8.30264 -0.0682656 4.74438)
(5.46338 -1.09116 0.890473)
(10.488 -0.250422 0.199725)
(9.99924 -0.00857643 0.00492209)
(9.5419 0.889236 -0.260176)
(10.0083 -0.00552814 0.00891984)
(10.1086 0.00146427 0.00769464)
(13.7573 -2.28439 2.50345)
(12.0992 -0.652056 0.758841)
(-1.56178 2.91011 0.69821)
(10.1649 -0.845238 0.283804)
(11.7242 -0.986868 -0.286243)
(10.359 -1.08934 -1.05767)
(11.3915 -0.0221402 1.26777)
(10.1612 -0.00878016 0.00148723)
(-3.65944 -2.58343 1.28144)
(10.0045 0.00155726 0.00113321)
(10.0515 0.00164352 0.00510264)
(10.4032 -0.0287871 0.601218)
(9.94395 -0.0324776 5.06886)
(10.1719 -0.00879009 0.00925834)
(10.1807 0.551374 -0.362841)
(9.98159 0.00749113 0.0169118)
(10.6329 -1.20999 0.635261)
(10.6557 0.0764807 0.939438)
(9.95995 -0.0286648 0.0082704)
(10.9072 -0.397919 -2.92293)
(10.4045 0.349605 -2.62384)
(12.7144 0.360358 1.29808)
(10.5371 0.514702 -0.119355)
(9.61441 0.0950453 0.320021)
(3.11703 0.915977 -3.57299)
(0.541324 2.42917 3.44627)
(5.36978 3.1613 0.875099)
(12.911 -0.843886 -2.58391)
(5.4546 -0.478793 -0.0863753)
(9.84996 -0.00505226 -0.0949396)
(9.9037 -0.0416708 0.00116479)
(8.48476 1.63056 2.86878)
(9.9518 -0.0111331 0.0149279)
(4.49039 -0.760527 -0.0434035)
(9.87673 -0.0110984 -0.060483)
(9.86886 -0.00960365 -0.0726947)
(-0.70914 0.305823 -0.163011)
(9.66651 -1.2229 0.930083)
(10.8843 -0.401055 0.147387)
(9.98064 0.016917 0.021993)
(9.9803 0.0235503 0.0181875)
(8.24173 0.30325 -2.73258)
(10.0229 0.0288375 0.0278307)
(9.95735 -0.00466449 -0.0219772)
(10.1066 0.831526 1.00931)
(12.1491 -0.732395 -2.70476)
(10.2698 0.306492 0.101643)
(9.88974 0.1078 0.0102028)
(9.90769 -0.0993102 0.00511595)
(9.99576 -0.00286827 1.55835e-05)