/*--------------------------------*- C++ -*----------------------------------*\
| =========                 |                                                 |
| \\      /  F ield         | OpenFOAM: The Open Source CFD Toolbox           |
|  \\    /   O peration     | Version:  2506                                  |
|   \\  /    A nd           | Website:  www.openfoam.com                      |
|    \\/     M anipulation  |                                                 |
\*---------------------------------------------------------------------------*/
FoamFile
{
    version     2.0;
    format      ascii;
    arch        "LSB;label=32;scalar=64";
    class       volVectorField;
    location    "0.0625936";
    object      U;
}
// * * * * * * * * * * * * * * * * * * * * * * * * * * * * * * * * * * * * * //

dimensions      [0 1 -1 0 0 0 0];

internalField   nonuniform List<vector> 
3946
(
(10.2003 0.175795 0.00222353)
(10.0565 -0.172539 -0.00287488)
(11.1053 0.23372 -0.137223)
(10.0515 0.0539131 0.00504233)
(9.86368 0.115068 0.000139706)
(9.49089 0.256935 -1.11273)
(9.98027 0.0688762 0.0108264)
(10.0775 -0.0481161 -0.00716645)
(9.99324 0.0257857 -0.00749127)
(10.2151 -0.14433 0.0326849)
(9.77492 -0.00385141 0.12316)
(10.1504 0.094489 -0.0175975)
(11.0823 0.343834 -1.69812)
(10.0942 -0.0600361 0.0159228)
(10.0418 -0.00703554 0.00544633)
(10.2949 -0.286523 -0.00475454)
(10.1772 -0.0287081 0.0111676)
(10.1163 0.215607 0.0531309)
(10.1405 -0.0589134 0.00524382)
(9.12015 -0.0963003 -0.164421)
(10.2724 -0.0212378 0.00250236)
(10.3521 -0.0541595 0.00296006)
(10.1929 -0.0906299 0.00302396)
(9.95542 -0.00406549 0.00219258)
(10.4851 0.467543 -0.0380961)
(9.9675 0.0661551 0.00628901)
(10.0868 -0.0521727 0.0214761)
(10.2341 -0.0312423 0.0382856)
(10.0538 -0.108434 0.0118675)
(10.1142 0.148156 0.0460751)
(9.53878 0.196466 0.0314168)
(10.2637 -0.153075 0.0137188)
(9.98311 -0.0112821 0.029169)
(10.3034 -0.0641553 0.00436269)
(10.194 -0.504852 -0.105017)
(10.195 0.15362 -0.00180895)
(9.83988 -0.172185 0.00874033)
(10.073 0.154389 0.0214428)
(10.1859 -0.135244 0.018177)
(10.2345 -0.0280961 0.0114074)
(10.1049 0.0506519 0.0043378)
(10.1067 0.0697165 0.00514085)
(10.0743 -0.0136135 -0.00156093)
(10.6324 0.495157 -0.041489)
(9.93777 -0.0133191 0.00580865)
(10.0708 0.0592659 0.0146747)
(10.1356 -0.21507 -0.00513087)
(9.83131 -0.182453 0.0053011)
(10.147 0.11788 0.00628377)
(10.074 0.0115483 0.022906)
(10.089 0.112015 0.0170894)
(10.0739 0.00515269 0.0339506)
(10.2713 -0.0659161 0.0358584)
(10.0955 -0.10458 0.0264536)
(9.96896 0.0641651 0.025737)
(9.85985 0.108155 0.0120584)
(10.0799 -0.146835 0.0399248)
(9.94355 -0.104553 0.015633)
(9.89612 0.00238651 0.0173813)
(10.1117 0.115113 0.0193384)
(9.72658 0.101358 0.154899)
(-0.210966 2.01689 0.624989)
(9.92512 0.0891622 0.142186)
(10.0327 -0.0591123 0.0168228)
(9.77244 0.0648229 -0.0237291)
(-0.0945224 1.81083 0.407683)
(-0.52255 1.71226 0.618914)
(0.0367827 1.93066 0.424917)
(0.0186713 1.96674 0.606568)
(11.1075 0.64384 -0.535533)
(9.9794 0.170061 0.0271346)
(9.89412 0.216796 -0.0271259)
(7.47361 0.470501 2.09946)
(10.1166 -0.117769 -0.00799248)
(8.08996 0.139026 0.348547)
(10.0532 0.0287406 -0.0108912)
(10.1522 -0.141837 0.0382571)
(10.1069 0.00930062 0.0105583)
(10.0649 0.0360257 -0.00374345)
(10.3193 0.0503191 0.0205306)
(-0.310143 1.84184 1.05602)
(11.3626 -0.0454559 0.610387)
(9.98862 -0.0368954 0.0244034)
(9.97076 0.118764 0.0575576)
(10.1708 -0.0392019 0.016878)
(-0.879078 1.13134 0.280847)
(10.8695 -0.945623 -1.42782)
(-0.370225 1.99551 0.572949)
(-0.313588 1.9405 1.27943)
(-0.501239 2.11364 1.23818)
(-1.32951 -0.0956716 2.03217)
(-0.794904 1.58129 1.23834)
(10.4951 0.193081 0.0504888)
(9.91477 0.00111776 0.0144936)
(9.90096 -0.00262514 0.00710836)
(9.92703 -0.00558168 0.00192778)
(10.1917 0.119237 -0.0140311)
(10.0199 -0.0104526 0.0226156)
(10.7184 0.0334904 0.0190972)
(10.0089 0.109439 0.0207769)
(10.5027 0.198986 0.0165975)
(9.96306 -0.0115452 0.00129238)
(9.98321 -0.0151754 -0.000275908)
(0.422587 1.41903 -0.362076)
(9.98258 -0.011657 -0.00134733)
(9.82561 -0.0459069 -0.0288573)
(3.69934 0.989554 -0.47377)
(10.1998 0.19467 -0.282596)
(10.1039 0.0353892 0.0104243)
(10.1001 0.0319202 0.010365)
(12.5027 -0.282958 0.0378511)
(10.1631 -0.014837 -0.00216663)
(10.205 -0.0218837 0.00990712)
(10.0312 -0.00432933 0.00494325)
(10.0949 -0.0111786 -0.000164928)
(10.2291 -0.0322669 0.0133662)
(10.72 0.0841438 1.30745)
(10.8404 0.484185 -0.141645)
(-0.285697 1.81166 0.425232)
(-0.510775 1.93448 0.632631)
(9.96588 -0.316568 -0.113201)
(9.97609 -0.000787668 0.0387701)
(9.85056 0.083231 -0.0270042)
(10.1126 1.41206 -0.499778)
(10.2426 -0.244529 -0.0144591)
(10.2496 -0.212673 -0.518514)
(3.40004 0.812849 1.43764)
(12.0204 -0.498745 -0.678943)
(10.0981 -0.0909336 0.0289941)
(9.90125 -0.150606 0.17659)
(10.3135 -0.00425106 0.0444)
(8.61262 -1.12692 2.46522)
(9.90093 -0.209883 0.135951)
(10.3384 -0.0365309 0.173988)
(10.3865 -0.0157612 0.0995563)
(5.44495 0.0996745 -0.564893)
(10.2866 -0.0287386 0.000627778)
(-0.372455 0.571841 -0.218015)
(9.79927 -0.507944 -0.199787)
(-2.86332 3.54639 2.41934)
(10.4432 -0.184007 1.25496)
(-0.725062 0.768361 1.4434)
(-1.46627 0.44498 0.265082)
(10.2113 0.167398 0.0409017)
(12.2814 -0.505168 0.0934923)
(9.93378 -0.0314976 -0.00748501)
(9.92659 0.076406 0.0188202)
(9.85133 0.424071 -0.126178)
(9.92777 -0.0260761 -0.0024206)
(10.0754 -0.0196857 -0.00200532)
(9.90911 -0.0171655 -0.00137293)
(9.90064 0.00542676 -0.00583578)
(9.93394 -0.0339379 -0.0032287)
(10.0172 0.043497 -0.00197485)
(10.1863 0.136097 0.0211126)
(10.0095 0.0602051 0.0162032)
(9.99611 -0.0569553 0.0324755)
(10.0181 0.125414 0.035093)
(9.86571 -0.092486 -0.25212)
(10.5767 0.0768176 0.00312423)
(10.4395 0.224932 0.0928548)
(10.8722 0.409156 0.0291509)
(10.1272 -0.0478767 1.63299)
(10.002 0.0393388 0.00227374)
(9.94887 0.072736 0.0226667)
(10.0002 0.0279807 0.0149115)
(10.0375 0.0280485 0.0142859)
(9.98819 0.102462 -0.00169908)
(10.0592 0.0415858 0.0106035)
(-0.908602 0.366316 2.87118)
(10.2486 0.0113845 0.0375829)
(3.3368 1.37097 0.662143)
(10.0588 0.03403 0.00814645)
(10.0069 0.03587 0.00777048)
(10.2317 -0.0951725 0.0212851)
(10.0236 0.0316557 -0.0157856)
(10.0051 0.0689509 -0.00727257)
(10.0279 0.0523124 0.0392949)
(11.229 0.0614729 -0.41614)
(10.1067 -0.200248 -0.00685514)
(9.95365 0.00354772 0.0427601)
(9.90225 0.0744514 0.0129402)
(9.84287 0.103025 0.0376223)
(10.4428 -0.169682 0.00992604)
(10.4771 0.0556681 0.0204653)
(10.4241 0.0531454 0.0155261)
(9.86313 0.140823 0.0016487)
(10.1428 -0.0377356 -0.0020575)
(9.71509 0.312064 -0.0813705)
(9.95849 -0.0964564 0.0131339)
(8.4406 0.344237 -1.27978)
(10.3131 -0.111499 -0.00820196)
(-1.09542 1.80225 0.328403)
(10.0427 0.163875 0.0151966)
(-0.319144 1.46242 0.726199)
(-0.228701 1.4052 0.799036)
(-0.138438 1.46778 1.08145)
(9.67721 0.136834 0.0922075)
(10.0021 0.0609872 0.0810697)
(9.99808 0.125487 0.0694549)
(9.95588 -0.00453068 0.00665687)
(10.041 0.123738 0.0526142)
(9.90457 0.10784 0.14622)
(9.96569 0.15593 0.133588)
(9.94907 0.0392409 0.0734977)
(10.2117 -0.257814 -0.00288867)
(10.3778 0.133851 0.077546)
(10.5205 0.0746986 0.109096)
(10.1553 0.182384 0.0338423)
(10.3364 0.0660952 0.00526575)
(10.4315 0.0727874 0.00970874)
(10.4 0.142498 0.0756019)
(8.35373 -0.320352 -0.366895)
(8.42461 -0.316386 0.225889)
(6.1218 0.196564 -0.0738698)
(9.55949 0.81019 -0.506926)
(8.75303 -0.333339 0.18377)
(10.2216 0.0810964 -0.479996)
(9.46425 -0.133001 0.0681092)
(9.66783 -0.0145008 0.186703)
(-1.06218 -0.147727 0.350411)
(-0.158013 1.51151 0.369371)
(10.3004 0.040949 0.031288)
(10.1112 0.0567012 0.121056)
(10.5063 0.184993 0.0415532)
(-0.140374 1.68066 0.367862)
(-0.0891817 1.21075 0.345681)
(9.65433 0.103471 0.32995)
(9.95445 0.224254 0.23135)
(0.0168137 0.550703 0.337505)
(10.9328 0.000664843 0.368268)
(10.8294 0.426874 -0.0845068)
(10.0602 0.00197997 0.218483)
(10.8234 -0.492749 -1.34773)
(10.0759 -0.128811 0.0123103)
(10.053 -0.0525853 0.0187886)
(10.2282 -0.0857027 0.0286466)
(10.0187 -0.0350421 0.00556886)
(9.99574 -0.0386836 0.0116553)
(10.1886 -0.0755754 0.0180787)
(9.98428 -0.0331789 0.0336669)
(-0.418809 2.05379 0.671037)
(-0.515291 1.61058 0.456177)
(-1.21238 1.7062 -1.1996)
(10.0328 -0.0138166 0.00486879)
(10.1201 -0.0735254 -0.00994384)
(9.9979 0.000499166 0.0091216)
(10.0703 -0.0529452 -0.00751483)
(11.1646 0.231807 -0.173391)
(10.005 -0.0179978 0.00352335)
(10.1356 -0.0718842 -0.00198784)
(-1.33644 2.33125 1.38175)
(10.5619 0.0562164 -0.00346148)
(10.5681 0.0389119 -0.00455315)
(10.1488 -0.164506 -0.00698394)
(10.4785 0.10226 0.108951)
(10.2703 -0.0364176 0.00701264)
(10.8728 0.285774 0.151519)
(10.1462 -0.0240507 -0.0104293)
(10.0749 -0.0656141 0.00296375)
(3.93377 1.84809 -0.587593)
(-0.683088 1.35282 0.248217)
(-1.77854 0.932003 0.4522)
(9.93218 0.0164561 -0.00205319)
(9.91327 0.00722932 0.0054838)
(10.0256 -0.00496336 0.033578)
(9.88865 -0.0170975 0.00446238)
(9.97436 -0.00732138 0.0432802)
(9.89791 0.00536808 0.0215104)
(10.0363 -0.00744998 0.0483804)
(10.0468 0.0885352 -0.0177679)
(9.99807 0.078501 -0.0158428)
(10.119 0.0412271 0.0116405)
(10.629 0.087918 0.00849606)
(10.6702 0.0957885 -0.00802521)
(10.7221 0.086754 -0.00362111)
(10.7515 0.0713219 -0.00784862)
(10.6594 0.04331 0.00819203)
(10.6022 0.0419637 0.0180964)
(9.96188 -0.0307525 0.0127088)
(9.9389 -0.0415472 0.0124929)
(9.94404 -0.00229596 0.00198317)
(10.0678 -0.430969 -0.0500111)
(10.2215 -0.0233134 -0.000550192)
(10.3109 -0.0768646 -0.00543834)
(10.2387 0.0746769 -0.0162696)
(10.3168 0.0737762 0.00260306)
(10.4194 -0.45745 -0.246294)
(10.1741 -0.070681 -0.0123506)
(10.2295 0.0492435 0.0143188)
(10.1413 0.0359299 0.0161753)
(10.1534 0.021646 0.0301037)
(9.78911 -0.191468 0.143155)
(10.3386 -0.0417822 -0.00135086)
(10.2998 -0.144876 0.00900232)
(9.90837 -0.00444338 -0.00191709)
(9.91636 0.0215712 0.00167013)
(9.90509 0.0176363 0.00640364)
(9.44573 -0.439264 -0.300759)
(-0.110437 1.79568 0.511754)
(9.81092 0.242967 0.0817089)
(-0.183104 1.74942 0.454903)
(-0.0771818 1.83854 0.413129)
(-0.20383 1.55461 1.10971)
(9.87527 -0.116866 0.0110765)
(10.8316 0.361787 -0.111162)
(-1.89736 0.96227 1.30787)
(3.99896 1.67868 -1.90286)
(9.91701 -0.15015 -0.117232)
(-0.958923 -0.909526 0.549734)
(-0.692418 -0.319656 1.2607)
(-0.283148 1.8182 0.695485)
(-0.468176 1.9418 0.128663)
(-0.317067 1.96166 0.00984931)
(10.0965 0.0530877 -0.00556087)
(4.73271 0.875014 1.06212)
(10.3227 0.062854 0.0188672)
(10.351 0.026739 0.0511434)
(10.3813 0.0693645 0.0115099)
(-2.93084 1.46003 1.76546)
(9.97426 0.0159415 0.0146483)
(0.716035 0.686465 -2.73355)
(9.9877 0.00550063 -0.00287015)
(9.9616 0.00972361 0.0103461)
(10.2676 0.426833 0.122027)
(10.3141 0.0961987 0.0510575)
(10.3279 -0.323648 -0.0117759)
(10.0457 0.0372558 0.344651)
(9.73477 0.065609 -1.22315)
(9.93763 0.003772 -0.0019201)
(9.95167 -8.5861e-05 0.000163601)
(9.97897 0.00706224 0.0012014)
(10.0764 -0.0153289 -0.000483243)
(-1.05055 0.823775 -0.512685)
(-2.53285 1.56041 1.143)
(10.0577 -0.0670685 0.0163885)
(10.9118 0.16947 -0.8743)
(-2.25766 1.43678 1.06053)
(-0.279861 1.67188 0.0901196)
(-1.28383 1.78634 0.313147)
(10.3403 0.22285 -0.405663)
(0.159357 1.08145 1.41336)
(-0.904534 1.4425 0.63239)
(10.8379 0.220398 0.0897097)
(-2.54131 1.90255 1.13543)
(8.30268 0.414374 2.35611)
(10.8993 0.1511 -1.12406)
(9.83098 0.912575 -0.625045)
(-0.402321 4.98566 0.177799)
(-2.69294 2.58188 0.274922)
(-0.965335 1.31307 0.245338)
(9.44749 -0.00906324 -1.48006)
(-0.231241 1.65322 1.12974)
(8.97891 1.10429 0.0637734)
(-0.974831 1.18146 0.361794)
(-0.0484858 0.667537 0.131941)
(-1.79778 1.45096 1.4065)
(9.74345 0.0875147 -0.0407217)
(-2.74673 1.26683 1.10932)
(-0.0833083 1.3528 0.134998)
(9.08785 -0.798043 0.595646)
(0.986022 0.758186 1.63194)
(10.5802 0.293931 0.0771652)
(11.38 0.00967509 0.512267)
(-1.72895 0.147612 1.56176)
(-2.77181 2.85665 0.212627)
(11.5146 -0.412381 -1.15921)
(-1.76093 2.19682 0.453116)
(-3.29896 2.72823 0.415741)
(-1.51391 1.67287 1.32152)
(-1.71656 2.06941 0.470126)
(-3.38615 2.57795 0.427095)
(10.3302 0.0549649 0.0431365)
(8.50287 0.982595 -0.188291)
(10.2941 0.339046 0.145535)
(8.83604 1.04164 -0.639159)
(9.96533 -0.00218804 -0.00737609)
(9.87372 0.108169 0.0967188)
(10.0033 0.255458 0.747638)
(-1.55965 -0.204486 2.57273)
(10.9423 0.172548 0.0485401)
(11.0933 0.0708717 0.449227)
(10.7368 0.0870628 0.0122963)
(10.5076 0.660451 -0.359758)
(11.2094 0.654121 -0.61753)
(10.7254 0.498805 -0.149451)
(7.4997 0.154926 2.04117)
(10.625 0.519953 -1.24599)
(8.36387 2.24262 -1.40759)
(10.4697 0.0485882 0.136102)
(-0.920587 -0.753441 1.71862)
(10.7003 0.347952 -0.0193436)
(10.657 0.243321 -0.0106563)
(-1.70868 1.45806 0.954225)
(11.2801 0.608282 -0.442251)
(-0.451424 1.28114 1.66166)
(10.551 0.191613 0.0325194)
(8.48693 0.539437 1.97078)
(8.38406 2.50425 -1.75694)
(10.5296 0.528133 -0.109989)
(10.5816 1.1542 -0.582394)
(10.1482 -0.155654 0.0889675)
(10.6741 0.128169 -0.0161452)
(10.2863 0.0943697 0.0196728)
(9.93887 0.181243 -0.00336581)
(10.0859 0.0556448 -0.0024248)
(6.96423 0.0691864 -1.12868)
(10.5343 0.951345 -0.0480603)
(10.0963 0.783448 -0.190617)
(10.6932 0.270254 0.0984848)
(4.61917 2.79042 -1.18224)
(10.2645 0.655906 0.0884217)
(7.624 0.165852 0.127837)
(10.576 0.215732 0.0452606)
(10.7302 0.207335 0.025377)
(10.8378 0.0792191 -0.00368812)
(9.99935 0.1126 0.0467507)
(10.0319 -0.0144626 0.042779)
(1.41576 4.54548 0.0234548)
(11.8207 -0.103946 -0.447166)
(10.1171 -0.0439154 0.0118589)
(1.29753 4.50294 -0.261018)
(10.022 0.135253 0.0201498)
(-2.65564 3.21508 0.994782)
(10.1002 -0.470006 -0.0999731)
(10.0405 -0.294882 -0.00510603)
(9.16216 -0.530099 -0.146286)
(9.98077 -0.0574732 0.00880877)
(10.2128 -0.226823 0.0461033)
(10.2869 -0.0739992 0.0326366)
(9.64997 0.0883884 0.223154)
(9.13833 0.180536 0.178038)
(10.237 -0.161807 0.0366721)
(10.2171 -0.467003 0.00771159)
(11.562 -0.0763083 -0.940183)
(10.2554 -0.256407 -0.00709437)
(9.99392 -0.0364356 -0.00674228)
(9.9374 -0.0175555 0.0193458)
(10.823 0.0516686 -0.00277763)
(10.7456 0.377257 0.271749)
(10.6643 0.421548 0.2932)
(10.623 0.418464 0.305392)
(10.6393 0.379286 0.328402)
(10.7303 0.379445 0.271144)
(10.5445 0.294213 0.281279)
(-0.411021 0.781209 1.83253)
(-3.77439 3.03004 1.27188)
(9.50032 1.59083 0.408239)
(10.6105 0.362384 0.312336)
(10.1655 0.441993 -0.141902)
(10.1561 0.403532 -0.0578674)
(10.1797 0.540613 -0.0509065)
(10.3198 0.523373 -0.0186903)
(10.2524 0.510574 -0.14497)
(10.2271 0.442111 -0.0380787)
(10.4044 0.488454 -0.0406206)
(10.835 0.0410123 -0.0115245)
(10.3136 0.467788 -0.0531778)
(10.2412 0.560875 0.18459)
(10.2603 0.463798 0.162172)
(10.0687 -0.02763 -1.3418)
(10.7213 -0.0270844 -0.679456)
(-0.228933 1.68316 1.19869)
(9.46758 0.116985 0.342896)
(-1.32781 0.677768 1.63117)
(-1.82909 0.280347 1.45989)
(9.56186 0.260596 -0.0142328)
(11.4093 -0.488211 -0.705717)
(-2.60238 0.826059 1.04159)
(11.0224 0.184727 1.36328)
(8.90576 0.424988 1.40733)
(4.27602 2.26309 -0.479421)
(9.87332 -0.0339286 -0.00916131)
(9.95188 -0.104357 0.0150114)
(9.93298 -0.09763 0.0447626)
(9.90244 -0.124611 0.00759641)
(9.97324 1.18592 -1.41558)
(10.6118 0.328461 -0.0127766)
(11.0531 0.543126 -0.16155)
(10.7772 0.0993043 -0.00154669)
(-2.3527 2.23211 0.512076)
(-0.263745 1.6863 0.560552)
(1.93291 0.657587 1.64725)
(10.5662 1.10647 -0.173639)
(10.0081 0.0302103 -0.00755345)
(9.87738 -0.146775 0.0339235)
(11.0652 -0.0189211 -0.307533)
(10.2938 0.382668 -0.0228778)
(10.142 0.85588 -0.266962)
(10.0842 1.01891 -0.2828)
(9.78931 1.18915 -0.681012)
(9.85973 -0.28792 -0.0492716)
(9.92733 0.888844 -0.906553)
(9.79512 -0.24929 -0.0124053)
(9.94545 0.487777 -0.00870851)
(10.3216 0.71117 0.107195)
(10.0437 -0.253058 0.021744)
(10.6733 0.185782 0.0286132)
(9.84088 -0.253851 -0.0314945)
(9.7881 -0.210306 -0.0258765)
(10.8661 0.233622 0.0619018)
(10.7639 0.0787861 0.0114536)
(9.82739 0.084904 -0.00993298)
(9.84768 0.0600139 -0.0298717)
(9.83362 0.101831 -0.00403556)
(10.7564 0.328719 0.177388)
(10.8262 0.323386 0.173333)
(-2.24553 0.814315 0.900945)
(-0.167288 1.65489 1.44051)
(10.021 -0.0818616 -0.00838908)
(0.125152 1.2932 1.55329)
(-0.882894 1.2437 0.401454)
(10.0994 -0.130235 -0.0174886)
(8.35042 0.0458708 -1.25576)
(12.4376 -0.367512 -0.243413)
(-4.13147 4.22655 1.81164)
(10.7717 0.0131745 -1.47181)
(9.57752 1.01296 -1.45403)
(11.2652 0.237621 -0.341148)
(9.89086 -0.0243266 -0.0203616)
(10.2321 0.0398061 0.0111122)
(10.8753 0.0862578 -0.00836678)
(10.7097 0.123199 0.00413114)
(10.6701 0.133117 0.0185827)
(10.7926 0.160897 0.023894)
(10.4909 0.226831 0.116596)
(10.3453 0.258733 0.35488)
(10.2595 0.262665 0.499361)
(10.831 0.715982 -1.70887)
(-0.588621 2.20576 -0.403529)
(-1.65956 2.37121 -0.0890532)
(-0.27829 3.1355 0.445079)
(10.5506 0.439741 -0.054032)
(3.98111 0.775817 1.35187)
(-1.32917 2.01578 0.467375)
(3.72827 0.962513 2.43643)
(9.84481 0.107122 0.00516295)
(10.0565 0.0156743 0.0165355)
(10.5387 0.0513569 0.0102065)
(10.0735 0.143575 0.0396086)
(10.6014 0.187296 0.039172)
(10.4601 0.223999 0.0596487)
(10.9151 0.0124658 0.176022)
(10.0158 0.0675476 0.0104967)
(10.1537 0.0856515 0.0238124)
(10.2253 -0.0536322 0.0285355)
(10.3722 -0.0850318 0.0748888)
(9.95042 0.0247307 0.0193344)
(9.98476 -0.0321538 0.00874634)
(9.94216 0.0814802 0.0242671)
(10.0517 0.0261296 -0.0178405)
(10.0205 0.0257063 -0.00661416)
(10.0218 0.0530605 0.00428357)
(9.92546 -0.0166235 0.0639564)
(10.0652 -0.0214089 0.0210889)
(10.0615 0.0880376 0.00403226)
(10.0529 0.0293921 -0.00407993)
(10.6599 0.207913 0.225491)
(9.95195 0.113244 0.0306317)
(9.98498 0.052991 0.0091478)
(10.1545 -0.0398579 0.00392362)
(10.1195 -0.183483 0.0346199)
(8.22028 0.130881 0.195149)
(10.2664 -0.116257 0.041795)
(10.0967 -0.0963732 0.0292364)
(10.1186 -0.0635228 0.0153738)
(7.09566 0.832642 0.564744)
(10.0255 -0.0491008 0.00952018)
(10.082 0.0349975 -0.0140767)
(-2.18454 0.295796 2.13344)
(9.87385 0.0802737 -0.00137782)
(9.9671 -0.0984882 0.0297181)
(10.2585 -0.161305 0.0277729)
(10.1089 -0.124656 0.0304231)
(10.1459 -0.0137917 0.015989)
(9.92896 0.0524523 0.0653421)
(10.0144 0.0508568 0.0149905)
(9.95757 0.00949789 0.0103002)
(10.1416 0.126939 0.00878285)
(9.88907 -0.199323 0.111427)
(9.72718 0.177607 -0.0488762)
(9.94833 0.0129286 0.125672)
(9.58089 0.0801107 0.163103)
(9.4196 -0.220556 -0.124837)
(9.86566 -0.0621451 0.0218683)
(9.93257 -0.0316178 -0.0390641)
(10.1275 -0.182882 0.0332871)
(9.9182 -0.176899 0.104097)
(9.26046 0.0952659 0.0560243)
(10.1796 0.283123 0.0881196)
(9.93461 0.0471859 -0.00178431)
(10.0676 0.130735 0.0042868)
(9.92817 0.097737 0.0160398)
(9.98332 0.0786073 0.0203248)
(9.75649 0.0747304 -0.0296048)
(9.59297 0.933359 -0.549954)
(9.93949 -0.0117438 0.0295297)
(10.3129 -0.0946557 0.0402355)
(10.0006 0.0676242 0.0337076)
(12.4549 -0.492708 -0.043489)
(10.0009 0.0550178 0.0161586)
(10.0107 -0.043138 -0.00474294)
(9.8036 -0.246997 -0.298489)
(10.685 -0.0449961 1.54668)
(9.92716 -0.0871892 0.0327314)
(10.0112 0.0623462 0.00583833)
(10.8504 0.12767 -0.0267897)
(10.1526 0.258412 0.0987639)
(10.8197 0.190144 -0.0547371)
(10.0614 0.242174 -0.000123881)
(9.80543 0.0486104 -0.0304424)
(9.26525 0.634512 -1.45162)
(10.2599 0.221709 -0.312171)
(9.47942 0.557806 -0.373766)
(7.04334 0.771077 -0.374493)
(10.122 -0.0294217 -0.00176008)
(10.0536 -0.234053 0.0523107)
(10.3064 0.216894 0.0367383)
(9.85806 -0.00496011 0.00949985)
(10.0798 0.0187897 0.0190721)
(9.87965 -0.00770406 0.0093569)
(-3.74253 1.90562 0.97799)
(-2.87428 2.13821 0.594122)
(-2.09803 1.33976 0.37315)
(10.341 0.138786 -0.00420867)
(10.6265 0.559456 -0.20527)
(9.58754 -0.004403 0.185111)
(10.0428 0.0453857 -0.00216181)
(9.85879 0.103437 0.00486111)
(9.7343 -0.201319 -0.142652)
(9.90386 0.00360895 -0.0224408)
(9.87206 0.00222397 0.00985993)
(9.04223 0.228103 -1.80161)
(9.32366 -0.512903 -1.96477)
(3.27983 0.78883 -0.0927271)
(7.11619 -1.05626 -0.73009)
(10.0845 0.0234888 -0.0176068)
(6.6607 0.673714 -1.14932)
(10.0299 0.0223373 -0.013476)
(9.30193 -0.115535 -1.87111)
(9.90219 0.0318853 -0.00230626)
(10.4335 -0.00742751 -1.67995)
(10.1537 -0.104603 0.0188626)
(10.3576 -0.0912658 0.0231644)
(10.4775 0.101338 0.0446993)
(10.1774 0.352778 0.0544761)
(9.94463 -0.0398164 0.0310079)
(8.40341 1.91438 0.538395)
(11.009 0.325597 -0.162203)
(10.1108 0.0292507 0.000343984)
(10.1908 -0.0322628 0.0253903)
(9.99963 0.103978 -0.00213763)
(10.079 -0.110974 -0.0125149)
(9.99088 -0.057291 -0.00765155)
(10.0754 -0.0289319 0.0189409)
(9.98171 0.0812293 0.00429756)
(9.98746 0.140084 -0.0107385)
(10.1494 -0.422482 -0.0687805)
(9.94866 -0.102092 0.00325316)
(10.3548 -0.189723 0.0106243)
(10.2286 -0.177935 -0.00119464)
(11.0173 0.273045 -0.575294)
(10.2008 -0.0253954 -0.00413225)
(10.0861 0.0698359 0.00798286)
(9.89232 0.0845735 0.00799483)
(9.86616 -0.252542 -0.0116958)
(10.7869 0.524332 -0.854144)
(12.6127 -0.445136 -0.117247)
(10.7166 0.15452 -0.0310406)
(9.86903 -0.0677069 0.00746793)
(10.8705 0.455694 -0.0915039)
(10.2916 0.0488486 0.0261815)
(10.0929 0.0654819 0.00388004)
(-0.860738 1.51838 0.858975)
(-0.693532 1.6679 1.13549)
(-0.754241 1.49155 1.41732)
(10.1984 0.139702 0.0354696)
(9.68046 0.106428 0.616912)
(10.0009 0.140702 -0.0258665)
(9.78812 0.104131 0.0435572)
(2.48225 0.831153 1.68184)
(-1.01055 1.38026 1.38267)
(10.0158 -0.124841 0.0179726)
(-0.772973 1.33167 1.5994)
(10.0147 -0.193284 -0.000793748)
(9.96295 -0.0147964 -0.00137101)
(10.0952 0.165594 0.275849)
(8.71909 0.542633 -1.05619)
(10.5419 1.0676 -0.142236)
(10.4202 0.553003 -0.0534221)
(10.1489 0.0237758 0.0178405)
(10.0248 -0.167289 0.0207294)
(9.79156 0.083952 0.142506)
(9.90357 0.0115927 0.0183104)
(9.77911 -0.104046 0.0784278)
(10.0947 -0.0902051 0.112799)
(9.85691 -0.115592 2.67992)
(-1.06084 0.769204 0.6483)
(9.93558 0.184251 -0.00589341)
(-1.6835 2.86033 2.69033)
(-2.36292 0.566119 1.46481)
(10.1763 -0.0899488 -0.0064758)
(9.98078 0.758216 -0.632684)
(10.0211 0.124985 -0.0136322)
(10.1363 -0.180876 -0.0172429)
(10.1141 -0.161953 0.0306259)
(10.1948 -0.025638 0.00453554)
(10.1236 -0.0246369 0.0314095)
(10.1823 -0.399288 -0.0273135)
(10.6587 0.125377 0.000320127)
(10.1003 0.0204601 0.0206917)
(9.18821 0.152105 0.384929)
(10.0845 0.0187457 0.0862551)
(9.95188 0.115959 0.0725373)
(10.2113 0.0431285 0.0241456)
(9.97664 0.0149741 -0.000265649)
(9.91724 -0.00479145 0.0732905)
(10.0767 0.0121598 -0.00260498)
(9.88194 -0.0242282 -0.000619059)
(10.2737 0.0553304 0.0170914)
(10.1825 0.0252973 0.0376876)
(10.0106 0.121563 0.0234783)
(10.0103 -0.108135 0.00860279)
(10.1497 -0.174814 -0.0243719)
(10.5247 0.105855 0.103365)
(10.3821 0.191796 0.0243963)
(9.89901 -0.00686649 0.00392175)
(11.3081 0.606047 -0.663937)
(9.98973 -0.0737516 0.00805894)
(10.1128 -0.0649516 0.142194)
(10.1486 -0.099038 0.0226674)
(9.56816 -0.145248 -0.0377341)
(9.98941 -0.107323 0.0213467)
(9.57116 0.394841 0.0112643)
(10.0773 0.100015 -0.024812)
(10.058 -0.153915 0.0222119)
(9.96961 0.0120471 0.153572)
(11.239 0.479183 -0.743225)
(9.97679 -0.0651122 0.0246367)
(10.009 0.114816 0.0231535)
(9.99669 -0.0651179 0.0426652)
(10.0815 -0.0958164 0.022146)
(10.0395 0.105343 0.0271094)
(11.09 -0.0344724 -0.356673)
(10.7362 0.673235 -0.475695)
(10.1266 0.103674 -0.0016518)
(10.2927 0.526882 -0.082769)
(10.8545 0.114628 -0.0121999)
(9.81297 -0.0877891 0.196838)
(6.87659 0.797411 0.118705)
(-0.949212 1.30709 0.383451)
(-1.05694 1.24939 -0.429377)
(10.0354 0.0237701 -0.00176545)
(-0.564615 0.442295 -0.263881)
(0.537473 0.880909 -2.97614)
(-2.83466 1.24738 0.803581)
(-0.830567 1.75215 -0.155132)
(10.6118 -0.0699756 -0.479261)
(-0.60279 1.69836 1.18134)
(-1.27613 1.84271 0.431393)
(-3.70204 2.58376 0.739995)
(4.84312 1.17498 1.80852)
(10.8787 0.968211 -0.112868)
(9.92148 0.0219657 -0.011949)
(11.183 0.390298 -0.154588)
(10.2731 -0.107403 0.0114501)
(-0.381192 1.77682 0.139264)
(10.4457 0.0795691 0.528206)
(10.5555 0.181389 1.07954)
(9.8077 0.332985 1.20644)
(9.53099 0.0101789 1.01338)
(10.3473 0.677378 0.25151)
(10.8618 0.602416 -0.533552)
(1.02207 0.734362 -0.124154)
(-0.625739 1.58037 0.703973)
(0.166011 0.383248 2.08183)
(-0.522941 1.60532 0.748677)
(-0.961054 1.48455 0.348567)
(-1.389 0.002421 1.6404)
(10.5531 0.755214 0.0655574)
(10.78 0.0277869 0.271698)
(9.92959 0.121278 0.0550601)
(10.37 0.0969268 0.0620236)
(10.7439 0.0256063 0.0397785)
(10.2717 0.189514 0.0562741)
(10.1691 0.27464 0.111433)
(10.2882 0.183968 0.0052021)
(9.9497 0.00393132 -0.00219796)
(10.1265 0.11256 -0.0211829)
(10.3631 0.204454 0.106228)
(5.54736 -0.652309 2.79961)
(10.0273 0.0265123 -0.00629319)
(9.81176 0.147666 -0.00287736)
(10.2708 0.0230594 -0.315036)
(9.98307 0.0523081 0.0874064)
(9.1127 -0.283453 -0.633563)
(10.007 0.0795349 0.0227014)
(9.78721 0.169427 -0.0192853)
(10.9151 0.386318 0.0613995)
(10.3022 0.029103 0.0426057)
(10.5741 1.08161 -0.182915)
(10.4894 0.238037 0.00625337)
(10.7812 0.406287 0.158541)
(10.5103 0.0526694 -0.00406879)
(10.3397 1.05179 -0.472371)
(10.3039 0.0778664 0.0331432)
(10.3677 0.382142 0.173639)
(9.26895 1.01472 -1.27573)
(9.64927 1.55727 -0.971636)
(11.2539 0.552915 -0.215093)
(10.0904 -0.0209088 0.00556787)
(9.94195 -0.0984155 0.0310681)
(7.36611 1.48453 0.66743)
(10.6324 -0.341739 -0.116151)
(10.6537 0.736198 -0.179246)
(10.0998 0.161186 0.124711)
(9.91222 -0.144822 0.0257312)
(4.57737 0.520118 2.39157)
(0.990212 0.331126 2.8888)
(5.81954 1.2172 -0.695281)
(1.82472 1.22014 0.465513)
(10.5935 -0.0907835 0.147491)
(10.64 0.0133201 0.16889)
(10.8935 0.210848 0.0693502)
(10.7467 -0.0864665 0.190725)
(9.48283 -0.154813 0.333324)
(11.7114 -0.0290578 -0.766274)
(10.6679 1.21556 -0.93198)
(10.0778 1.54896 -0.714952)
(11.1149 -0.118785 -0.433916)
(10.6258 0.0503293 -0.00512788)
(9.99588 -0.0639341 -0.00467523)
(9.86766 -0.0841393 0.136531)
(10.0019 0.208621 0.0102141)
(10.978 0.566186 -0.633029)
(9.97877 -0.136444 0.0244219)
(-0.370746 1.48994 1.55465)
(9.91909 0.0631642 0.00510222)
(11.1452 0.567098 -0.383339)
(10.2207 -0.0682753 -0.0168019)
(-3.16305 1.45739 1.12125)
(10.5793 0.674855 -0.448945)
(10.4406 0.106579 0.0162259)
(7.03618 0.194017 2.02426)
(10.8313 0.539037 0.00370997)
(3.87648 0.907643 0.963463)
(-0.459815 1.66933 1.62237)
(8.32346 -1.11579 2.02417)
(9.14243 -0.87672 0.379334)
(11.1262 0.0132369 0.507404)
(-1.40567 2.651 -0.105797)
(11.0014 -1.92287 0.175351)
(8.17558 -0.527244 -1.31474)
(10.3951 1.32572 -0.807799)
(-0.732468 1.68728 0.396567)
(-3.00876 1.83487 0.379567)
(7.98383 1.7646 -0.000902734)
(5.54063 0.0635033 -0.762795)
(8.62808 0.966053 -0.0598825)
(10.3317 0.442038 0.0782793)
(11.0986 0.47333 -0.80377)
(9.99707 0.651839 -0.687087)
(10.7069 0.988167 -0.145501)
(10.9078 0.294767 -0.0594515)
(10.5029 0.0471065 0.00173744)
(10.3762 0.0670167 0.00791074)
(10.4509 0.164572 0.000130163)
(8.94581 0.387311 -0.434243)
(9.03929 0.0256522 -1.52771)
(10.1234 -0.0683254 0.0264669)
(10.8484 0.16558 0.0294415)
(10.8553 0.138807 0.0172832)
(4.93055 0.917482 -0.170318)
(6.29083 0.36691 -1.16293)
(10.0751 0.164026 0.0251386)
(9.93945 0.115712 0.389509)
(8.58709 -0.292112 -0.983845)
(10.5282 0.0600153 0.011691)
(10.2185 0.0740246 0.0217495)
(10.1307 0.0482631 0.00320521)
(10.1108 0.127202 0.0341365)
(10.1333 0.12604 -0.0019364)
(10.3148 -0.527428 -0.141236)
(10.0652 0.141337 0.0349263)
(10.3512 -0.0241129 0.188693)
(9.82115 0.0138579 0.381719)
(10.4464 -0.0786494 0.13551)
(10.1126 -0.153647 0.0630584)
(10.2406 -0.107778 0.0615998)
(10.1099 -0.0968779 0.147974)
(9.73596 -0.166388 0.151355)
(10.2625 -0.0724639 -0.0147709)
(10.3724 0.110887 0.116228)
(10.2185 0.150644 0.0570028)
(10.1294 0.273901 0.159062)
(10.24 0.948705 -0.410627)
(10.0192 0.0437116 0.0110212)
(9.98531 0.246722 0.121272)
(8.26235 1.58736 0.0400438)
(7.81291 2.52401 -1.578)
(9.24755 1.57046 -0.492806)
(10.4202 -0.291861 -0.247162)
(10.0642 -0.0707685 0.0681896)
(10.0655 -0.191061 0.123519)
(9.81664 -0.16597 -0.0198611)
(9.87484 -0.0316919 0.0228074)
(9.99835 0.128823 0.0229807)
(10.7602 -0.00232548 0.744675)
(-0.125496 1.48114 0.653892)
(10.1497 -0.10075 0.0427014)
(0.274751 1.2859 3.35384)
(-0.749674 1.19561 0.272662)
(10.4589 0.277441 -0.300542)
(5.40516 1.65749 -0.253594)
(9.41615 0.218163 0.326738)
(8.23863 0.467079 -1.56666)
(7.86621 -0.062847 -0.945668)
(8.15356 -0.0105274 2.19672)
(10.504 0.03766 0.0877566)
(-0.188888 0.753031 0.741772)
(0.504364 0.621671 -2.16786)
(5.24052 -0.595072 2.25981)
(-0.139689 1.20151 0.948133)
(10.0053 -0.0850979 0.0111871)
(10.006 -0.0951388 0.00669186)
(10.0335 -0.117066 0.0136536)
(3.77871 1.45826 1.74968)
(10.0188 -0.0970676 0.004708)
(10.0133 -0.0852471 -0.00269865)
(10.1424 0.0388576 0.137677)
(3.11539 1.11744 0.97879)
(-0.0891265 1.40284 1.39393)
(-3.48171 3.03902 0.898338)
(-2.72836 0.2729 1.31093)
(-2.91415 2.26119 0.275733)
(-0.472921 1.84058 0.660421)
(10.1642 0.806397 -0.969162)
(3.18498 0.262842 2.7786)
(-1.51763 0.487531 -0.285653)
(9.76511 0.905985 0.482418)
(3.65413 0.482363 2.0402)
(0.267517 1.74632 -1.09904)
(9.57257 -0.356828 2.21086)
(-0.251267 3.47775 2.09228)
(-0.593652 1.53295 0.93014)
(-0.916409 2.01726 0.356835)
(9.87689 0.231815 0.0309352)
(-1.83194 2.22624 -0.0173092)
(12.0969 -0.132255 -0.0536556)
(1.5655 0.795022 1.43839)
(-0.449208 1.20699 0.491108)
(9.34303 0.180525 0.44535)
(-0.01594 -1.27121 1.72121)
(-2.53589 2.19299 0.419577)
(-2.9065 2.00367 1.19123)
(10.0317 0.112569 0.0166966)
(6.06468 1.03469 2.61434)
(-1.95923 2.27418 0.225281)
(9.9226 -0.0899503 0.0185506)
(10.8979 0.197667 0.0449418)
(10.551 0.153795 0.00718468)
(-2.4206 3.70602 0.464115)
(8.30957 -0.133781 1.36609)
(10.6834 0.0223457 0.178549)
(10.2568 1.01959 -0.239441)
(9.9996 1.44309 -0.266796)
(9.95036 0.792506 -0.167908)
(10.3276 0.629732 -0.213488)
(10.9207 0.812175 -0.400964)
(3.73232 1.22763 0.324146)
(8.237 2.78414 -0.527481)
(10.8882 0.719313 -0.476138)
(9.83092 1.20518 -0.753996)
(10.6041 0.157849 0.388539)
(3.46408 0.580242 2.364)
(5.7591 0.470623 2.71109)
(2.44908 1.26575 2.52213)
(4.4294 0.458914 2.74343)
(-0.279357 2.36879 -0.380099)
(-0.612396 1.43624 -0.536088)
(10.7279 0.418758 -0.0547701)
(6.05808 0.53887 0.666448)
(10.0931 -0.0115956 0.0306541)
(7.91157 0.705459 2.24853)
(9.2808 0.355229 1.89643)
(11.5673 0.00555279 -0.420587)
(6.11637 0.770203 -0.890866)
(8.39531 1.55709 0.309716)