/*--------------------------------*- C++ -*----------------------------------*\
| =========                 |                                                 |
| \\      /  F ield         | OpenFOAM: The Open Source CFD Toolbox           |
|  \\    /   O peration     | Version:  2506                                  |
|   \\  /    A nd           | Website:  www.openfoam.com                      |
|    \\/     M anipulation  |                                                 |
\*---------------------------------------------------------------------------*/
FoamFile
{
    version     2.0;
    format      ascii;
    arch        "LSB;label=32;scalar=64";
    class       volVectorField;
    location    "0.0100321";
    object      U;
}
// * * * * * * * * * * * * * * * * * * * * * * * * * * * * * * * * * * * * * //

dimensions      [0 1 -1 0 0 0 0];

internalField   nonuniform List<vector> 
3946
(
(10.1087 -0.15998 0.105955)
(10.1009 -0.194322 -0.950154)
(9.76887 0.22229 -0.245869)
(10.0176 0.141297 -0.078763)
(9.80419 -0.275611 0.607682)
(9.6648 0.0504723 0.0862094)
(10.2545 0.103521 0.552358)
(10.1243 -0.414597 0.198227)
(10.0623 0.0810111 0.0133937)
(10.0852 -0.0448511 -0.22383)
(9.57019 0.332081 -0.242797)
(10.1732 -0.0501586 -0.197347)
(9.7935 0.562531 -0.490739)
(9.52631 -0.00285823 -0.226173)
(10.1868 -0.275493 -0.187425)
(10.1814 -0.259375 -0.279168)
(10.1066 0.0945457 0.411306)
(9.70093 -0.0160597 -0.105901)
(9.87849 -0.042654 -0.0969468)
(10.1957 -0.015817 0.0354779)
(9.99764 -0.0647201 0.166815)
(9.8549 0.171306 -0.0154524)
(10.0353 0.113517 0.104484)
(9.81283 0.0376043 -0.522902)
(9.87042 0.164506 -0.301958)
(10.0225 0.120094 -0.0120581)
(10.2671 -0.348542 -1.12876)
(10.8251 -0.211276 -0.267635)
(9.90729 -0.103604 -0.220435)
(9.92081 0.130208 -0.124865)
(10.2049 0.0367428 0.0312486)
(10.1117 0.0057766 -0.411134)
(10.0238 -0.424146 -0.296883)
(10.2199 -0.109566 0.315108)
(9.81236 0.103673 0.335507)
(9.99583 -0.0178815 0.0509007)
(9.44243 0.180078 0.957809)
(10.085 0.353947 -0.564662)
(9.91031 -0.211752 0.0129553)
(9.34924 0.764765 -0.65351)
(10.1324 0.0276877 -0.446967)
(10.0706 -0.0615578 -0.0266657)
(9.99487 -0.709735 -0.247781)
(9.95885 0.250981 0.145969)
(9.72122 0.0713478 0.0604351)
(10.3678 0.219439 0.211691)
(9.8648 -0.0510506 -0.252568)
(9.37016 0.0947989 0.274258)
(10.057 0.222982 0.204433)
(10.0976 0.11083 0.213601)
(9.90641 0.0699685 -0.0913236)
(9.81864 -0.0188829 -0.262692)
(10.3601 -0.0191628 -0.261838)
(10.0907 -0.237059 0.146253)
(10.3222 0.294214 -0.0243031)
(10.0171 0.262401 0.0751288)
(9.6753 0.0561187 -0.27526)
(9.91928 0.474347 -0.00381504)
(10.2529 0.0945241 -0.460575)
(10.0906 0.10254 0.162508)
(10.1092 0.11723 0.465633)
(-0.0537318 1.17934 0.627677)
(10.0179 -0.279657 -0.321633)
(9.92939 0.125614 0.178613)
(10.0914 -0.147643 0.437872)
(-0.161146 0.911756 0.62909)
(-0.62767 0.836459 0.873501)
(0.127241 0.748506 0.191573)
(-0.0663221 1.16125 0.487977)
(10.0444 0.484556 -0.263207)
(9.83978 -0.00238017 0.0207478)
(9.87711 0.293815 0.895641)
(10.6203 0.384096 1.84357)
(10.2762 0.229046 0.226737)
(9.76668 0.0725193 0.0585107)
(10.2317 -0.214328 0.185256)
(9.83872 -0.0540204 -0.214234)
(10.1607 0.131837 -0.0903154)
(10.193 -0.24255 0.0847719)
(9.98951 0.637645 -0.0503942)
(0.274786 0.62974 1.27416)
(10.6747 0.12251 0.495835)
(9.78403 0.0197749 -0.201386)
(9.55395 -0.132369 -0.891749)
(10.2322 0.248812 -0.408512)
(-1.35822 0.630949 -0.0882175)
(9.69307 0.460808 -1.02153)
(-0.104016 1.37229 0.664022)
(-0.22519 1.12683 0.646028)
(0.300844 0.717213 1.10674)
(5.74327 1.17151 -5.04169)
(-2.0263 0.418317 0.908091)
(10.2034 -0.0867321 0.151551)
(9.99247 -0.224539 -0.00426046)
(9.78888 -0.0615125 -0.0334479)
(9.80728 0.0366999 -0.0838846)
(10.3982 0.00058771 0.112783)
(9.89899 0.0335298 0.104277)
(10.3273 0.0388342 0.424666)
(10.0752 -0.0115588 0.38173)
(10.0216 0.130169 0.170836)
(9.97117 -0.256285 -0.501888)
(10.1883 -0.520943 0.0386326)
(7.12438 0.81405 -1.10464)
(9.96945 -0.019324 0.502478)
(9.93717 0.0821768 0.222136)
(8.69847 0.28078 -0.147178)
(9.96139 0.568978 0.263321)
(10.2607 -0.0160087 0.269837)
(10.4164 -0.108827 -0.274906)
(10.0858 -0.064778 0.0238411)
(10.177 0.256305 -0.100599)
(9.81296 0.106846 0.530479)
(10.2041 -0.165413 -0.269373)
(10.1328 -0.00479791 -0.0312099)
(9.91604 -0.00119856 0.17612)
(10.4788 0.0303292 0.902354)
(10.0708 0.244728 -0.193456)
(-0.366547 1.31846 0.311231)
(-0.215542 1.30424 0.721772)
(9.99202 -0.367063 0.0443967)
(10.0698 -0.331043 0.28694)
(10.1953 -0.443439 0.312011)
(9.97113 0.312011 -0.0447939)
(10.1553 -0.20321 0.215742)
(9.72949 -0.0392677 0.281591)
(9.88185 0.156829 -4.89786)
(10.0735 0.302215 -0.700726)
(10.0534 -0.462958 -0.345316)
(9.57506 -0.103636 0.233481)
(10.0151 0.0718902 0.219641)
(13.9295 -0.163633 -1.58388)
(9.9923 -0.0637021 0.241947)
(10.0195 -0.143065 -0.231246)
(10.1009 -0.105466 0.00108131)
(8.98337 -0.0115112 -0.288068)
(10.1631 -0.173955 -0.448922)
(-0.0889665 0.579669 -1.49889)
(10.2333 0.161347 -0.349439)
(3.83422 0.990792 -1.12246)
(11.1393 -0.0766245 -3.39751)
(5.05619 -0.42346 -4.74605)
(-0.531426 2.02445 -0.128955)
(9.94619 -0.117602 0.310069)
(10.6703 0.260679 -0.408365)
(9.79585 0.114034 0.171318)
(10.0514 0.121155 -0.199084)
(9.98696 0.257618 0.150521)
(9.44616 0.49488 0.0948833)
(8.23414 -0.554764 0.689932)
(9.59074 0.741702 -0.715745)
(10.3766 0.282751 -1.1609)
(9.96629 0.15966 0.174508)
(9.62463 0.117956 0.0190323)
(10.0929 0.0738403 0.100681)
(10.0586 -0.168985 0.0880786)
(10.0149 -0.547555 -0.0355769)
(10.1935 -0.0263921 -0.0599363)
(10.1039 -0.377963 -0.406049)
(10.0293 -0.108041 0.0239433)
(9.96181 -0.227571 -0.0595307)
(10.0513 0.203999 0.111467)
(11.3896 -0.0542023 1.3391)
(9.96812 0.433161 -0.0458869)
(9.98944 0.0489569 -0.202784)
(9.71906 0.00725636 -0.195938)
(10.1487 0.00884064 -0.270227)
(10.1904 0.494045 -0.138689)
(10.106 0.0645967 0.237925)
(4.87866 0.0876286 -0.113482)
(10.0196 -0.695493 0.166917)
(8.33047 0.164421 -3.77357)
(10.1582 0.0932848 0.0346286)
(10.0114 -0.0684177 0.101826)
(9.87586 -0.397224 0.309056)
(9.94366 -0.26255 0.256258)
(10.3521 0.0723203 -0.161668)
(9.52179 0.0295693 -0.468383)
(9.82251 0.174994 0.0139396)
(9.37795 -0.0264127 0.979784)
(9.97957 0.0918904 0.082302)
(9.4802 -0.515135 -0.0928126)
(9.88313 -0.0595874 -0.0588461)
(10.122 -0.0242245 0.229595)
(10.3654 -0.0656138 0.0217454)
(10.3569 0.211041 0.288048)
(9.72113 -0.0619343 0.0719627)
(10.1168 0.435064 -0.319519)
(9.69647 0.133652 -0.0277006)
(9.86674 0.0959758 -0.449207)
(9.42731 0.270342 0.00906634)
(9.73097 -0.206179 -0.105304)
(-0.473949 1.45796 0.154078)
(9.77165 0.0832632 0.252218)
(-0.95713 0.529166 0.698791)
(-0.643537 0.527843 1.15158)
(-0.560564 0.812345 1.06784)
(9.82422 0.0194832 -0.0996839)
(9.96237 0.125335 -0.119637)
(9.91464 0.0799665 -0.195233)
(10.1526 0.15512 0.217018)
(9.93144 0.234765 -0.245259)
(10.1115 -0.178278 0.0116591)
(9.91401 0.254589 0.0319017)
(10.0648 -0.010542 0.17934)
(9.84427 0.20299 0.258894)
(10.1009 0.21637 -0.0346351)
(9.83445 0.496764 0.416744)
(9.87724 -0.106535 -0.0113003)
(10.0673 0.401128 -0.401696)
(9.8012 0.388466 -0.402563)
(10.1868 0.271899 -0.145746)
(9.85776 0.0136684 0.116899)
(9.79295 -0.198501 0.141563)
(9.51541 0.0854065 0.285917)
(10.0434 0.0786827 0.0464601)
(9.75148 -0.334685 0.0872962)
(9.94336 -0.16211 0.249713)
(9.53805 -0.124034 -0.153821)
(10.01 0.107279 -0.163374)
(-0.0327785 1.85892 0.447984)
(-0.393582 0.585908 0.785861)
(9.71355 0.109271 -0.322235)
(10.3021 -0.471521 0.431264)
(9.85375 -0.0690446 0.172877)
(-0.12317 0.270771 0.336314)
(-0.113417 0.442065 0.372478)
(9.96112 0.345829 0.515954)
(9.91877 0.20825 0.0954056)
(-0.189264 0.4588 0.248186)
(10.3496 0.104422 0.0617312)
(10.1609 0.159591 0.0738362)
(10.0624 -0.183724 -0.0433652)
(9.4356 0.427959 -0.758125)
(10.0277 0.0591576 0.523508)
(9.83586 0.0498309 -0.609284)
(10.1584 0.279026 -0.239888)
(10.1296 0.294629 0.207929)
(10.3023 0.283082 -0.174206)
(10.0718 0.0224282 -0.0293938)
(10.1012 0.014362 -0.00458241)
(-0.0435689 1.74171 0.640712)
(-0.258073 1.62358 0.249056)
(1.75683 1.3106 -4.00327)
(10.2324 -0.135904 0.0432859)
(10.2331 0.385355 0.427569)
(10.2002 -0.177603 -0.0428007)
(9.99243 0.0483396 -0.0413446)
(10.1535 0.294961 -0.0649814)
(10.1229 0.225756 -0.0574852)
(10.0344 0.0569149 0.276403)
(3.47507 0.366937 -1.54286)
(10.2016 0.0770193 -0.0602216)
(10.724 -0.196095 0.0593025)
(9.55903 0.637053 0.585364)
(10.2647 0.184209 0.00973103)
(9.56619 0.212261 -0.493098)
(10.0218 0.0847062 0.158129)
(11.0853 0.547038 0.500885)
(9.84766 -0.380119 0.142542)
(9.28469 0.167798 0.0395556)
(-0.0935408 1.77391 0.337084)
(-0.051961 1.96426 0.775034)
(9.94872 -0.1458 0.364249)
(10.0584 -0.518782 -0.0641397)
(9.80657 0.280563 0.264793)
(9.78496 -0.0213464 0.162867)
(9.95909 0.217595 0.29203)
(10.0515 -0.170814 0.0144388)
(9.87623 -0.159034 0.341952)
(9.87071 -0.214378 0.37447)
(9.48305 0.117259 0.474091)
(9.97792 0.121019 -0.295593)
(10.1707 0.059299 -0.0181474)
(10.3424 -0.22098 0.153565)
(10.3452 0.0891284 0.0711972)
(10.3315 0.0666052 0.0464417)
(10.13 -0.104349 -0.106195)
(10.2939 -0.419392 0.152523)
(10.3655 0.589009 -0.440756)
(10.348 0.410613 0.156121)
(9.44422 -0.312117 -0.278629)
(9.86689 -0.383953 0.235636)
(9.80829 0.57596 0.0565842)
(9.88601 0.00107147 0.0370131)
(10.2897 0.145448 0.648226)
(9.73215 0.435956 -0.372504)
(9.99581 -0.173048 -0.322851)
(10.0283 0.645874 0.999667)
(9.96968 -0.212209 -0.202039)
(10.1163 0.174851 -0.698726)
(10.0567 -0.194712 -0.354819)
(9.77583 -0.141637 0.0713338)
(10.2755 -0.050153 -0.276092)
(10.1129 -0.0232188 -0.0289276)
(10.1213 0.286777 -1.55045)
(10.2834 0.422372 -0.648763)
(10.3906 -0.0877847 -0.269721)
(9.90719 0.015388 0.0111426)
(0.0303942 0.707882 0.707183)
(9.88686 0.019223 0.00796751)
(-0.171136 0.765379 0.773324)
(-0.00562922 0.558378 0.290517)
(-0.859795 1.11186 0.983387)
(10.0553 -0.00510088 -0.387021)
(10.068 0.358321 0.02859)
(7.03555 0.750218 -2.51731)
(8.35035 0.881298 -1.05834)
(9.46818 0.241048 -0.128526)
(0.0644391 2.11727 0.251734)
(-0.033233 2.20854 0.602275)
(-0.179076 1.12129 1.17641)
(-0.370983 1.30289 0.241546)
(-0.172588 0.967243 -0.11703)
(10.108 0.389347 -0.0665927)
(10.0896 1.2336 -2.42922)
(9.92577 -0.406408 0.0358783)
(10.4104 -0.0442785 -0.148161)
(9.84223 0.021403 0.490982)
(6.17662 0.473249 -3.0113)
(9.33897 -0.046251 -0.605013)
(2.33352 0.805086 -3.25554)
(9.84197 -0.0751544 0.03727)
(9.64063 -0.213519 -1.30498)
(10.0474 -0.0978369 0.154956)
(9.98456 -0.107957 -0.391362)
(10.121 -0.239932 0.218212)
(9.80545 0.0476707 0.23428)
(9.63759 -0.0892142 -0.464648)
(9.67037 -0.329871 -0.177434)
(10.0366 -0.314012 -0.0695513)
(10.1759 0.163254 -0.0106543)
(10.069 -0.369592 -0.191505)
(1.48497 0.0152833 -4.22441)
(-1.04273 2.32436 -2.14562)
(9.91498 0.2432 -0.162329)
(9.87637 0.370692 -0.0203819)
(-0.44362 2.07511 -0.356794)
(-0.328986 0.819777 0.245432)
(-0.833539 1.54279 0.174473)
(10.038 0.510294 -0.0587478)
(-2.17261 0.470219 2.01462)
(-0.848683 0.526676 0.610618)
(10.111 0.0858101 0.0697797)
(-1.17361 1.47033 -1.81515)
(10.8557 0.158685 1.79402)
(9.82514 0.326619 0.221894)
(9.94332 -0.117982 0.115701)
(6.79794 0.841466 0.124502)
(-0.192593 1.44073 -0.798552)
(-1.03126 0.770834 0.357527)
(9.46562 0.0607668 0.0316917)
(2.18968 -0.225837 -4.08605)
(10.0976 0.418594 -0.0289493)
(-1.21125 0.0480326 0.107603)
(-0.321639 0.27141 0.18745)
(7.30826 0.665364 -1.01067)
(9.91632 -0.148529 0.577934)
(3.66752 0.556474 -4.61838)
(-0.850558 0.347052 -0.10577)
(9.46842 0.196609 -2.66017)
(5.39502 1.06285 -0.155024)
(10.1949 0.114772 -0.0246952)
(10.6478 0.100215 0.444412)
(-2.07708 2.48838 -1.03128)
(-0.0529744 1.76822 -0.473784)
(9.56371 0.663616 -0.661597)
(-1.35841 1.46985 0.610044)
(-1.17537 2.04755 0.788055)
(-0.354167 1.99839 1.27564)
(-0.569366 1.35592 0.0330828)
(-0.63726 2.21098 0.150736)
(10.1656 -0.380736 -0.405133)
(10.0347 0.130336 0.0650778)
(10.158 -0.0909049 0.139812)
(10.0251 0.130124 -0.00762671)
(10.172 0.12717 0.292136)
(9.90037 -0.488322 -0.0490904)
(10.0465 0.0828965 0.306124)
(6.9781 0.169421 -0.470306)
(10.3664 0.23695 0.148415)
(10.5491 0.108425 0.466645)
(10.0231 0.433243 0.342806)
(9.91859 0.224528 -0.106552)
(10.0606 0.525174 -0.292692)
(10.1533 0.241603 -0.138193)
(9.97098 0.104118 1.40233)
(9.81196 0.489402 -0.154148)
(9.72852 0.202558 0.123779)
(10.2776 0.100241 0.090934)
(5.85119 0.746893 -5.03388)
(10.0677 -0.0414823 0.100411)
(10.2918 0.129569 0.00135004)
(-0.31629 2.17657 -0.11621)
(10.2186 0.492879 -0.183097)
(0.349852 1.83865 0.9127)
(10.0706 -0.198083 -0.0348632)
(10.4631 0.27481 1.4542)
(9.53532 0.421888 0.0359077)
(10.0464 0.383426 -0.190499)
(10.0058 0.558704 -0.151218)
(9.86563 0.0959717 -0.44061)
(10.278 0.103344 0.330257)
(10.0433 -0.131266 -0.198665)
(10.1098 0.213047 -0.0389166)
(10.2209 -0.17179 0.536049)
(9.12321 0.334265 -0.580359)
(9.87445 0.328932 -0.0296643)
(10.0345 0.299663 -0.0509433)
(10.0767 0.157447 0.0564494)
(9.34018 0.404352 0.190082)
(9.99456 0.0510809 0.045216)
(9.62496 0.115121 0.183909)
(10.3802 -0.134377 -0.0157109)
(10.3225 0.206548 0.187835)
(10.4738 -0.0946076 0.0211035)
(10.0219 0.0494359 0.0420181)
(9.97362 0.274878 -0.120587)
(8.22096 0.402356 0.711196)
(10.1984 0.0405413 -0.402753)
(9.73513 0.143158 0.165163)
(7.80549 0.613587 0.58645)
(9.94988 0.14759 -0.266094)
(6.33505 1.03168 -2.19359)
(9.87952 -0.184173 0.645289)
(10.0058 -0.169277 0.119931)
(9.922 -0.0388349 0.0308546)
(9.88121 -0.195219 0.0720722)
(9.94829 0.0447237 0.257448)
(9.94863 -0.169342 -0.281269)
(10.003 0.068095 0.165871)
(9.94395 0.159138 0.459448)
(10.0699 -0.0282554 -0.404778)
(10.1566 0.18265 -0.154357)
(9.81013 0.161161 -0.309734)
(9.85498 -0.0819465 0.127275)
(10.0706 0.346537 0.197351)
(9.93387 -0.06211 0.102442)
(10.2049 0.0489129 0.271309)
(10.0241 0.264807 -0.0340668)
(9.98025 0.371702 0.0468921)
(10.1004 0.404809 0.162767)
(10.0295 0.0982258 0.334756)
(10.123 0.153907 0.143704)
(10.2421 0.0959187 0.0157082)
(2.49047 -0.0143695 -2.00604)
(4.31764 0.673269 -2.33456)
(9.86677 0.271042 0.0208253)
(10.1662 0.172354 0.428324)
(9.89999 -0.0265481 0.109291)
(10.0733 -0.0859221 -0.212309)
(9.47911 0.350946 -0.19591)
(10.1174 0.287635 0.15946)
(10.1711 -0.0742116 0.0314387)
(10.3627 0.199564 -0.168054)
(9.95288 0.14152 -0.44265)
(10.5684 -0.0502647 0.0339924)
(10.2928 0.246796 -0.186247)
(9.92071 -0.0126996 0.0833618)
(9.93334 -0.0661768 0.210715)
(9.53688 0.0906221 -0.253241)
(10.0853 -0.00777096 -0.0296411)
(-0.224675 0.320313 0.806385)
(9.53825 0.263504 -2.32668)
(3.99314 0.677872 -5.20632)
(5.7147 -0.0924156 -3.78225)
(9.97874 -0.24244 -0.184758)
(9.71494 0.133797 -0.70438)
(3.7536 0.981679 -4.60751)
(10.6567 -0.0380888 0.866502)
(10.2409 0.149339 0.988658)
(9.55895 0.340265 0.387602)
(9.69596 0.590789 0.299034)
(10.0097 0.174644 0.194007)
(10.0132 -0.225751 0.0935801)
(9.93256 -0.216791 0.108655)
(9.63605 0.403125 -0.148788)
(10.017 0.175224 -0.0741924)
(10.3219 0.23719 -0.115252)
(9.93933 0.246851 -0.00965498)
(-0.613688 1.66532 0.379567)
(6.49838 0.495808 -5.83874)
(9.17833 0.482457 -2.81017)
(9.94635 0.406145 0.027114)
(10.0796 -0.120408 0.424393)
(9.98409 -0.175489 0.116991)
(9.50341 -0.390998 0.163623)
(10.1546 -0.00439218 -0.0639094)
(9.96703 0.231493 -0.0217056)
(9.96103 0.275964 0.11154)
(9.94145 0.24801 0.002887)
(9.52858 0.134648 -0.102824)
(9.88825 0.0730054 -0.165126)
(9.94431 -0.0873977 -0.0317054)
(10.1782 0.0717305 -0.105298)
(9.96613 0.167998 0.0806233)
(10.1546 -0.0687095 0.138033)
(10.4259 0.0808198 0.391793)
(9.6062 0.436639 -0.134291)
(10.2899 0.42045 -0.147576)
(10.3303 0.292635 -0.0941957)
(9.8582 0.232954 0.240899)
(9.87097 -0.696213 0.965937)
(9.68762 0.296423 0.400559)
(9.71204 -0.305184 0.414335)
(10.1638 0.0783241 0.044696)
(10.0878 0.23628 0.121778)
(3.74546 0.338705 -2.13301)
(0.184396 1.05398 2.5429)
(9.91077 -0.158988 0.131435)
(-1.26834 0.0920665 2.97932)
(-1.93818 0.428302 0.0233031)
(9.82819 -0.277046 -0.270209)
(9.34676 0.139661 -0.409607)
(10.2142 -0.000400593 -0.46576)
(4.29939 0.953914 -1.83755)
(9.62836 0.354715 -0.247637)
(9.55243 0.317073 -0.0951014)
(10.0303 0.0307677 -0.111688)
(9.83455 0.178286 0.14137)
(10.1139 0.0296418 0.109013)
(9.97261 -0.00765972 0.304669)
(10.3739 -0.126613 0.015855)
(10.4421 0.0737922 -0.0766309)
(10.2822 0.0347063 0.250425)
(10.1526 0.168685 -0.0237441)
(10.1446 0.0797332 0.057727)
(10.1905 0.139395 0.360998)
(9.68974 0.571326 -0.33144)
(6.37085 1.01005 -2.79247)
(0.5646 0.845806 -0.274043)
(7.3399 0.670577 -0.609235)
(10.053 0.155002 0.0236658)
(8.95099 0.358062 -5.17653)
(-0.536857 1.72011 -0.317935)
(7.27544 0.334449 1.5634)
(10.1493 0.147043 0.232162)
(10.1478 0.322948 -0.147022)
(10.3413 -0.349859 0.150531)
(9.86068 0.107707 0.013041)
(10.3305 -0.157348 -0.0608993)
(10.2372 -0.0668032 0.156056)
(10.0252 0.0606049 0.239963)
(9.9168 0.467856 0.0887258)
(10.1084 0.0562615 -0.217903)
(9.79306 -0.198516 0.455745)
(9.97713 -0.0830667 0.00436602)
(9.99245 -0.124592 0.01311)
(10.022 0.612933 -0.294527)
(9.993 0.209248 -0.155287)
(9.84599 -0.233975 -0.0149502)
(9.61248 -0.234641 -0.271351)
(9.85431 0.348815 0.307836)
(9.66578 -0.436879 0.280197)
(9.8431 0.20456 0.0723327)
(10.0496 0.100575 0.00713515)
(9.86399 0.29162 0.236347)
(9.8827 0.248878 0.0470273)
(9.96443 0.292479 -0.0174825)
(10.0684 -0.224409 -0.432986)
(10.4052 0.262507 0.270722)
(10.0642 -0.0206101 -0.439761)
(9.79889 0.100541 -0.150888)
(10.1496 0.0365007 0.215471)
(10.2144 0.174914 -0.143123)
(9.93898 0.327906 0.371478)
(9.90619 0.187472 0.382411)
(10.0484 0.0178756 0.169524)
(9.94196 0.140009 -0.219932)
(2.21442 1.57581 -3.44834)
(9.93747 -0.497947 -0.327196)
(9.64555 0.689028 0.267197)
(9.66211 0.359621 -0.155733)
(10.0085 -0.245861 -0.0209546)
(9.79899 -0.000919246 -0.0851744)
(9.91847 -0.15971 -0.0887869)
(9.94008 0.0172989 0.173733)
(10.0019 0.226667 -0.112331)
(10.0032 0.096599 0.140688)
(9.9085 0.105771 0.203608)
(9.91394 0.102384 -0.327506)
(9.94133 -0.219776 -0.0316477)
(10.2367 0.0367784 0.00946919)
(10.1318 -0.072642 0.116068)
(10.3232 -0.223542 -0.296935)
(10.2597 -0.0718216 -0.228572)
(10.0669 -0.350829 -0.142022)
(9.89542 0.050703 0.0176371)
(9.93732 0.042984 0.1345)
(10.3019 -0.07596 0.0255801)
(10.4373 0.0950495 -0.44911)
(10.2789 -0.0189118 -0.403281)
(9.93937 0.263315 -3.65065e-05)
(10.3094 0.0499952 0.507969)
(10.1037 -0.210489 0.294123)
(9.99307 -0.117603 0.024125)
(9.94631 -0.115501 0.329747)
(9.87077 0.0189518 0.286204)
(9.83057 0.055371 0.0652306)
(10.2315 0.255353 -0.768393)
(10.162 -0.016744 -0.0313061)
(10.0634 0.275544 -0.106291)
(9.87583 -0.173335 0.26975)
(11.4431 0.160265 1.23724)
(9.74283 -0.00754592 -0.0496055)
(9.7733 0.346028 0.360283)
(10.2974 0.150576 -0.0802346)
(10.0078 0.126028 -0.373402)
(10.4201 -0.0805705 -0.0225523)
(9.95141 0.0277848 -0.111569)
(10.0961 -0.100161 0.305846)
(9.72081 0.127088 0.130255)
(10.2191 0.413224 0.187669)
(9.50506 0.400028 0.136221)
(9.89976 -0.0788366 0.121737)
(9.78229 -0.546244 -0.332515)
(10.1301 -0.0958289 -0.0513812)
(10.4371 0.183399 0.162374)
(9.86718 0.193731 0.0106499)
(9.83942 0.186001 -0.123594)
(10.6304 1.06673 -0.511793)
(3.65656 1.16286 -4.47303)
(1.73844 1.10559 -3.4193)
(-1.39191 0.872986 -1.85032)
(9.73844 -0.318996 -0.412284)
(10.0287 0.293385 -0.0490285)
(9.75333 -0.261196 0.290497)
(9.98176 0.392857 0.223329)
(9.97209 0.261262 0.381958)
(9.95577 0.104291 0.155362)
(10.1952 0.0728812 -0.00590058)
(10.0259 0.312712 -0.142451)
(9.44453 0.347113 -0.367745)
(9.48368 0.319976 -0.747211)
(8.59865 0.375304 -0.620377)
(9.0338 0.594734 -1.37819)
(9.78145 0.0663387 -0.156511)
(9.24051 0.310168 -0.36902)
(10.1181 -0.657403 0.128962)
(9.39673 0.263624 -0.386995)
(10.0604 0.465329 -0.601831)
(9.73576 0.418796 -0.355413)
(10.0103 -0.203739 -0.221742)
(9.91725 -0.0505803 0.493529)
(10.0174 -0.0591726 0.131886)
(9.91654 0.175374 0.346702)
(9.806 -0.254347 -0.166479)
(9.77839 0.302445 0.18909)
(9.9773 0.379003 -0.45794)
(9.85256 -0.217784 0.36347)
(9.87004 0.179485 0.345175)
(10.2781 -0.197555 0.0136285)
(9.88673 -0.178994 0.146758)
(10.133 -0.240884 -0.103989)
(9.76602 0.738392 0.00949346)
(10.2853 -0.228519 -0.108982)
(10.1858 -0.112158 -0.19949)
(10.2125 -0.285949 -0.417231)
(9.8261 0.0245235 -0.184399)
(10.1951 -0.0923669 -0.106601)
(9.81863 -0.147589 -0.327602)
(10.0355 0.280253 -0.298591)
(9.53332 1.38096 0.31799)
(9.9798 0.496779 0.516681)
(10.0203 -0.0347948 -0.175025)
(10.46 0.509174 0.309168)
(9.81286 0.353565 -0.0119232)
(10.5933 -0.178306 -0.451113)
(10.3168 0.0927043 0.243691)
(9.98597 0.229688 -0.153016)
(10.2866 0.141179 -0.0266332)
(10.1516 -0.266666 0.155142)
(9.85638 -0.128177 0.346324)
(-3.08231 2.27903 1.04805)
(-1.83242 0.943714 -0.798958)
(-1.29075 1.06949 1.39911)
(10.0963 -0.0554157 0.112477)
(9.84462 -0.15653 0.0459802)
(10.7614 -0.438692 0.715076)
(9.97894 0.377467 0.0216341)
(9.18386 0.0715044 0.840634)
(-1.83681 1.73756 0.154282)
(9.85221 0.226868 -0.105358)
(-2.08478 1.10709 1.23347)
(9.81388 0.278291 -0.951985)
(10.142 -0.47503 -0.615623)
(9.97053 0.039257 0.157643)
(9.947 -0.042789 0.187154)
(10.0736 0.463094 -0.0446961)
(10.0696 0.248511 -0.242229)
(10.0178 -0.00383296 -0.0744802)
(10.0752 -0.124637 -0.265215)
(10.1283 -0.235176 0.341594)
(10.1448 -0.333225 -0.5785)
(10.0305 0.0418394 0.107945)
(10.0662 -0.115543 -0.162662)
(11.4563 0.15366 2.18778)
(2.62804 -0.134888 -0.767839)
(10.1105 -0.452207 -0.376006)
(6.00077 0.468317 -0.0446764)
(5.28803 -0.0878366 -3.078)
(9.98906 -0.030894 0.680324)
(9.80282 0.287322 0.352295)
(10.295 0.19941 -0.161975)
(9.97295 0.132905 -0.0495075)
(10.0087 0.387106 0.0510347)
(9.60267 1.06923 -0.294813)
(9.64943 0.0214741 0.00215511)
(9.49996 -0.224188 0.519036)
(9.90478 0.0626945 0.110445)
(9.79516 -0.374098 -0.342391)
(9.88189 0.275944 0.494871)
(9.48265 0.336821 -1.09647)
(10.0602 -0.115381 -0.769744)
(9.83363 -0.549283 0.0685377)
(10.4967 0.576414 -0.707732)
(10.0238 0.0529729 0.432023)
(10.1992 0.241239 0.118492)
(10.0571 0.148988 0.0202398)
(10.1094 -0.434149 -0.497772)
(10.2439 -0.4391 -0.507013)
(10.0655 0.00152542 -0.176216)
(9.8738 -0.0125772 -0.129976)
(9.91051 -0.178433 0.000414219)
(10.0343 -0.222827 0.566891)
(9.91894 0.164117 0.00302721)
(9.93921 1.45466 -0.529427)
(10.1102 0.604233 -0.320105)
(9.90727 0.308116 -0.270122)
(10.1299 -0.121738 0.0645816)
(10.0476 -0.166844 -0.235169)
(9.7985 -0.288923 0.180176)
(10.0527 -0.333967 0.391613)
(10.1022 0.0744462 0.0684719)
(10.1391 -0.510827 0.768856)
(9.92049 0.856304 -0.770485)
(9.84205 -0.0762176 -0.037018)
(10.1678 0.405671 -0.369819)
(10.1063 -0.052243 -0.15718)
(10.1008 0.00448275 -0.321005)
(10.1022 0.457471 -0.538389)
(10.0638 0.00612229 0.127512)
(10.0511 -0.0871496 -0.222307)
(9.77764 -0.200964 -0.258927)
(10.0313 0.296332 0.0790855)
(9.88436 -0.415822 -0.0419492)
(9.82035 0.437781 0.32348)
(10.4627 0.276575 -0.0901634)
(9.91385 -0.0682752 0.505215)
(9.63739 -0.036191 0.209983)
(-0.487211 0.628025 0.434925)
(0.0990165 1.18213 -2.20571)
(10.0002 0.0644854 -0.550745)
(2.7085 0.171346 -1.42049)
(1.88638 1.39576 -2.84553)
(3.37402 0.349812 -2.77963)
(1.49023 0.513089 -0.840654)
(9.99184 -0.180662 0.211597)
(-0.571604 -0.161264 1.2073)
(-1.58816 1.23112 0.631469)
(-0.628504 1.94588 0.107103)
(8.85699 0.466889 1.49185)
(10.0342 0.383102 0.0548691)
(9.73344 0.0249596 -0.288896)
(10.3151 0.410074 -0.122983)
(10.0958 0.0500152 0.195019)
(-0.304495 0.690103 0.241833)
(10.0237 -0.0867947 0.322234)
(10.3068 0.0155151 0.758781)
(10.1555 -0.0636234 0.67951)
(9.93268 -0.0124876 0.436404)
(10.0133 0.137653 0.177426)
(9.86353 0.0873794 0.229663)
(1.2683 0.580963 -0.912675)
(-0.993219 0.589459 0.867925)
(6.50139 0.0764394 -3.98539)
(-0.757129 0.614655 1.0195)
(-1.04188 0.857221 0.937418)
(-0.760762 2.34761 0.890457)
(10.0141 0.188251 -0.141657)
(10.2492 0.106887 0.115685)
(9.9554 0.250774 -0.0989199)
(9.909 0.0827251 -0.592165)
(10.3023 0.0322102 -0.158585)
(9.72522 0.156559 -0.0372025)
(9.9916 0.068397 -0.118686)
(10.2508 -0.0902162 0.186621)
(10.1033 -0.177605 0.219265)
(9.94465 0.608896 0.253048)
(10.1044 0.0958133 0.282372)
(10.1931 -0.0856435 0.434623)
(10.093 0.116666 -0.0695672)
(10.1519 -0.128813 0.0968975)
(10.1362 0.126402 -0.152185)
(9.93684 0.00955651 -0.0941832)
(9.54872 0.0507289 -0.171777)
(10.0611 -0.324682 0.448837)
(10.0361 0.0148295 0.359646)
(10.0897 0.218046 0.0314276)
(9.71563 0.296736 -0.0623049)
(10.0041 0.458206 -0.0742842)
(10.5291 -0.0501703 -0.0798215)
(10.0526 0.0910554 -0.0801768)
(9.9213 -0.0657774 0.0358797)
(10.0757 0.285455 -0.0303437)
(10.1943 0.0332739 -0.237724)
(10.0434 0.150814 0.18207)
(9.85292 0.0838371 -0.111397)
(9.65125 0.340882 -0.130962)
(10.3403 0.361704 -0.0907332)
(10.0766 -0.385437 -0.0409325)
(10.0951 -0.388591 0.0308934)
(9.74606 0.299563 0.341758)
(9.35886 -0.385792 -0.112892)
(9.94292 0.201279 -0.0411126)
(10.0704 0.128824 0.0553467)
(10.1079 0.342007 1.0073)
(8.96753 0.188767 1.07126)
(6.91537 0.217543 0.814728)
(9.72255 0.0599108 0.218002)
(8.84125 0.249269 0.356152)
(9.9521 -0.0123826 0.275584)
(10.1086 0.00414779 0.405027)
(10.2385 -0.131602 0.0142338)
(10.1153 -0.189207 0.341538)
(9.9444 -0.403651 0.372275)
(9.93599 0.435295 -0.0030569)
(9.842 0.633263 -0.164545)
(9.82166 0.366458 -0.0419138)
(9.96529 0.130496 -0.155181)
(10.5362 0.0344118 0.715919)
(10.3084 -0.238393 -0.090694)
(9.9886 -0.189855 -0.0608565)
(9.73372 0.864005 1.18332)
(10.0981 0.30111 -0.0490038)
(10.0946 0.0988449 -0.00504965)
(-1.76283 1.24591 2.89309)
(9.54067 -0.232679 -0.0552701)
(10.0931 0.452634 -0.183544)
(9.31515 0.559534 1.10514)
(1.20619 1.23264 -3.19589)
(9.99013 0.307789 -0.0167138)
(9.84172 -0.228249 0.0996673)
(9.99467 0.053541 1.6949)
(10.2279 0.308889 0.136565)
(11.0536 0.519746 -2.94852)
(-2.41157 0.80202 1.90544)
(12.2961 -0.0734774 -3.41788)
(9.27292 0.173436 -1.85583)
(10.5598 0.130957 0.496747)
(2.44306 0.678831 -1.85318)
(10.416 0.438461 -2.44247)
(9.29611 0.50371 -0.927579)
(9.88055 0.551539 -0.0362388)
(-0.957586 1.08621 0.471903)
(-0.094356 2.09559 -0.175548)
(9.73519 0.242466 0.225193)
(9.17723 0.0379694 -0.256592)
(9.99755 0.123679 0.189353)
(9.8117 0.0306909 -0.0576654)
(9.75296 0.290156 -0.09502)
(9.32485 -0.443809 0.360855)
(9.96208 0.422634 0.0516101)
(10.2248 0.172222 -0.033786)
(10.2844 0.383578 0.0900879)
(9.99839 0.612791 -0.37319)
(10.1972 -0.560805 -0.391148)
(10.069 0.218512 0.0229846)
(9.54524 0.107372 -0.00444321)
(9.90327 0.323585 -0.189666)
(10.2256 -0.0215349 0.133626)
(10.2732 -0.174598 0.0873169)
(9.64164 0.0570564 0.225435)
(9.4101 0.341957 0.00999572)
(9.77504 0.00659572 0.161813)
(9.77997 -0.0252439 0.212728)
(9.80046 -0.0398719 -0.275655)
(10.1141 -0.159717 0.047837)
(9.78464 -0.104903 0.0883353)
(9.88721 -0.0644423 -0.349748)
(10.0866 0.152858 -0.044391)
(10.1242 0.160874 0.213497)
(9.72963 -0.295422 0.112123)
(10.0415 -0.203554 0.102873)
(10.283 -0.0174193 0.263677)
(9.96839 0.115897 0.171324)
(9.89578 0.0353342 0.15392)
(9.92369 -0.0723788 0.217626)
(9.67988 -0.111829 0.34561)
(9.94518 0.216509 -0.404452)
(9.95267 -0.0559896 0.0351278)
(9.34372 0.0330969 0.542592)
(9.86969 0.146356 -0.100629)
(9.98646 -0.0239475 0.223955)
(9.98454 0.0099828 -0.185153)
(9.96552 0.33083 0.183693)
(9.76535 -0.131752 -0.0311894)
(9.86511 0.00626209 0.107412)
(9.80576 0.253647 0.175386)
(9.71179 0.285943 0.0635413)
(9.97961 0.0901002 -0.0474015)
(9.89854 -0.250846 -0.317779)
(10.2224 0.39645 -0.0722039)
(9.80981 -0.19311 -0.202481)
(9.9246 -0.338848 -0.0893466)
(9.71936 -0.292287 -0.358519)
(9.90396 -0.00222682 -0.202497)
(9.99055 0.01268 -2.82802)
(4.72811 0.48333 -5.84613)
(9.86405 -0.384671 -0.103243)
(7.52401 0.189799 0.8592)
(-0.387537 0.614796 -0.276232)
(10.0328 0.214599 0.0832855)
(9.67113 0.284481 0.246917)
(10.0993 0.0181179 0.356543)
(9.81752 -0.068266 0.2598)
(9.77559 0.0674012 -0.113746)
(10.8091 0.089241 1.7001)
(10.0376 -0.184472 0.331424)
(-1.46173 -0.137599 -0.259874)
(2.15423 -0.349837 -2.99693)
(7.48954 0.106534 1.8026)
(-1.26389 0.480203 1.19846)
(9.83832 -0.398789 -0.561177)
(10.0683 -0.0781382 -0.0299851)
(9.98158 0.337183 -0.125046)
(5.51641 0.517504 0.418709)
(10.0439 0.1196 0.0129433)
(9.86239 0.256849 -0.24967)
(9.73394 0.026173 0.318408)
(8.12332 0.436561 -2.87874)
(0.297396 0.854314 1.91571)
(-0.931037 2.01153 0.466179)
(5.32653 1.5481 -4.40241)
(4.08241 1.60535 -3.60373)
(-0.501918 1.09219 1.10365)
(10.0781 0.198067 -0.0791031)
(6.91409 0.140131 1.33552)
(4.50278 0.167335 -3.44944)
(9.97515 0.245805 0.0875308)
(7.62152 0.225975 1.45591)
(1.23635 0.231388 -0.304636)
(11.0685 0.0754107 1.72347)
(7.39535 0.275948 0.619324)
(-1.322 0.556509 1.30128)
(-0.388693 1.0092 -0.162248)
(10.001 -0.0442231 -0.0357977)
(0.312892 0.950451 -1.51806)
(9.68898 0.207102 -0.118248)
(6.90607 -0.180954 -2.39127)
(-0.169748 -1.29139 -1.62786)
(9.99896 0.119061 0.368548)
(7.80414 1.23473 -4.32963)
(-0.231979 1.60299 -0.339429)
(-0.265957 2.29863 0.316668)
(9.67478 -0.15616 -0.460207)
(9.07963 0.271417 2.02628)
(-0.964147 1.54902 0.107518)
(9.67836 -0.17534 -0.23877)
(10.3651 0.226143 -0.0314405)
(10.2281 -0.0275382 -0.212498)
(2.62175 1.56843 -1.84896)
(11.0325 0.23653 1.40038)
(10.0234 0.125465 0.0432166)
(9.90575 0.256788 0.020131)
(9.93891 0.262627 -0.0435323)
(10.0051 0.308139 -0.0742032)
(9.74384 0.343594 0.28118)
(9.969 0.55729 -0.194682)
(9.34862 0.189033 0.241309)
(9.57308 0.382916 -0.0345018)
(10.0335 0.594297 -0.234213)
(9.89713 0.306247 0.00340109)
(9.94703 -0.17573 0.124059)
(5.82637 0.781437 0.83724)
(8.07344 0.338717 2.0128)
(5.77915 0.694006 0.758274)
(7.55036 0.273669 1.8269)
(1.77235 1.08319 -1.18364)
(2.2348 0.924659 -0.692066)
(10.1054 0.225252 -0.098002)
(9.52319 0.144606 0.345461)
(10.059 0.29201 0.220433)
(10.6779 0.25269 1.88156)
(10.5462 0.209245 1.34585)
(10.096 -0.195988 -0.552548)
(9.55285 -0.012347 0.107126)
(9.89225 0.301963 0.172341)
(6.23047 0.306295 -0.307588)
(10.2682 0.174263 0.0251036)
(10.0339 0.0531895 0.17063)
(10.2582 0.0260721 -0.0624969)
(10.115 0.034331 -0.220449)
(9.50815 -0.317394 0.301716)
(9.65793 0.263756 0.173165)
(9.64706 0.312256 0.10678)
(10.1441 0.260827 -0.218155)
(10.2712 0.18225 -0.0613982)
(10.2611 0.167985 -0.0471697)
(10.1248 0.119661 0.166416)
(10.0933 0.362503 -0.0427378)