/*--------------------------------*- C++ -*----------------------------------*\
| =========                 |                                                 |
| \\      /  F ield         | OpenFOAM: The Open Source CFD Toolbox           |
|  \\    /   O peration     | Version:  2506                                  |
|   \\  /    A nd           | Website:  www.openfoam.com                      |
|    \\/     M anipulation  |                                                 |
\*---------------------------------------------------------------------------*/
FoamFile
{
    version     2.0;
    format      ascii;
    arch        "LSB;label=32;scalar=64";
    class       volScalarField;
    location    "0.0263738";
    object      nut;
}
// * * * * * * * * * * * * * * * * * * * * * * * * * * * * * * * * * * * * * //

dimensions      [0 2 -1 0 0 0 0];

internalField   nonuniform List<scalar> 
3972
(
0.00392394
0.00389514
0.0073511
0.00718919
0.000347397
0.00303295
0.00353028
0.0038427
0.00467728
0.00140138
0.00310982
0.00405233
0.00502724
0.00714043
0.00735372
0.00752378
0.00731738
0.00316845
0.00726264
0.00629252
0.000865042
0.00171006
0.00351328
0.00704486
0.000304943
0.0070315
0.00726156
0.00543942
0.00182216
0.00735041
0.000724227
0.000578422
0.00721428
0.00160033
0.00740975
0.00745148
0.00268154
0.00619408
0.0067156
0.00277781
0.00615198
0.00718052
0.0024243
0.00185487
0.00647848
0.00667302
0.0056196
0.00233828
0.00349422
0.00684646
0.0060695
0.00432585
0.00240331
0.00444441
0.0017594
0.0066758
0.00293605
0.00364238
0.00294285
0.00144342
0.00397966
0.00312219
0.00690589
0.00316739
0.00610721
0.00280987
0.000969359
0.00312218
0.00335762
0.00284989
0.00300488
0.00371433
0.00149679
0.00744069
0.00153781
0.00749153
0.0022551
0.00351241
0.00555127
0.000984901
0.00205905
0.00658251
0.00755487
0.00506512
0.0042175
0.00432859
0.00512412
0.00208673
0.0036119
0.00374665
0.00128117
0.00277764
0.00150253
0.0015255
0.00714484
0.00739838
0.00745249
0.0066038
0.00601357
0.00727674
0.00738468
0.0072953
0.00670145
0.00703516
0.0036395
0.00479972
0.00297425
0.00647202
0.00216374
0.00736669
0.00178175
0.00735319
0.0075279
0.000962887
0.00305802
0.00644123
0.00731809
0.00302786
0.00333895
0.0016952
0.000865893
0.00301661
0.00371882
0.00434132
0.0068888
0.00115982
0.00311352
0.00128129
0.00117835
0.00100995
0.00153709
0.0019728
0.00109153
0.000634914
0.00373426
0.00374075
0.00308556
0.00324949
0.00298261
0.00460495
0.00153746
0.00747614
0.00193401
0.00153418
0.0028486
0.00579433
0.00241726
0.00745959
0.00315019
0.00131148
0.0053916
0.0042486
0.00720547
0.00455077
0.00251142
0.00424534
0.00659985
0.00182596
0.00216902
0.000959169
0.00755475
0.00752839
0.00495152
0.00413133
0.00710515
0.00135716
0.00531071
0.00297889
0.00386611
0.00272276
0.00164063
0.00630033
0.00752409
0.00754786
0.00700301
0.00689191
0.00552669
0.00754674
0.00752202
0.00754233
0.00492404
0.00324452
0.00460361
0.00219758
0.00740075
0.00738698
0.00708055
0.00625083
0.00726669
0.000252484
0.00732705
0.00745927
0.00128256
0.00738383
0.00693433
0.00731983
0.00727073
0.00469461
0.00272194
0.0063953
0.00726453
0.00377434
0.00292734
0.00628258
0.0074633
0.00521717
0.00731349
0.00284443
0.00231851
0.00361196
0.00268169
0.00484248
0.00168942
0.00166109
0.00686391
0.00460918
0.0015491
0.00543689
0.00384776
0.00492517
0.00719814
0.0015241
0.0044752
0.00702955
0.000715296
0.00706339
0.000251587
0.00150796
0.000354163
0.00126363
0.000312169
0.00098134
0.000837055
0.000663789
0.00473423
0.00665485
0.00396323
0.00755157
0.00218549
0.00251372
0.00241149
0.00131352
0.000882055
0.00200159
0.00304965
0.00725631
0.00422194
0.00724146
0.00720657
0.0024226
0.00715594
0.000260211
0.00136672
0.00241377
0.00733913
0.00325255
0.000717276
0.00159371
0.00706117
0.00317648
0.00121631
0.00305742
0.0040334
0.00716301
0.000761359
0.00203753
0.00736307
0.00110497
0.00252191
0.00700585
0.00357325
0.00174671
0.000781533
0.00101078
0.00141627
0.000884623
0.00565479
0.00278415
0.00735952
0.00752483
0.0038443
0.00122208
0.00736955
0.000657584
0.000349378
0.00031006
0.00696607
0.00526562
0.00723275
0.00554631
0.00730261
0.00532359
0.00278719
0.0069835
0.000661102
0.000977481
0.00549793
0.000937967
0.00385826
0.000262535
0.00738226
0.00586519
0.00337264
0.00295109
0.00377743
0.00339401
0.0025521
0.00293907
0.00573867
0.00365602
0.00266585
0.00672238
0.000828019
0.00368946
0.00057322
0.00731993
0.00693066
0.0071055
0.00493541
0.00734125
0.000783915
0.000342221
0.00359074
0.00745995
0.00754269
0.00317541
0.00686641
0.00712337
0.0073227
0.00277421
0.00656545
0.00078052
0.00176822
0.00743376
0.00749445
0.00296804
0.00698282
0.00200615
0.00740138
0.00287329
0.00125351
0.00750215
0.0011985
0.00708652
0.00695563
0.00745257
0.00407117
0.00314244
0.0062022
0.00339232
0.00644885
0.00298112
0.00509533
0.00617544
0.000299558
0.000869067
0.000577887
0.00477376
0.00455676
0.00755405
0.00751371
0.00748917
0.00716653
0.00203546
0.00696196
0.00704282
0.00477063
0.00633683
0.00535613
0.00673281
0.00744433
0.00670089
0.00718479
0.00744929
0.00382641
0.00660006
0.00688592
0.00355652
0.00507543
0.0035546
0.0071966
0.00368562
0.00735205
0.00157422
0.00622787
0.00137396
0.00740496
0.00116353
0.00537757
0.00552692
0.00142939
0.00712478
0.00211644
0.00723604
0.00160074
0.00498311
0.000142261
0.000392798
0.00717643
0.00730085
0.00151077
0.00728856
0.00757658
0.00501635
0.00144561
0.00756655
0.00410993
0.00100455
0.00685043
0.00499016
0.00748253
0.00204154
0.0058808
0.00716792
0.00386387
0.000295102
0.00649249
0.00712815
0.00721269
0.00716035
0.00721061
0.00293106
0.00757973
0.00722462
0.00534346
0.00699828
0.00322238
0.00738833
0.00154283
0.00436592
0.00711655
0.00454869
0.00396816
0.00665837
0.0069147
0.00289141
0.00329509
0.00427435
0.00681634
0.00426721
0.00700508
0.00346019
0.00678018
0.00612019
0.00708366
0.0072911
0.00505128
0.00695567
0.00595507
0.00701707
0.00734866
0.00203723
0.00238775
0.00227624
0.00736746
0.00343007
0.000477292
0.00043324
0.00125139
0.00342588
0.00134436
0.00180754
0.00678599
0.00301976
0.0025649
0.00141464
0.00748583
0.00636538
0.00734094
0.00426756
0.0035271
0.00468331
0.00211184
0.00268233
0.00746704
0.00147788
0.00216998
0.000745016
0.00464467
0.00390183
0.0024938
0.00249711
0.00218985
0.00235252
0.00234027
0.0071537
0.0059362
0.00230901
0.00573388
0.00535583
0.00387104
0.00422787
0.000810601
0.0021548
0.000788457
0.000962286
0.00261675
0.00527005
0.00354286
0.00593157
0.00576047
0.00187985
0.00700946
0.00305728
0.0049206
0.00194521
0.00743895
0.0073788
0.00727759
0.00440428
0.00173155
0.00427515
0.00163012
0.0020343
0.00456024
0.00460383
0.00717584
0.00721253
0.000659222
0.000647073
0.000758775
0.00216746
0.00423393
0.00220775
0.000467134
0.00714653
0.0049352
0.00140068
0.00157426
0.00743566
0.00213703
0.00146085
0.00726058
0.00221833
0.00227074
0.00409367
0.00559522
0.00546003
0.00582429
0.00504536
0.00544554
0.00303558
0.00284345
0.00276461
0.00682874
0.00701646
0.000915924
0.00365215
0.00499353
0.00737553
0.00713113
0.00713104
0.00328067
0.00301603
0.00711221
0.00735004
0.00731213
0.00310887
0.007191
0.00738471
0.00537641
0.00417466
0.00732388
0.00199137
0.00734368
0.00190909
0.00231117
0.00137845
0.00468491
0.000362266
0.00744241
0.00746433
0.000463255
0.00678429
0.00715775
0.00722668
0.00495588
0.00481633
0.00527287
0.00749997
0.00729657
0.007287
0.00737773
0.00460599
0.0068209
0.00638624
0.0073793
0.00738825
0.00731143
0.00737877
0.00168435
0.00240548
0.00130604
0.00134691
0.00109845
0.00148939
0.00674174
0.00635791
0.00740907
0.00742032
0.00673922
0.00335026
0.00519151
0.00567719
0.000421129
0.000742287
0.000598435
0.00568394
0.000240352
0.00671618
0.00735696
0.00747788
0.00200813
0.0070358
0.00291895
0.00392311
0.00455462
0.0073664
0.00725921
0.00739177
0.00711756
0.000691465
0.000711679
0.00121973
0.000684025
0.00638764
0.00328623
0.00746314
0.00739053
0.00717108
0.00741715
0.00746373
0.00614642
0.0040974
0.00309434
0.00163308
0.00213044
0.00753786
0.00755322
0.00752675
0.00753474
0.00146263
0.00172378
0.00744984
0.00731349
0.00106665
0.00107369
0.00153837
0.000806774
0.000673529
0.00155978
0.00358647
0.00152562
0.00136376
0.00285421
0.00424233
0.00738503
0.00525233
0.00299103
0.00156989
0.000696281
0.000630449
0.00737541
0.000673851
0.00645903
0.00401427
0.00417478
0.00668798
0.00292387
0.00339601
0.00718802
0.00748237
0.00746131
0.00739375
0.00730242
0.00739466
0.00739305
0.00305671
0.00383341
0.00273007
0.0020296
0.00170174
0.00446791
0.00303015
0.00344886
0.00545077
0.00674669
0.00533943
0.00755589
0.00323003
0.00316223
0.00123999
0.00392278
0.00731497
0.00741799
0.00207626
0.00739992
0.00489143
0.00735436
0.00573299
0.00719339
0.00219376
0.00736632
0.00487955
0.00553508
0.00154546
0.00285812
0.00740058
0.00705801
0.00563291
0.00718763
0.0073274
0.00404443
0.00411353
0.000547984
0.00602299
0.00533992
0.00489453
0.00397919
0.00583514
0.00316281
0.00724594
0.00320286
0.00713673
0.00633681
0.00747541
0.00204722
0.00251803
0.00528395
0.00533947
0.00719896
0.00731032
0.00653988
0.0061754
0.00497942
0.00487783
0.0072635
0.00631362
0.0072024
0.00674221
0.00513963
0.00706943
0.00716147
0.00718381
0.00301178
0.00137206
0.00692959
0.00734887
0.00733149
0.00692579
0.00721181
0.00618911
0.00678422
0.00506167
0.00111481
0.00561261
0.00559975
0.00207274
0.000745008
0.00159358
0.000664326
0.00137168
0.00448103
0.00353891
0.00731738
0.00242401
0.00304822
0.0074197
0.00749889
0.00362748
0.00656353
0.00724571
0.00746318
0.00422239
0.00543142
0.00381083
0.0040006
0.00356093
0.00403025
0.00086965
0.00642573
0.00339973
0.00723567
0.00712199
0.00218036
0.00217604
0.00400219
0.00239566
0.00721575
0.00704465
0.00707365
0.00111996
0.00396188
0.00688851
0.00723233
0.00736793
0.00712315
0.000942045
0.00578322
0.00667446
0.00693796
0.00512518
0.00348252
0.00668192
0.00628558
0.00613646
0.00040335
0.00157307
0.00142593
0.00752296
0.00741318
0.00252435
0.00648358
0.00660779
0.00745097
0.00722692
0.00749294
0.00752525
0.00695962
0.00226439
0.006855
0.00625781
0.00732254
0.00721765
0.00233001
0.00728295
0.00570332
0.0016872
0.00287943
0.00504403
0.00442675
0.00381278
0.00736578
0.00735519
0.00700966
0.00265478
0.00226304
0.00726385
0.00188963
0.0010197
0.00102387
0.00021467
0.0071961
0.00723996
0.00729045
0.00719303
0.00550562
0.000137093
0.00654568
0.00190417
0.00199957
0.00136112
0.00343352
0.00609842
0.00405293
0.00438425
0.00731531
0.00057051
0.0008563
0.000275386
0.00757286
0.00748763
0.00729779
0.00554269
0.00274236
0.00464554
0.00701154
0.00715613
0.00254023
0.001758
0.00722776
0.002836
0.00734844
0.000819695
0.001051
0.00657926
0.000431918
0.00646597
0.00489394
0.00735252
0.00540528
0.00180294
0.00307001
0.00477347
0.003123
0.00197912
0.00118085
0.00744499
0.00656066
0.00588447
0.00343329
0.00491296
0.00317397
0.00517545
0.00477256
0.00192919
0.000504672
0.00125053
0.000303993
0.00270085
0.00217162
0.00619798
0.00616997
0.0064849
0.00641432
0.00649078
0.00615615
0.00727938
0.00539122
0.0033743
0.00740781
0.0070999
0.00181855
0.00652512
0.00654147
0.00723167
0.00731308
0.00290141
0.00711063
0.00744588
0.00342686
0.00739213
0.00707678
0.00361061
0.00619272
0.00729906
0.00604328
0.00734707
0.00705282
0.000562715
0.00188726
0.00612728
0.00758157
0.00414205
0.00426581
0.00550526
0.00566472
0.0072974
0.00327922
0.00576699
0.00746123
0.0056387
0.00757147
0.002784
0.00109199
0.000627116
0.000956439
0.00740255
0.00545765
0.00332156
0.00725834
0.00722837
0.00352599
0.00548947
0.00696096
0.00349348
0.00332771
0.00160197
0.00226475
0.00330667
0.00161641
0.00390562
0.00738638
0.00427231
0.00350527
0.00737183
0.00245052
0.00328493
0.0072188
0.000615426
0.0027061
0.00100003
0.00541968
0.00292205
0.000239334
0.00195539
0.00158607
0.00738197
0.000355664
0.00585731
0.00745674
0.000715008
0.00113766
0.00545618
0.00663295
0.00527331
0.00219615
0.00298103
0.00473252
0.00735202
0.00507298
0.000271275
0.00209752
0.000239386
0.000356623
0.000913018
0.00272015
0.000201291
0.00346558
0.00125942
0.000319714
0.00569139
0.00709381
0.0021013
0.0042775
0.00205429
0.00433165
0.00402968
0.000385153
0.000272528
0.00399369
0.0072848
0.00102105
0.00134339
0.00640046
0.00731157
0.0074977
0.00156074
0.00111247
0.00711524
0.000177546
0.000382775
0.000779792
0.000297787
0.00653617
0.0016207
0.00408179
0.00421421
0.00409049
0.00283399
0.00299366
0.00345205
0.00664001
0.00725399
0.00700306
0.00690175
0.00364439
0.00703109
0.00641839
0.00384363
0.00682864
0.00460272
0.00724402
0.00479698
0.00718628
0.00613038
0.00735814
0.00710059
0.00321078
0.00360758
0.00657689
0.00578678
0.00718257
0.00499043
0.00685654
0.00723984
0.00700062
0.00714909
0.00719278
0.0071278
0.00377353
0.00550503
0.00729168
0.00725656
0.00297651
0.00313881
0.00593835
0.00755507
0.00427715
0.00334051
0.00274481
0.00243844
0.00663071
0.00659532
0.00634448
0.00732032
0.00518506
0.00733239
0.00735157
0.00719618
0.00503641
0.00103178
0.00635018
0.00726566
0.0039222
0.00667619
0.00719812
0.00726031
0.0012876
0.00515653
0.00290793
0.00142226
0.00727778
0.00723728
0.00314947
0.00544379
0.00211431
0.00427197
0.00574158
0.00543774
0.00199276
0.00697508
0.00621038
0.00317286
0.000131131
0.000498952
0.00730477
0.00357459
0.00366031
0.00709635
0.00470047
0.00539576
0.00173832
0.00738211
0.000661074
0.00288488
0.00243313
0.00259167
0.00349846
0.00238098
0.00309793
0.00368301
0.00731241
0.00659917
0.00733235
0.00758762
0.00753484
0.00749965
0.00755662
0.00757916
0.00754387
0.0075426
0.00703
0.001085
0.00722746
0.000433443
0.000342654
0.00127156
0.00738718
0.00729231
0.000354279
0.00668021
0.00397198
0.00673938
0.00756767
0.00728831
0.00707054
0.00207123
0.00722085
0.000564395
0.00706057
0.00256059
0.00727491
0.00172709
0.00737373
0.00165193
0.00538646
0.00132361
0.00424156
0.00749403
0.00587211
0.00746352
0.00606656
0.00754648
0.00153233
0.00407133
0.000255027
0.00563144
0.00718273
0.00309797
0.00757051
0.00152962
0.00751402
0.00656438
0.000925225
0.00742421
0.00237526
0.000621469
0.000242929
0.00207972
0.00164069
0.00256799
0.00530955
0.0037413
0.00154678
0.00567172
0.00242436
0.007306
0.00451266
0.00324178
0.00732893
0.00748591
0.00746844
0.00146016
0.00243578
0.000173344
0.0018093
0.000733915
0.00728168
0.00185369
0.00116842
0.00130995
0.00703276
0.00746941
0.00452346
0.0005763
0.00309823
0.00735222
0.000286515
0.00487556
0.000200457
0.000449508
0.00724191
0.00747178
0.00283791
0.00627875
0.00166523
0.000808265
0.00370908
0.00397488
0.00238509
0.00342613
0.00708305
0.00706333
0.00439849
0.00737283
0.00738927
0.00739768
0.00734999
0.00726745
0.00445661
0.00700812
0.00701591
0.00681874
0.00697135
0.00737018
0.00699925
0.00704369
0.00691062
0.00603513
0.00723009
0.00606448
0.00162014
0.00625009
0.00514786
0.00716278
0.00698879
0.00738115
0.00747769
0.00328241
0.00662399
0.00723388
0.00755052
0.0074966
0.00727927
0.00755922
0.00756262
0.00756807
0.00758585
0.00744508
0.00747883
0.00756765
0.00757826
0.00718654
0.00750751
0.0074421
0.00751815
0.00493662
0.00413082
0.00545765
0.00485395
0.00446041
0.00492176
0.00424403
0.00360508
0.00172644
0.0026667
0.0072979
0.00065443
0.00268768
0.00651657
0.00209926
0.00640344
0.00716811
0.00128621
0.00170726
0.000840521
0.00727228
0.00725505
0.00422569
0.00289871
0.00713385
0.00714921
0.00664157
0.00513789
0.0060903
0.00652426
0.00661178
0.00691791
0.00698249
0.00361558
0.00389915
0.00353811
0.0063954
0.00657107
0.00603001
0.00740662
0.00549763
0.00722228
0.00734758
0.00469342
0.00560174
0.00720558
0.0044532
0.00727317
0.00715343
0.00458544
0.000506536
0.00747114
0.00490825
0.00394588
0.0027573
0.00631964
0.00349967
0.00587648
0.00491381
0.0074651
0.00656375
0.00302709
0.00728283
0.00529551
0.00444906
0.0068443
0.00752177
0.00746058
0.00733225
0.00755853
0.00754792
0.00200335
0.000640232
0.000857426
0.00154336
0.00115681
0.00125623
0.0034117
0.00382544
0.00723713
0.00152012
0.00586381
0.000731561
0.000734664
0.00441851
0.00650094
0.00343376
0.00413081
0.00669627
0.00661507
0.00698079
0.00749552
0.007103
0.00725138
0.00431878
0.00688216
0.00735021
0.00299389
0.00733549
0.00725828
0.00498079
0.00693976
0.00740798
0.00254301
0.00385539
0.00452555
0.00396028
0.00714566
0.00386154
0.00367137
0.00453843
0.00673662
0.00618444
0.00170331
0.00331222
0.00740712
0.00682274
0.00739119
0.00739747
0.00745877
0.00168273
0.00743712
0.00187027
0.00746073
0.000384969
0.00139387
0.0073021
0.000187328
0.00016654
0.00697024
0.000895064
0.00175934
0.00738857
0.000805274
0.00154772
0.0003704
0.000353514
0.000328681
0.00251277
0.000578206
0.000614173
0.000194887
0.00552503
0.000557281
0.00495982
0.00372516
0.00325785
0.006667
0.00457954
0.00400091
0.0054507
0.0024919
0.000460386
0.000621659
0.00421403
0.0060233
0.000727519
0.000330624
0.000394621
0.00462579
0.00677067
0.00693511
0.00702823
0.00684209
0.00346987
0.00748202
0.00737542
0.00738596
0.00747662
0.00751131
0.00659012
0.00722048
0.000264338
0.00395941
0.001267
0.000886829
0.00113647
0.00398236
0.0059921
0.00621388
0.0064848
0.00743264
0.00751906
0.00472262
0.00746987
0.00726847
0.00370553
0.00609228
0.00758297
0.00751364
0.00622505
0.00712631
0.00477138
0.00735015
0.00344784
0.00733175
0.0064212
0.00554099
0.00723084
0.00689649
0.00626717
0.0066789
0.00207356
0.00119725
0.0026858
0.00268425
0.000815796
0.00210582
0.0059442
0.00653124
0.00733519
0.00161405
0.00675461
0.00732617
0.00731676
0.00544457
0.00539733
0.00649886
0.00557872
0.00435401
0.00736001
0.00701247
0.00735899
0.000187849
0.00731366
0.00747579
0.00718956
0.00741714
0.00460751
0.0065667
0.0028254
0.00735092
0.00598238
0.00088582
0.00729108
0.00555384
0.0070125
0.000927344
0.00274373
0.00297964
0.000784189
0.000934715
0.00242729
0.00199307
0.00376279
0.00150192
0.00156874
0.00128955
0.00717109
0.00259971
0.00729236
0.00602895
0.000153515
0.00709907
0.00293071
0.00280644
0.00314363
0.00286446
0.00429873
0.00424782
0.00429641
0.00294525
0.0037864
0.00420833
0.00582185
0.00543952
0.00318996
0.00687636
0.0073643
0.00548912
0.00534548
0.00328012
0.00327225
0.00740174
0.00749068
0.00688986
0.00748692
0.00539638
0.00482085
0.00748831
0.00667783
0.00688324
0.00653694
0.00647689
0.00696524
0.00394922
0.00427813
0.00513764
0.00490095
0.00727048
0.00467301
0.00699858
0.0071247
0.00448159
0.00731069
0.00711756
0.000794049
0.00510947
0.000322058
0.000625701
0.00236236
0.00572349
0.00699762
0.00637726
0.00463241
0.00743315
0.00662379
0.00357815
0.000528151
0.00308748
0.00204289
0.00115888
0.00433322
0.00376434
0.000792191
0.00110838
0.00068037
0.00249944
0.000463699
0.000715811
0.000880487
0.000766461
0.000891343
0.00734251
0.0052367
0.00750629
0.00424325
0.00521616
0.00373156
0.00696953
0.00361558
0.00336076
0.00159925
0.00174042
0.00671377
0.00696117
0.00202892
0.00512451
0.00666856
0.00339876
0.00127303
0.00346547
0.00186144
0.00104391
0.00680167
0.00564295
0.00301008
0.0052472
0.0036686
0.00733826
0.00703273
0.00289206
0.00470134
0.00683005
0.00378759
0.00678085
0.00723377
0.00728556
0.00442605
0.00331483
0.00737629
0.000133975
0.00146729
0.00721883
0.00604689
0.00023452
0.00193002
0.000948641
0.00733377
0.00311824
0.00341438
0.00712012
0.00235769
0.000860987
0.0063862
0.0063004
0.00498729
0.00718493
0.00501761
0.00309672
0.00153801
0.00186734
0.00362293
0.00712881
0.00736308
0.0070255
0.00719571
0.00594962
0.00678025
0.00442091
0.0034823
0.00733395
0.00737831
0.00477618
0.00114655
0.00160675
0.000469835
0.00394446
0.00143007
0.000555189
0.00112265
0.00178203
0.00729365
0.0064656
0.00549647
0.0074947
0.00742063
0.00560018
0.00532804
0.00236909
0.0015633
0.00136453
0.00302906
0.00746263
0.00132137
0.00271801
0.00632528
0.00256041
0.00267828
0.00347116
0.00370496
0.00177767
0.00338039
0.00250768
0.00333465
0.00320003
0.00331274
0.00419926
0.00345618
0.00318856
0.00726162
0.00530488
0.00695358
0.00715874
0.00712819
0.00715374
0.0057822
0.00699805
0.00498861
0.00325141
0.00683714
0.00328709
0.00730835
0.00490108
0.00651011
0.00170909
0.00708547
0.00730683
0.00713569
0.00256001
0.004835
0.0050276
0.00539294
0.00677493
0.00173292
0.00276389
0.00190421
0.00264193
0.00163754
0.00301896
0.00512273
0.00508448
0.00526108
0.00240766
0.00131163
0.00517292
0.00252194
0.00443155
0.00328108
0.00746477
0.0073702
0.00714767
0.00685053
0.00710223
0.00720236
0.00726404
0.00747669
0.00541247
0.00737881
0.00403436
0.00372369
0.00551419
0.0056422
0.00144987
0.0058472
0.00530642
0.00738532
0.00723933
0.00400157
0.00529594
0.00336513
0.00298209
0.00706628
0.00716307
0.00366937
0.00729204
0.00739724
0.00738495
0.00642675
0.00298334
0.00528464
0.00494286
0.00686138
0.00628562
0.00757323
0.00613723
0.00724152
0.00725689
0.00532607
0.00588305
0.00468894
0.00708074
0.00742118
0.00397781
0.00657397
0.00659402
0.00729395
0.00721016
0.00739478
0.00738483
0.00545639
0.00747212
0.00740801
0.0057441
0.003435
0.00509206
0.00742007
0.00503828
0.00746646
0.00324561
0.00269771
0.0073034
0.00303782
0.00168109
0.00734512
0.00692159
0.00740524
0.00683439
0.00730282
0.00745049
0.00181037
0.00173518
0.000380788
0.00473953
0.00165899
0.00131134
0.00431797
0.00398135
0.000346241
0.000545588
0.00187975
0.00413553
0.00433486
0.00264356
0.00724349
0.00733486
0.00605702
0.00644616
0.00346985
0.00754323
0.00235778
0.0060443
0.00254852
0.00345275
0.00214022
0.00336316
0.00161802
0.00261563
0.00269406
0.00756041
0.00705977
0.00451292
0.00164592
0.0011707
0.00122346
0.00163507
0.00143426
0.00213247
0.00756939
0.000356939
0.00557766
0.00578173
0.00570209
0.00747658
0.00496133
0.00058582
0.00116662
0.00168016
0.00738738
0.00741772
0.00335094
0.00406874
0.00441695
0.00350338
0.00287136
0.00171692
0.0071986
0.00130315
0.000630006
0.00737797
0.0056487
0.00618903
0.00163641
0.00738603
0.0072091
0.00406355
0.00392719
0.00727051
0.00726313
0.00671925
0.00520178
0.00528125
0.00440546
0.00749515
0.00590563
0.00696064
0.00739062
0.00750807
0.00741525
0.00738576
0.00415024
0.00598546
0.00605968
0.00319148
0.00737584
0.00746945
0.0040956
0.00516547
0.00296942
0.00346897
0.00563807
0.00235019
0.00644609
0.00444257
0.00726416
0.00630241
0.00670685
0.00633814
0.0013078
0.00746795
0.00727433
0.00748044
0.00525517
0.00396129
0.00298122
0.00465488
0.00317262
0.00635896
0.00686206
0.00228657
0.00558052
0.00244694
0.0046738
0.00395917
0.00703619
0.00589508
0.00663406
0.00101304
0.000816849
0.00275475
0.000181619
0.000708818
0.000837959
0.00737768
0.00727042
0.0072928
0.000799431
0.0073587
0.00726389
0.00577109
0.00693214
0.00723351
0.00199201
0.00269025
0.00413097
0.00297821
0.00275289
0.00203567
0.00313921
0.00148768
0.000442439
0.000413111
0.00302516
0.00089537
0.00239643
0.0010949
0.00122178
0.001349
0.00191563
0.000251295
0.000741257
0.000246885
0.000528321
0.00066477
0.000261303
0.00117378
0.00143262
0.00107429
0.00018691
0.00103516
0.000566386
0.00635628
0.00593346
0.00731272
0.00733166
0.00730572
0.00739493
0.006609
0.00741371
0.00490805
0.00300387
0.00205255
0.00510575
0.00743509
0.00416006
0.00255776
0.0021864
0.0075168
0.00747444
0.00748032
0.00747413
0.00644031
0.00743001
0.00739942
0.00315067
0.00740677
0.0074278
0.00730487
0.00750847
0.00273544
0.00119951
0.00401933
0.00467158
0.00400239
0.00587725
0.00747535
0.00294095
0.00462991
0.00660521
0.006857
0.00376382
0.00746178
0.00561523
0.00740518
0.00691181
0.00747718
0.00602563
0.00731825
0.00629112
0.00598646
0.00670302
0.0038931
0.00723034
0.00691145
0.00715485
0.00414966
0.00553197
0.00687072
0.00734492
0.00718774
0.00711596
0.0070342
0.00684117
0.00622634
0.00308689
0.00410183
0.00574382
0.00112381
0.000912358
0.00202789
0.00332198
0.00755556
0.00700518
0.00722945
0.00537955
0.00734157
0.00176107
0.00731765
0.00740374
0.00742677
0.00534873
0.00722926
0.00239367
0.00679363
0.00623212
0.00742671
0.00746062
0.00725878
0.00670388
0.00747963
0.00511747
0.00749311
0.00329712
0.00437382
0.00709102
0.00749107
0.00488929
0.00520334
0.00693679
0.00744796
0.00666732
0.00691488
0.00744332
0.00490924
0.00505923
0.00524202
0.00441583
0.00325272
0.0047217
0.00733726
0.00285046
0.00731152
0.00703963
0.00441078
0.00708676
0.00277382
0.0074303
0.00738077
0.00736634
0.00733339
0.00749816
0.00696099
0.00294465
0.00666891
0.00659797
0.00736037
0.00266098
0.0014222
0.007314
0.00331651
0.00606142
0.00751737
0.00707518
0.00334788
0.00739735
0.00744849
0.00644479
0.00753957
0.0073987
0.00610897
0.00215126
0.00396926
0.00679193
0.00588685
0.0060391
0.00179482
0.00196883
0.00741477
0.00230075
0.00756192
0.00756073
0.000813288
0.00706986
0.00722254
0.00678978
0.00729604
0.0072128
0.00706735
0.00485783
0.0023324
0.00118339
0.000775905
0.00029461
0.000876304
0.00716946
0.00753522
0.007486
0.00695498
0.00687398
0.00413086
0.00169692
0.00684071
0.00120613
0.000626294
0.000751236
0.00749424
0.00639288
0.000326053
0.000658814
0.00591449
0.000592866
0.0061876
0.00647229
0.00706299
0.000314499
0.000349481
0.000632746
0.00756456
0.00680676
0.0006017
0.00048043
0.00759111
0.00756329
0.00352489
0.0021965
0.00228333
0.00724553
0.00349237
0.00566112
0.00651534
0.0051031
0.00521085
0.000638487
0.0073423
0.00306778
0.00381831
0.00713157
0.00744911
0.0073506
0.0073876
0.00744712
0.00700504
0.0037682
0.00721813
0.00312483
0.0054998
0.00635742
0.00654519
0.00727387
0.00360084
0.00603946
0.00546132
0.00613329
0.00405573
0.00128652
0.00742281
0.00168147
0.00171233
0.00256244
0.00701251
0.00673972
0.006827
0.000148837
0.00726155
0.00113836
0.00601209
0.00673398
0.00447883
0.00501473
0.00737658
0.00679082
0.00566978
0.00711152
0.00324169
0.00662461
0.00420253
0.00552497
0.00528786
0.0015331
0.00328461
0.00438853
0.00382398
0.00731458
0.00729783
0.00730415
0.00685089
0.000983955
0.000958789
0.00632983
0.00699268
0.00474663
0.00133658
0.00448448
0.00586828
0.00587411
0.00698559
0.00486951
0.00222691
0.00445411
0.00174794
0.00108603
0.00684577
0.00499904
0.00638986
0.00121108
0.00290605
0.00553399
0.00318871
0.000955468
0.00642108
0.00257076
0.00609535
0.00729139
0.00716219
0.00616706
0.0016644
0.00215865
0.00700125
0.00717829
0.00635752
0.00710678
0.00699326
0.00609632
0.00725096
0.00716823
0.00493451
0.00698665
0.00594098
0.00215111
0.00643577
0.00515885
0.0070422
0.0069126
0.00708434
0.0069513
0.0073028
0.00725515
0.00715001
0.00729991
0.00729609
0.00733312
0.00702713
0.00728856
0.00722654
0.00698936
0.00713238
0.00717289
0.00476353
0.000337359
0.00710252
0.0072389
0.00634475
0.00707002
0.00720715
0.000383554
0.00656195
0.000512872
0.00722995
0.00711156
0.00559089
0.0051615
0.00663164
0.00120628
0.00131932
0.005532
0.00587439
0.00299713
0.00719506
0.00744159
0.00356007
0.0053398
0.00429877
0.00713775
0.00487277
0.00417343
0.00489083
0.0033829
0.00459016
0.00739732
0.00723108
0.00720993
0.00710099
0.00721313
0.00715772
0.00728738
0.00669914
0.00718326
0.00730129
0.00378762
0.00750592
0.00741203
0.00757807
0.00744339
0.00456249
0.00237731
0.00516626
0.00256068
0.00476688
0.00380108
0.00273097
0.00730833
0.00756267
0.00262839
0.00591079
0.00554852
0.00320838
0.00714349
0.00162045
0.0063447
0.00655425
0.00677767
0.0069773
0.00194376
0.000557072
0.00151555
0.00321307
0.00657645
0.00269474
0.00695379
0.003767
0.00136262
0.00687066
0.000477276
0.0073525
0.00666363
0.00096502
0.00659375
0.0043106
0.00491081
0.00651371
0.00615543
0.0035483
0.00676367
0.00365203
0.00713886
0.00743799
0.00738384
0.00172625
0.00344898
0.00704991
0.00746393
0.00364336
0.00740423
0.00325142
0.00701959
0.00739154
0.00690949
0.00624358
0.000876426
0.00111996
0.00293585
0.00159436
0.000178083
0.00098758
0.00489288
0.0045719
0.00287765
0.00741648
0.00256691
0.00162226
0.00659334
0.00617156
0.00350189
0.00652912
0.0060889
0.00243815
0.00486198
0.00688077
0.00653578
0.00175361
0.00157698
0.00442807
0.000985986
0.000907678
0.00102758
0.00739976
0.00746375
0.00396137
0.00491936
0.00576011
0.00388602
0.000865706
9.74267e-05
0.00391021
0.00277389
0.00757878
0.00114171
0.00320603
0.00192307
0.00493005
0.000611942
0.00186031
0.00142228
0.000202979
0.00221159
0.00121887
0.000687187
0.000199334
0.000376819
0.000546566
0.00135476
0.00091433
0.00754397
0.00568144
0.00753781
0.00520668
0.00745843
0.000654445
0.00588689
0.00358396
0.00327694
0.0031371
0.00286539
0.00738827
0.00729289
0.00621534
0.00732979
0.00734015
0.00345804
0.00719129
0.00133619
0.00101057
0.00133169
0.00123312
0.0023455
0.00647294
0.00185908
0.00189346
0.000142696
0.00244847
0.00137731
0.000751054
0.000954214
0.000486467
0.000931764
0.00120422
0.00193619
0.000714483
0.00562393
0.000300096
0.000537158
0.00549134
0.00561623
0.00612188
0.00538976
0.000527856
0.00660474
0.000469181
0.0045813
0.00584022
0.00618661
0.00242718
0.00137508
0.000883688
0.00213793
0.000245533
0.00139659
0.000666326
0.000732026
0.00691279
0.00143516
0.000654265
0.00171471
0.00245951
0.00358869
0.00218585
0.00208902
0.00742586
0.000914991
0.00089517
0.00122601
0.00637716
0.00159855
0.00427909
0.00196252
0.00427496
0.00170287
0.00627517
0.00676215
0.00235698
0.00127169
0.000500694
0.000992577
0.000823179
0.000428662
0.000980604
0.000873571
0.00722583
0.00631056
0.00724633
0.00340387
0.00392738
0.00364132
0.00748067
0.00317077
0.00747807
0.00691459
0.00489542
0.00686531
0.00558
0.00287427
0.00750292
0.00563451
0.00729767
0.00669028
0.00696357
0.00531711
0.00261566
0.00478911
0.00299505
0.00324257
0.00289447
0.00338145
0.00453381
0.00611546
0.00739129
0.00729905
0.00183184
0.00593062
0.00695838
0.0071647
0.00709547
0.00271991
0.00311382
0.0040056
0.00303913
0.00250758
0.00289491
0.00454153
0.0051765
0.00743293
0.00745196
0.00669773
0.00647917
0.00468481
0.00728195
0.00738379
0.00453831
0.00551027
0.00316614
0.00668001
0.00345345
0.00506876
0.00457963
0.00302311
0.00322695
0.00705471
0.00708784
0.0047257
0.00382088
0.00472543
0.0049264
0.00594187
0.00577561
0.00453096
0.00507531
0.00747788
0.00680292
0.0070163
0.0072479
0.00740822
0.00586342
0.00414716
0.005571
0.00374018
0.00745782
0.00660821
0.00528857
0.00553941
0.00621259
0.00641423
0.00401556
0.00630998
0.0064057
0.00703813
0.0061884
0.00386001
0.0033803
0.00723341
0.000277992
0.000985216
0.000582967
0.000295235
0.00737552
0.003567
0.0036384
0.00640011
0.00363325
0.00370738
0.00356102
0.00491942
0.0066976
0.00179477
0.00683493
0.00401253
0.00168955
0.0033599
0.00636603
0.00707066
0.00660628
0.00577218
0.00346439
0.00604252
0.00708032
0.00397043
0.00651857
0.00682357
0.00640701
0.00568602