/*--------------------------------*- C++ -*----------------------------------*\
| =========                 |                                                 |
| \\      /  F ield         | OpenFOAM: The Open Source CFD Toolbox           |
|  \\    /   O peration     | Version:  2506                                  |
|   \\  /    A nd           | Website:  www.openfoam.com                      |
|    \\/     M anipulation  |                                                 |
\*---------------------------------------------------------------------------*/
FoamFile
{
    version     2.0;
    format      ascii;
    arch        "LSB;label=32;scalar=64";
    class       volScalarField;
    location    "0.0100321";
    object      p;
}
// * * * * * * * * * * * * * * * * * * * * * * * * * * * * * * * * * * * * * //

dimensions      [0 2 -2 0 0 0 0];

internalField   nonuniform List<scalar> 
3975
(
29.9454
36.1271
38.1421
34.6602
35.0244
33.8521
34.2093
34.155
34.8201
35.6169
35.1503
35.1768
35.4578
37.6225
35.7782
35.5288
34.8167
34.5555
35.3894
38.8186
39.616
33.7858
38.2737
31.357
31.6151
34.468
2.07967
33.327
33.58
34.6576
44.4853
38.9044
45.4596
42.8345
41.5454
33.1362
36.4092
37.2158
40.1709
41.0961
38.4698
38.2141
40.3407
38.3992
31.2528
38.395
36.7925
37.5984
29.8864
34.2847
34.2352
37.1825
47.2388
22.1131
19.171
17.7389
23.1066
22.2524
22.6188
26.3162
28.9759
8.71456
24.1519
29.2284
40.2431
21.9687
45.3234
42.628
19.8684
10.3762
7.24279
6.56897
11.8365
40.3295
30.7774
28.9552
31.7218
30.2331
29.4346
29.7723
35.2416
34.6097
36.6654
33.9911
40.2241
25.8402
30.8778
35.6922
33.246
35.475
35.0365
36.4319
37.7276
36.7389
-12.2905
33.2359
33.0443
4.46033
41.0054
12.6459
37.6413
18.6165
44.2634
41.8462
34.8869
36.1279
31.8005
35.9243
35.1996
33.5177
34.8209
33.9333
35.3184
35.0326
33.1968
34.2098
31.669
30.7495
21.4011
41.6802
44.262
18.0131
35.8922
23.0791
26.2894
17.9764
34.5976
31.9166
37.5759
37.4084
35.6237
37.5753
35.6438
42.2498
40.4369
39.476
41.8187
37.3074
37.5486
34.2239
40.2891
34.4841
34.2456
36.8133
21.5974
34.6496
34.8138
36.5935
42.9269
32.974
41.2732
33.3816
41.9438
32.4385
15.2674
47.2404
32.9622
37.4221
38.8723
36.3438
35.2231
39.7696
29.7926
35.3756
35.9356
28.0509
30.2332
-33.6849
35.1546
35.1099
38.6763
39.0016
31.9186
31.0643
3.32043
36.6414
31.5818
44.5799
33.5822
39.2587
33.377
36.1205
24.1051
20.0108
40.8927
34.748
28.0508
29.355
32.5225
26.9233
30.5603
34.1118
42.1262
37.6941
31.5487
39.2591
33.9703
36.3744
34.1139
35.6511
35.3539
37.8337
34.2385
41.3349
41.8303
39.1814
32.4112
-7.89653
33.8848
7.18991
34.2893
30.1166
35.4236
33.8161
35.996
37.4287
34.2148
39.3501
35.4919
33.879
37.5285
30.9512
34.8087
30.077
30.4233
28.6336
8.57987
34.8842
24.5949
38.9588
37.4389
33.8982
34.5824
34.4663
35.3125
42.4665
45.3561
30.8027
14.7887
39.9357
36.0779
47.4961
39.0401
30.6685
33.2733
-15.8969
31.4957
38.7546
-0.436376
42.4585
36.1843
38.4625
35.4682
8.92605
37.988
40.7225
30.7917
31.604
15.8108
-0.525487
40.3063
10.8324
34.5057
29.7871
25.5354
45.7962
-3.03424
40.567
32.858
36.3144
32.5039
35.422
35.3122
38.3967
34.9387
37.6538
36.0748
32.8552
0.422116
12.2081
-2.84669
31.9612
35.4877
37.7241
32.7688
34.6286
22.4168
32.5665
11.7804
39.3069
40.1555
50.4016
37.3115
39.6421
34.1259
33.6161
33.8025
33.634
33.1168
30.5245
32.1417
33.1963
40.7647
30.1226
27.2098
30.3949
28.813
27.0547
24.9009
32.2637
35.6748
36.1227
32.8554
35.5032
36.1225
29.414
30.9607
32.6266
35.0828
35.3955
36.2176
35.0163
34.7797
33.9821
9.9443
32.5349
32.9913
33.8779
32.9891
26.8968
30.6275
31.2005
32.0283
31.9427
25.2699
30.891
31.9782
28.6337
23.3902
25.8417
27.9406
24.2783
29.8671
26.0584
27.7774
32.9199
35.2971
33.8875
34.821
36.349
28.0466
31.1037
31.4878
31.8125
32.8138
33.8245
39.2436
28.2167
33.7795
34.4505
32.6434
-31.3584
30.4999
35.4403
35.2067
35.361
31.2517
34.7865
35.8676
34.8366
34.6192
16.2225
32.7036
29.7842
39.0051
32.0666
34.3202
-7.37901
14.6684
41.7494
15.4689
22.3789
35.1733
25.4501
22.0541
20.3115
35.208
12.8644
21.5793
24.5567
32.3258
36.0217
23.8947
31.9368
31.6401
40.1899
33.7918
23.9144
33.2196
32.6304
39.7521
32.2637
32.8067
32.5139
33.0612
31.6238
29.7754
31.6629
31.2911
36.0914
32.7639
30.6816
10.7767
13.914
35.8988
6.12914
31.8152
36.4453
27.7903
31.3307
32.0529
31.5228
34.8377
20.7074
24.1211
21.0981
32.4532
23.2024
37.0186
24.915
28.3193
33.9826
33.709
16.9825
30.3025
35.1494
34.2586
33.3808
21.5763
33.7978
35.0391
31.2082
17.1629
-36.949
-29.6381
32.519
34.9231
26.6473
-33.1525
34.0203
36.0916
34.3736
36.2962
33.9141
28.7055
35.4051
30.4376
34.8494
33.7617
34.0075
34.3344
20.036
35.0129
35.5909
24.2899
34.3823
36.5554
40.2502
34.4079
36.6609
26.1685
36.9078
33.7143
32.918
38.4545
21.579
33.9779
33.7717
33.5195
35.1722
36.6349
35.5709
38.944
34.1013
33.0661
25.0432
27.2608
-11.7135
20.8055
29.6172
39.0651
33.6536
35.5662
18.8439
39.2882
34.6199
34.0435
34.2044
30.363
24.0223
11.4504
35.4058
35.3915
33.6102
35.8753
34.0028
31.288
13.6982
34.1356
29.993
37.6345
35.1974
37.3565
5.02145
34.8431
35.034
40.1954
40.8323
36.4912
36.5229
33.0925
39.6338
27.2902
6.69247
46.9408
23.4516
36.3489
-7.26521
38.6783
34.229
42.0765
28.9859
42.9477
41.2123
36.7274
32.6097
35.9506
33.0572
-98.5814
28.8951
36.4693
34.5839
35.262
23.1856
19.8554
10.5519
34.5809
-15.2201
17.2018
30.7805
24.6287
40.8152
29.6868
31.4027
26.6791
22.8405
32.6353
34.5607
39.6811
32.3146
37.5662
30.6989
23.1833
18.3572
8.61351
-10.3981
11.2298
17.404
-21.5989
11.0952
39.3089
38.0426
39.1415
37.523
38.3797
36.2741
38.1163
32.7597
39.5243
42.3238
40.2769
40.518
28.3305
42.5138
36.6876
40.1754
42.4879
35.6204
48.3834
37.6356
32.8916
35.727
35.3752
24.1064
37.8278
40.0275
37.673
35.5079
38.3626
35.5081
34.7979
34.2432
-1.56247
37.3175
29.3855
25.1877
33.6009
31.7916
31.2631
29.9666
35.7099
26.1987
38.018
36.3346
39.6711
34.8274
36.2155
35.4689
34.5323
32.3463
36.3174
36.6804
36.4964
39.6108
36.0706
35.2494
34.3972
36.9458
40.4592
41.539
34.0284
37.6455
36.7565
33.1904
39.021
38.8681
37.819
35.6016
33.923
38.2092
37.5089
34.0264
36.7403
33.4525
37.4935
22.7073
40.9139
34.9519
14.5125
25.9614
37.6527
33.9542
14.1001
9.74804
26.7993
15.8102
20.7163
49.5475
41.9911
15.5249
-1.4761
-11.6887
31.878
-33.9084
-5.72919
-11.6565
1.42132
-8.52303
38.7896
34.9623
32.6206
39.0075
40.7299
40.1125
34.7466
10.7423
37.8364
39.0259
41.8625
37.171
39.5195
38.8179
36.9763
35.8446
38.9633
34.1831
35.0785
40.5451
34.618
35.9397
34.089
30.4203
35.4981
32.7968
34.943
33.9372
25.3502
28.0925
34.4395
32.808
21.0977
37.9919
31.7196
5.45037
44.1239
28.2626
32.147
34.6248
36.1112
4.91802
32.4639
37.441
35.2232
32.1217
40.823
34.7738
34.5516
34.7378
30.2916
31.0598
34.803
47.5775
36.4563
38.7447
39.0379
37.011
34.7985
38.9828
35.5645
37.5233
30.594
30.7571
33.1614
31.0751
29.0607
44.0967
37.55
34.4495
-16.7077
32.9632
-5.34876
32.0588
25.3332
28.179
-10.6298
37.6973
37.3617
36.3134
24.6477
41.1547
9.84725
31.5857
37.8348
39.0229
17.4895
38.877
34.7078
37.4713
40.058
38.3466
37.8608
34.8913
36.9634
35.5528
34.3048
36.0393
35.8239
37.6462
34.5127
36.5686
16.6877
37.7141
39.6829
37.3454
31.9057
37.1585
34.9297
35.9834
34.9272
32.8138
35.3337
16.6647
22.5998
38.2217
35.36
33.4757
27.5679
34.714
32.0806
34.4316
30.811
29.6936
-12.7888
34.2722
23.7382
23.0862
44.6295
27.9358
36.9294
27.4732
29.4221
29.4462
33.1326
28.0755
-37.2907
38.4433
46.256
38.3003
-0.409652
38.5326
31.2445
32.8379
42.583
17.5678
14.5829
25.3745
-22.9774
28.496
19.5654
10.8347
28.8663
33.3698
31.7
31.3207
31.8056
1.83528
12.9509
42.7854
-4.58365
10.7781
21.3558
6.08062
-6.68243
2.38867
11.0544
11.7999
32.5733
35.3537
-1.95887
2.37369
7.81863
-5.2093
9.65325
50.0638
21.6191
42.187
25.9995
24.7283
21.718
28.9787
36.1012
24.4588
23.3855
15.4233
15.6433
30.665
30.368
7.93669
2.33069
35.7943
33.0166
42.3391
39.0222
40.7177
32.2789
35.055
34.1913
33.9828
33.5659
35.4429
39.0714
38.2657
32.0224
35.2132
35.761
42.5543
39.8633
42.5872
45.678
48.1074
25.734
33.1476
31.3487
34.8071
30.566
34.6013
34.2751
33.7074
32.9764
32.0356
30.0412
30.6017
31.1131
32.304
30.7461
29.8371
33.4464
33.9112
33.9066
33.565
13.3665
21.2914
32.4862
20.483
18.2696
19.236
31.0992
29.1965
27.7667
26.7133
35.0224
34.3953
35.8311
39.666
47.6107
42.9547
44.1555
30.8776
26.14
21.0026
12.3046
34.7501
38.7932
37.3435
34.4333
34.4321
34.6256
35.0016
35.0673
28.5383
18.2914
22.8887
25.8967
23.6795
32.1648
4.80224
27.4644
29.4323
26.8976
23.9327
23.9963
18.4304
37.9149
38.1474
39.3316
38.6441
24.8572
27.3311
28.1638
22.1094
24.2926
41.1418
42.2477
42.1279
34.8385
34.7806
33.7726
33.9261
34.104
33.7112
33.8146
34.916
34.1498
35.1474
36.1705
38.1519
36.016
34.8681
33.3614
34.9976
35.8971
36.2487
34.8496
34.8908
33.5634
38.2968
34.1873
34.4432
37.8368
39.4034
19.7513
17.6471
30.4379
32.111
34.2259
21.7731
29.5399
11.0642
21.795
32.7235
37.479
34.4167
24.7267
33.0214
34.1978
36.6922
25.4723
35.422
35.1404
31.3352
29.4295
31.4752
34.2668
33.3521
35.0536
35.2835
34.3438
18.0498
18.5316
31.7322
-14.97
37.0439
40.1451
34.3659
34.2194
34.3456
36.1137
34.8866
37.6897
36.5937
33.4045
33.642
33.199
30.2164
25.2341
31.3694
33.9387
35.9425
38.1973
38.8767
6.58746
29.5184
32.6491
31.8053
30.1689
29.9928
22.675
22.2558
28.0954
33.5208
29.73
33.7324
33.0056
33.0924
32.9376
31.3947
30.1594
34.1067
39.4112
34.5363
34.0369
34.3257
32.1982
33.2646
38.1701
42.3664
36.5337
32.2639
27.9803
26.2239
41.7839
38.0368
32.9005
27.5254
33.3083
33.6131
32.2345
33.9817
33.7119
32.5861
32.8999
35.3332
39.1329
37.8782
34.2927
35.0541
37.08
40.6889
30.3573
31.9315
36.1172
22.6474
26.439
35.053
20.3976
14.1407
31.3703
37.6992
33.9954
33.4991
33.4671
32.8828
37.2086
35.4203
33.522
37.8212
34.6692
34.4732
25.2978
32.1732
32.4128
34.1583
-4.64516
26.9707
37.3816
17.569
27.2433
33.4057
38.0435
38.1728
41.2376
38.5765
40.553
36.8029
35.366
39.4569
41.1608
38.2071
41.5548
41.5843
39.8804
36.2503
32.4095
29.2197
37.9072
39.0187
11.9596
-65.6521
2.64077
0.6808
-3.27394
38.3271
24.1135
37.4102
27.5715
40.2416
5.07667
21.9853
17.4845
-6.51753
15.3411
15.0936
-10.0811
8.57552
36.6755
27.9285
31.8535
34.3843
38.511
32.3299
33.0855
38.5932
34.8775
22.9467
-31.0218
17.9462
40.507
31.3132
12.1494
5.00914
30.8644
31.4638
34.9166
41.824
41.6691
36.5005
39.5875
35.4737
35.6193
36.0277
36.3275
39.1264
36.2463
37.7088
37.9476
36.6742
27.5578
45.1655
37.5925
24.1073
42.109
13.3844
37.9114
42.0093
31.3552
-20.3346
-13.9187
36.9644
33.5545
39.6691
42.1162
38.5406
34.9476
33.2193
-1.86519
41.4542
36.0983
35.703
36.4173
38.8264
28.0865
30.1491
31.2322
35.7931
25.3648
37.6202
36.4358
37.0441
36.6979
37.2066
36.8286
37.5729
35.8337
35.8854
36.2419
31.5056
37.6866
36.039
37.9559
39.4951
35.1532
37.0096
40.7312
34.9782
37.0945
35.7104
33.3342
34.2006
13.5486
34.103
34.0818
36.8552
33.3218
42.1951
-12.9065
43.7371
-5.46202
4.92756
27.9024
24.8669
39.659
19.1553
37.1493
38.9801
38.3337
-5.03564
38.1826
14.849
-5.07989
5.11654
23.8759
18.6002
20.8674
-24.0889
32.0806
34.7234
34.1079
34.4533
1.12163
1.12759
-4.51406
8.09327
14.2092
15.3604
10.3062
43.1062
36.6171
37.1912
35.7596
48.7367
30.6287
32.6163
32.7166
32.7277
35.1835
28.8505
35.446
33.9762
20.0988
33.4961
-8.27928
34.5159
35.9451
32.3275
33.5161
32.7681
31.3712
36.1669
33.2331
31.732
35.284
42.4899
37.5178
41.4186
38.0241
36.0781
32.7139
43.5592
39.0739
32.8815
40.0432
31.651
32.8578
23.5605
33.2088
23.5868
31.6221
16.5179
8.65398
30.2221
32.7336
33.6832
33.9526
33.1116
35.6832
33.3145
41.9224
40.1629
43.2172
40.294
40.4479
38.367
38.3029
38.871
35.3406
34.0612
44.6983
31.7962
25.5562
25.0802
43.4065
33.7815
40.2518
34.6711
38.87
36.6985
24.8604
38.3369
37.9384
42.9298
34.6198
34.0456
34.9703
35.4369
36.6866
38.1862
38.3912
35.4235
30.0551
35.638
34.6793
37.9394
37.1714
30.5968
34.2257
36.4402
32.0448
21.7577
-6.5547
13.9973
31.4842
-30.181
-0.648284
32.5268
40.3032
34.5208
39.038
38.0125
37.3641
40.4782
32.7183
30.7676
45.0924
43.1991
43.4562
-7.06528
28.9903
16.1646
31.8811
15.8984
43.6056
27.7839
34.3106
36.6119
37.5389
41.6159
10.4236
34.7021
30.2772
29.9915
42.3191
31.0771
32.5125
-5.75833
64.1032
42.686
28.8979
39.9772
39.3226
30.3792
31.5282
32.3427
38.2984
39.4904
41.9388
18.9298
19.9423
15.3829
17.22
11.7312
6.41319
8.99113
-0.107802
37.5747
37.1233
34.2309
39.537
36.3392
34.2925
20.5759
30.6398
24.7329
34.5665
31.2868
33.6415
31.909
35.2337
33.5878
34.0251
38.9925
32.7074
34.4759
34.8447
22.3258
10.8555
40.4957
0.0354689
27.915
26.9639
19.6839
32.5409
30.4233
34.1894
22.7041
33.1185
25.539
34.6369
28.3414
25.3928
33.8178
35.5849
36.7314
34.414
35.2072
36.3067
37.1398
36.172
36.2986
29.8007
19.1034
29.9628
22.0621
24.114
35.4813
25.3308
25.5739
11.1724
37.9289
34.1964
35.1102
30.914
22.723
30.4172
6.19507
38.0582
39.3372
39.9293
5.66848
36.9694
1.76576
2.71781
14.3454
28.532
27.7513
30.2636
29.8449
29.9927
4.99397
31.0267
13.1976
20.974
15.8962
35.7934
29.0539
31.1401
34.2378
33.9476
37.5769
30.6961
33.2329
29.4576
31.5118
29.6318
33.8946
26.3627
34.5763
38.3429
30.0228
26.401
38.3612
35.6866
34.6166
31.4887
25.7166
22.8595
32.8497
35.1823
34.8987
35.6954
23.7482
35.1643
35.8066
31.8461
32.5974
34.6066
21.2842
32.9654
29.8653
23.7692
39.3247
34.3793
34.2346
33.3063
35.5875
37.2443
32.3578
32.6935
29.5519
25.431
34.7834
35.5406
35.5066
29.2746
28.3291
37.4232
34.3256
38.3993
39.7896
29.6202
33.6655
32.4464
29.9801
26.354
33.2976
33.1877
13.8246
-35.1417
-10.8465
41.5108
35.8527
34.7971
42.4416
39.3559
46.7271
39.8885
40.678
41.6534
26.0162
41.7867
5.77612
7.12091
43.6014
40.4147
28.5831
16.1782
41.059
41.7319
38.0525
28.9676
11.0245
39.459
41.5992
42.2553
51.8457
50.3303
16.2171
28.0692
9.49909
20.1763
27.5242
-28.2567
22.5766
2.54502
13.7491
33.4959
25.3529
33.1383
28.7095
38.6346
16.4071
29.1077
28.0174
26.4291
10.7831
11.4854
-0.0314116
25.1272
-3.48775
25.8756
48.223
41.2178
30.7623
26.9272
29.9148
31.2613
28.91
-12.4618
-10.4077
-36.8093
33.1525
34.0864
28.0043
30.0839
37.0065
39.823
31.9254
30.6815
22.9751
30.474
32.7954
25.9188
34.7706
39.2216
40.5797
47
16.4125
38.2236
40.8996
38.3753
30.0122
42.7702
36.0307
30.2024
39.3071
-131.206
41.0856
42.4637
38.5007
43.1752
39.8293
40.9799
15.0366
38.361
34.7783
36.7066
38.8215
36.5484
27.5025
12.8662
24.4731
35.4411
33.8699
30.2912
37.5375
37.7127
29.0298
38.0823
32.9858
31.512
40.735
11.0309
12.2797
10.9902
31.0757
26.8838
30.2721
31.9549
32.0374
35.0605
30.9596
30.9354
32.716
33.8272
36.0921
37.8266
36.273
29.5429
33.2898
33.8941
35.6038
35.2358
33.3811
33.4777
0.565443
34.6027
35.4817
35.1011
37.3421
37.0335
38.6873
37.709
20.0002
36.0165
27.4934
41.6791
41.2635
34.6056
34.7501
33.7339
38.9261
36.6868
39.4298
36.2131
39.5961
39.1816
31.2623
26.0016
19.5078
16.6956
35.8791
36.8413
37.245
38.7293
34.8757
33.9783
34.8196
32.2883
41.9602
41.1024
39.3301
38.2734
38.3708
37.8846
37.6379
42.9243
34.7285
41.86
33.932
35.1272
36.4553
13.1468
37.5598
35.9976
35.6858
34.4054
34.2324
36.7367
29.446
36.1167
29.3615
34.3678
-31.2628
-24.9384
36.5905
-2.10274
-51.0278
14.6621
10.5462
-53.1907
13.2053
39.3342
34.1708
35.8052
35.5906
29.9525
37.9836
3.59309
-22.0054
7.13595
35.2491
3.31015
4.14293
30.1273
31.0577
-14.4862
5.60713
-20.0247
-10.446
-13.3114
13.756
10.6658
34.1845
8.8165
31.8544
25.0172
32.8721
40.8647
41.7327
38.4151
35.0631
35.5738
40.2559
31.1879
38.5536
35.9977
37.7886
33.2323
36.0748
38.6842
43.4455
41.4361
35.2547
40.7866
18.1566
38.7296
34.5517
40.248
42.5022
36.3025
35.3351
40.9869
39.5291
38.7268
34.9293
36.704
28.6745
16.2581
34.081
37.3049
38.9811
33.8027
44.0362
15.2321
39.2755
40.2191
34.5779
34.4899
31.9495
33.1473
23.2789
33.9245
34.6372
34.1954
38.9543
29.924
38.7223
37.3352
40.6526
37.8227
24.7106
39.8388
42.7504
32.0597
38.4017
34.2289
36.8064
37.7901
37.1737
-18.5411
2.13464
18.2786
23.825
41.8158
38.6388
37.1854
34.2507
35.1492
36.453
38.702
6.91945
-8.26856
41.5039
40.0569
37.1653
51.2315
37.861
39.5598
39.8083
34.5938
27.7772
-107.642
37.1867
25.9968
32.8974
39.5762
24.8413
36.8924
36.5725
37.515
-3.54317
35.4334
38.7565
14.0403
19.1018
29.5374
26.7516
-12.6723
-59.9686
37.1278
37.418
37.8555
40.9897
26.6643
-3.95825
40.4013
41.7759
38.8344
38.9165
32.4693
-13.693
34.7851
35.1088
37.2005
35.973
34.0101
29.2194
29.422
36.7587
33.6792
27.1195
30.8247
40.5862
34.4527
34.1503
33.5123
42.4931
34.172
31.2769
37.3999
32.509
33.6747
37.8017
34.7946
34.1188
35.9029
27.9529
32.3078
32.2855
31.9023
32.1433
23.571
34.9576
34.638
31.5793
37.9662
30.8313
35.0192
26.7148
10.5037
-11.6098
-6.14124
-0.484154
36.4451
22.3794
36.218
10.4488
4.47091
23.2308
0.728879
33.6836
-0.711105
16.914
27.7894
8.81437
21.5649
29.1741
10.5014
2.09804
7.5583
28.5481
42.2299
38.1242
33.4266
15.7634
30.5872
24.1283
15.4242
32.0522
19.0817
37.0732
33.0159
27.1971
37.5227
31.0423
28.1202
31.2927
32.196
29.1174
31.5895
38.1913
36.06
31.7124
16.4832
29.7183
33.8042
26.1864
28.4823
24.7646
25.4288
32.9361
17.7643
32.7696
22.69
30.1753
27.8385
37.6154
28.7935
36.3942
32.778
41.0814
40.6144
34.6955
31.5787
24.3886
31.5723
31.3448
37.6523
24.0394
34.5953
27.8156
32.766
35.5146
35.613
38.1356
39.6868
35.8542
33.9503
43.9397
39.4616
39.1284
29.4847
29.0334
17.4422
31.4014
36.866
33.2259
32.7993
33.8175
34.093
33.3236
31.9799
32.0878
33.4186
31.5132
29.9282
32.7729
32.5999
33.1576
30.8368
33.0861
31.2613
30.1599
28.2681
36.85
33.1737
38.2344
39.7709
32.1546
32.1637
32.512
32.0733
34.6621
33.7261
32.8535
34.0718
31.7818
33.8142
28.8125
34.3463
34.6311
33.2832
33.9348
34.1371
32.2672
34.9167
27.0473
24.4267
22.6204
30.4429
38.2964
33.4899
24.0833
25.7837
35.3968
33.8867
31.6866
37.8312
26.8723
28.0417
26.0378
33.7424
25.5277
37.0091
36.8889
36.9926
34.9252
37.953
36.5249
35.3287
39.1341
36.106
35.287
24.5914
35.4556
30.7142
29.7035
11.4044
9.70078
30.8993
23.5469
23.3327
25.4168
24.1028
8.56015
9.89417
33.6968
33.9252
33.3835
34.4643
34.1383
22.3665
33.3204
30.1267
31.0532
27.7438
32.6121
32.0857
29.9401
27.0963
36.3308
35.2033
34.6572
34.1585
29.786
30.8626
25.3556
31.6044
0.712081
28.0538
28.7569
40.4695
35.4961
32.1337
35.3559
33.0288
33.2214
14.0757
37.7669
30.1797
33.0979
33.0718
23.3215
26.5298
27.8665
29.7621
30.1502
29.3236
25.7918
32.7458
32.2947
32.3652
34.6314
40.3872
36.7446
35.1822
31.3976
34.0103
34.755
35.8863
33.5038
35.9777
36.625
29.5337
-0.215115
28.9211
32.2106
17.4038
31.9752
32.3199
33.5842
34.6544
21.4992
34.2895
36.3086
34.8524
35.7336
30.5465
35.1921
32.7923
34.5497
34.6205
34.9436
33.4834
33.9815
35.0422
32.9872
33.9549
33.5303
34.4223
33.491
31.2721
33.5541
38.0814
35.0678
34.8697
30.3805
32.0478
31.7504
33.8941
29.1402
31.7284
28.9051
30.8527
25.8039
24.3778
32.1085
16.8036
28.4182
17.2356
37.1025
30.6091
32.2289
34.9044
34.7373
33.8924
34.2781
36.1087
33.8167
35.4432
28.8679
31.9625
32.2121
31.6034
32.8392
35.7424
32.7977
34.7184
28.5644
28.049
30.7904
31.3163
34.9012
15.841
28.4373
29.1053
-0.665972
29.4863
41.2596
37.0896
37.6148
38.2357
39.5979
33.2165
39.2631
39.3416
40.385
42.4278
43.1664
47.8611
47.3897
37.1618
35.6632
21.8997
38.4239
34.8447
36.1691
31.3186
34.5143
35.66
32.6415
20.8523
38.6184
36.1805
28.2502
19.023
-0.378064
22.9225
33.1916
14.7031
30.2076
40.5836
38.2422
41.0165
8.45894
-12.992
26.6903
27.7904
32.3031
26.4725
15.4096
34.803
32.9498
17.7881
27.7015
28.0327
-101.774
33.4787
38.6075
35.5255
36.2602
37.6919
35.1157
39.0523
36.3725
28.0624
39.9924
31.3258
36.4827
41.4791
36.6566
44.0862
38.0717
45.5509
34.5796
27.1001
37.1604
32.9544
32.5923
29.7506
29.3094
33.105
29.9501
-33.9226
-12.8684
35.6631
27.9961
35.746
34.3885
41.8989
37.9808
37.9576
39.3352
36.2809
37.1033
37.6428
37.1564
33.7829
34.087
34.2656
34.9741
38.2199
33.901
37.4291
34.8333
32.6745
32.5594
36.0311
39.0471
39.1251
35.4068
37.1663
35.3062
35.4312
35.617
22.6954
27.8739
22.6696
34.8428
35.7066
33.4456
33.5522
34.0027
28.372
35.3679
0.988021
-3.12877
-27.5049
36.2866
27.5368
10.9623
33.2703
33.8633
29.4185
2.69021
39.5328
-3.79007
37.5905
37.3808
34.7001
35.4645
32.0583
33.9804
34.2761
23.7615
19.8806
19.8552
34.9267
32.4014
38.3908
34.156
34.519
32.0704
5.48194
32.1877
34.0943
18.2322
35.8445
36.0773
36.6428
41.3976
15.0662
37.5909
37.6673
25.571
38.6972
32.5764
35.6532
36.5703
35.0389
41.3935
30.9317
34.1829
36.5337
33.8895
32.4526
33.9599
30.4824
31.801
30.1023
33.1711
18.4935
28.8759
43.661
42.4171
29.7282
28.014
39.5245
24.5478
32.4783
35.4037
38.0403
39.5133
33.9453
31.1591
33.7463
33.5782
30.6647
37.9808
30.8875
3.61168
20.354
32.1418
34.6713
35.3942
34.2878
28.2073
25.6825
35.3391
38.9118
37.1418
12.7215
39.6086
19.9123
27.2133
35.2587
34.6545
32.0153
32.0266
32.0071
36.0984
33.3043
31.9767
34.3692
40.3069
33.6965
36.9048
37.6805
33.7309
35.2383
21.1884
31.4919
39.4245
35.4836
34.7515
40.1914
39.378
38.467
38.6922
36.695
40.2973
38.1085
28.9671
30.6818
35.9304
24.1699
38.6857
32.6264
29.565
43.4211
23.0054
26.9664
15.8479
40.5853
30.512
42.7177
11.1062
48.1369
36.2806
21.2038
-0.588484
28.1782
25.6345
36.6599
33.0035
36.1674
0.958123
23.4724
21.7889
23.8302
36.5677
-2.67529
26.5321
33.4608
34.8725
41.6615
46.4467
40.1196
30.5821
29.8466
40.7809
20.1997
26.6102
29.7994
29.3156
15.3742
-38.4166
-26.5497
15.125
-34.0421
-17.337
9.31767
18.7368
40.3676
45.3328
38.1102
29.6006
43.8447
38.5833
-16.798
1.01325
3.91594
18.3909
-28.3816
17.6967
14.9227
30.0087
32.6375
38.4548
34.0095
35.3547
35.3818
38.6857
39.2431
39.9094
40.1455
18.2435
16.9409
29.5875
33.0421
31.1499
33.784
30.7153
32.7363
32.1784
32.609
20.7315
29.832
30.3291
26.839
34.9591
34.572
33.8327
35.8583
34.6703
36.6089
35.0425
29.6216
34.8125
35.0861
35.0628
31.816
34.6725
20.3019
27.1193
-10.9777
26.1315
26.5812
25.7796
24.4361
34.3053
39.4746
39.8623
32.4556
39.5786
33.5406
38.3096
37.7806
32.1021
6.3393
29.9058
29.1437
31.1766
33.6995
30.4051
30.3118
12.2158
34.971
35.1297
26.071
34.7022
36.0242
21.9333
22.9353
45.6759
33.3312
38.4463
38.2285
27.9833
33.9994
21.7413
35.293
-35.0087
40.0324
40.8408
40.9761
33.1946
41.0001
42.1159
39.9026
30.2191
45.5358
32.7405
30.0699
35.1723
32.2606
30.3653
28.1194
33.2756
27.07
42.1598
43.3158
21.4379
32.7901
39.7777
40.04
39.2458
38.9844
35.9643
30.7248
23.2486
27.314
26.0696
18.1561
44.4
30.5481
36.5525
40.939
41.219
32.4325
29.1943
27.9401
19.5162
19.2945
43.1349
-15.5231
17.9743
11.3675
5.42663
35.0062
37.3468
37.7853
35.7232
36.2665
41.2895
33.9326
34.7059
34.9572
35.6613
37.521
29.6811
21.18
29.4405
25.7433
27.4486
26.7411
29.0009
38.072
38.854
39.0054
38.0074
37.4845
40.5847
27.1099
30.4335
31.1733
29.6983
29.6136
32.0709
33.4842
35.5651
35.4626
34.7692
35.6587
33.7677
33.516
34.1848
34.8135
31.8694
34.2704
34.1457
32.4772
30.9117
35.4572
35.9507
33.5652
35.2773
33.0382
32.737
32.1914
30.2744
29.8224
25.6252
25.0034
31.9802
37.0188
31.2542
34.3082
50.8999
37.7366
37.0706
30.3605
28.9567
30.8089
36.9532
26.1831
35.9421
32.9061
24.6037
48.7401
34.7489
30.3198
30.233
31.3209
36.9565
28.7322
26.2132
25.3918
31.5784
34.2222
32.5226
36.3623
35.0226
34.8566
36.4395
34.2749
33.1835
34.1332
34.2176
35.8482
36.1751
38.2765
35.0934
40.1171
31.341
31.7048
29.3946
39.2841
25.113
28.7541
32.1666
38.491
31.8665
40.9428
33.7356
-6.78427
36.1292
30.7059
30.6803
40.022
39.1341
41.6045
42.7544
43.7356
30.505
44.905
35.829
42.4163
40.5167
42.2943
30.3343
36.639
40.5964
37.3826
40.7259
40.817
41.099
40.9483
19.3285
39.4775
25.6408
22.5456
30.8676
31.3365
19.0445
28.1224
6.99447
4.66083
-4.8289
11.5941
18.77
37.0791
37.9558
33.7477
39.6253
24.4298
30.4536
36.9379
43.4277
37.9634
-19.3747
10.3049
37.4084
38.8296
12.8539
35.5992
42.1909
30.2533
32.9625
12.7442
38.9657
38.7169
37.3901
4.28166
15.4475
6.74982
12.2175
31.7003
37.5477
38.3668
40.3905
39.9942
12.3285
35.4697
36.6413
35.817
36.8556
36.4825
32.2083
34.1971
35.6554
35.0265
35.3787
31.1477
38.7253
14.2655
-11.987
-105.818
38.5312
-4.93453
-12.4995
39.1239
35.0381
-55.4274
15.7418
-107.901
28.4008
26.8874
30.784
18.5663
15.0094
28.7018
37.1525
35.6557
16.4879
19.4524
30.3901
30.8319
28.9441
31.3951
36.2086
30.5563
35.1435
38.6858
37.9242
38.8585
38.8486
37.7269
42.2067
34.8357
34.6095
42.1428
34.9692
34.5821
36.6616
34.8939
41.1169
40.747
38.7646
36.5391
33.498
35.5217
40.4321
38.3559
41.0874
31.8171
41.1122
38.1733
38.2113
36.3982
37.0659
18.6769
42.6646
41.906
36.6483
38.7818
33.6036
7.53861
21.1081
39.7109
39.8498
40.2314
31.2556
38.1766
35.3678
37.8789
42.5034
39.4264
38.6132
35.0877
33.9363
34.0676
4.7446
34.4596
25.7984
31.3223
37.5407
36.7739
30.128
31.3951
32.3472
31.1278
34.9917
30.0056
34.1195
27.1673
42.9317
-2.00401
33.2218
43.8733
38.4629
25.1702
40.3238
29.4077
36.5038
34.5105
40.8446
41.4907
31.6554
36.6169
38.7027
38.933
32.2746
34.6069
36.0468
36.597
43.3077
43.666
42.9711
41.149
34.8081
35.541
36.0511
37.029
38.9852
29.3157
37.7929
37.1156
44.243
44.2021
42.5974
34.8671
44.3528
34.0468
44.593
42.6956
36.0736
36.6026
37.5173
35.7055
37.9029
36.7625
41.6238
39.4996
36.2757
37.0685
40.6825
40.6301
38.1663
-14.2208
40.546
39.9635
27.2073
27.7429
24.9748
29.4493
42.501
38.1698
36.1521
36.653
39.2039
38.3271
39.7944
37.2139
38.1334
36.4126
35.6069
42.1028
44.0163
39.2095
36.8425
41.5267
37.2771
34.6221
37.4311
41.4555
44.8568
37.9664
41.4409
41.1221
42.1954
41.5592
40.519
38.2422
38.9387
35.5854
34.3862
33.0202
31.7871
32.3995
31.2288
31.9175
38.0003
37.3602
36.1612
34.3754
35.9036
34.849
43.0134
33.6653
35.1326
16.3886
40.6359
10.0839
6.43798
35.4332
5.27422
34.5702
33.4375
33.2217
5.62996
35.4479
37.7318
25.0492
27.7564
30.0042
33.369
29.0642
31.3066
30.7018
-3.39451
16.8901
35.0268
35.7688
-5.71063
16.5099
35.2882
30.8504
30.2788
32.4352
25.7663
0.151671
0.934693
43.1297
36.0199
17.7352
37.0413
21.4105
-30.1617
17.004
-18.1286
27.6544
-1.16115
5.41334
39.812
-62.0864
-0.195462
38.0955
39.3011
36.8236
37.4498
35.8497
37.1053
39.8412
40.0391
34.8854
39.9843
39.1557
35.2256
37.7898
36.9662
48.2274
48.6083
31.0304
3.0117
6.78662
-1.64312
42.482
43.5792
33.3885
34.2484
35.2597
28.4992
43.611
32.2216
33.3326
38.7478
33.3143
33.5731
39.9729
32.0637
38.6102
33.2965
33.2409
34.2391
35.0601
41.0955
28.8201
16.9512
30.0606
28.726
1.79939
-12.3859
17.9283
32.9952
34.1085
34.1685
33.8485
34.0399
36.121
32.8377
35.9327
32.2758
34.5634
30.3542
32.7633
35.8314
35.5884
35.0116
28.0696
27.8052
34.7307
34.5035
31.8325
34.2602
31.9035
32.3186
27.9423
31.4924
33.4385
32.407
31.8523
43.5414
33.8204
26.359
38.8661
38.9119
40.0676
41.6679
41.6405
38.2753
38.5928
37.4752
35.8046
38.5004
39.2368
32.4436
39.1976
-29.3157
34.7992
32.2187
35.2522
27.5776
-122.488
31.4309
26.9953
31.3288
37.4642
33.8437
34.3627
32.0719
33.0926
32.9357
32.1053
30.2403
40.139
37.2698
40.4762
40.2452
32.3076
44.5551
43.5343
40.1722
16.9503
26.2475
27.1433
36.7196
35.1458
18.6798
24.811
39.6474
43.6525
34.0259
36.6945
40.0079
37.2135
32.5948
39.0769
35.2063
31.6809
35.8624
35.6946
33.9213
36.8984
31.7815
23.008
31.5131
33.6685
36.8362
32.8295
34.2086
34.0174
33.5342
34.4827
-21.1506
36.6944
42.6139
39.3502
36.999
39.9301
34.5076
28.6135
30.5799
36.2768
34.8858
31.9767
34.0853
35.9871
-19.5681
-20.8075
40.9476
-0.444912
42.773
40.368
35.8328
36.2448
35.5783
41.612
36.9931
37.0578
37.7108
36.5552
37.4185
34.7371
36.0625
37.0653
36.4758
37.2033
36.3922
37.2785
37.3834
37.774
20.4168
31.0774
32.2816
42.1671
37.1542
37.8867
37.5301
41.373
35.4438
36.7503
34.2314
36.0315
30.8897
35.8636
38.2142
36.7681
37.4688
37.5103
41.5918
0.408206
32.788
35.13
27.8415
0.490712
40.0582
28.3362
43.5008
32.576
32.3676
36.3867
37.8436
21.6092
-2.19526
35.2014
38.1268
28.961
34.9495
25.3773
14.4449
12.073
-5.07561
31.3839
33.9
32.2311
36.3533
-1.89793
-5.68589
35.7824
36.5757
41.4813
40.9687
32.04
8.37847
32.821
24.8444
33.2847
-19.1958
33.4158
11.9913
39.5826
39.0071
31.2129
20.8938
23.6033
18.8885
31.6093
32.3169
31.8149
23.7728
48.4429
46.0585
31.1166
32.9793
32.1642
32.732
31.5076
34.2949
32.6528
34.3072
32.5377
43.2685
44.5032
32.5538
-28.1814
34.6611
34.4499
31.7164
34.2385
33.8618
30.3184
34.1746
31.8326
31.7902
32.1636
27.3977
32.2656
44.1138
40.0128
40.4691
47.5386
33.9501
33.7259
34.452
33.9426
32.1562
40.5064
39.2092
36.2162
19.5426
32.0975
31.2627
32.837
28.4876
30.4453
35.9708
35.538
32.321
31.2913
33.7766
34.8475
11.5676
32.7259
-15.5091
35.5029
34.2321
34.8564
-14.3994
30.2321
39.7219
14.2495
40.613
14.9819
29.5152
36.2092
25.1201
34.9554
31.9787
25.597
24.1335
24.8121
35.9716
35.09
4.29463
34.7623
34.9463
35.6154
34.0563
35.3384
35.6516
32.7684
33.9846
33.9138
34.8335
37.6534
37.9201
37.4862
27.81
27.4934
30.3113
29.773
10.9219
26.6679
33.523
23.4988
32.0737
13.9602
33.2445
22.9135
34.0143
32.797
29.9463
28.0418
29.065
34.5772
34.555
33.8246
34.3433
34.7081
28.6885
31.043
30.6251
34.9406
32.9313
33.1303
33.2106
31.5046
33.4276
33.8891
31.7574
33.6583
38.1243
30.923
35.3586
33.8925
22.1911
23.6217
32.3246
33.7253
26.0055
27.9127
24.8391
29.2242
31.684
24.6475
22.9327
33.5308
33.63
33.6438
31.7309
25.8682
4.86099
22.0837
31.4253
34.0523
17.1904
13.025
-4.5142
10.9364
13.3589
35.4799
34.0342
28.7019
31.2004
33.4699
35.1297
38.8414
26.6673
34.0257
30.3575
18.6399
36.1793
28.4097
22.8614
35.6461
27.1716
31.5681
32.6197
34.0951
32.9512
33.747
36.7046
32.0771
31.7641
36.3469
27.5663
36.0002
33.0268
32.5918
35.1304
35.5816
33.2184
33.0429
37.8652
34.1471
33.7966
35.6459
31.5545
30.4108
31.3719
31.7413
33.6538
33.9645
31.513
35.0997
33.2038
30.3144
22.4127
27.4548
29.1495
32.426
36.7051
32.323
33.2887
12.1313
32.9542
28.5566
29.2737
32.9671
32.7292
36.869
37.1365
34.5645
36.6972
37.1527
36.0606
37.2061
33.7407
40.0648
36.8033
35.68
34.4048
33.9062
34.4746
28.8423
27.1448
26.7438
20.9564
39.5768
39.7808
30.9991
33.897
34.2497
35.5851
-11.5719
24.1462
34.993
33.0784
34.4595
33.953
33.5891
33.1433
33.641
35.3354
31.8292
34.4307
35.3947
35.2756
35.076
33.3536
35.8719
34.5723
42.6882
42.2743
19.7678
44.9897
41.8941
41.8513
42.3668
42.9812
43.3834
40.8443
39.115
36.1346
37.4752
40.4482
33.8542
30.0782
44.544
29.7959
17.9774
38.2883
39.6798
37.5154
34.7261
43.2312
40.6521
39.0301
39.1607
-25.3978
13.2661
44.9857
39.9349
36.6072
15.368
31.182
9.0985
17.1547
29.3172
27.1937
17.5514
37.445
33.4675
19.9522
24.4815
-20.2857
1.25861
14.5479
13.6692
-2.75229
9.3222
20.5933
21.9903
2.43076
3.54586
20.6257
14.3383
17.1224
32.1537
31.7303
31.9539
32.3147
49.1529
43.8498
28.13
27.3478
30.9223
29.3811
29.6693
19.2842
9.35945
19.7004
20.2897
20.9336