/*--------------------------------*- C++ -*----------------------------------*\
| =========                 |                                                 |
| \\      /  F ield         | OpenFOAM: The Open Source CFD Toolbox           |
|  \\    /   O peration     | Version:  2506                                  |
|   \\  /    A nd           | Website:  www.openfoam.com                      |
|    \\/     M anipulation  |                                                 |
\*---------------------------------------------------------------------------*/
FoamFile
{
    version     2.0;
    format      ascii;
    arch        "LSB;label=32;scalar=64";
    class       volScalarField;
    location    "0.0381003";
    object      omega;
}
// * * * * * * * * * * * * * * * * * * * * * * * * * * * * * * * * * * * * * //

dimensions      [0 0 -1 0 0 0 0];

internalField   nonuniform List<scalar> 
47425
(
56.2562
67.8792
71.7101
164.515
136.127
72.402
92.5347
103.618
49.3965
586.758
140.834
48.4214
69.0104
79.3559
94.5255
91.199
68.5176
50.227
1193.62
176.692
87.008
46.6647
107.772
64.4596
48.2599
45.7505
78.282
672.625
70.7589
56.3848
46.5315
48.6109
47.8059
65.5726
53.679
68.14
46.1915
67.592
65.075
75.3832
73.484
72.7985
120.944
145.007
1300.05
108.31
97.7803
77.7924
78.8026
48.9233
581.255
217.537
50.2676
824.47
115.526
123.906
45.5788
56.929
84.5042
62.4331
1138.83
1101.82
863.865
47.4456
49.3561
47.1764
62.618
76.7747
784.259
47.3193
78.3894
51.1661
48.4006
90.534
688.325
49.4075
843.022
81.6774
1388.93
251.103
718.011
64.5182
45.8605
47.3297
46.7983
83.6132
53.6992
49.892
106.612
409.381
46.9409
78.6233
46.2117
116.027
149.061
196.765
49.9736
51.4097
87.6589
80.7735
61.7542
91.7252
52.4489
99.875
50.1425
54.3345
47.545
93.3675
46.6788
49.008
335.906
63.6437
66.7315
156.358
49.2856
916.755
48.9001
230.773
81.1475
59.7052
79.4218
48.5554
59.2557
61.6701
99.0717
59.0665
85.6705
49.193
107.314
45.701
46.6375
99.5703
133.197
123.786
65.4906
65.689
48.9533
61.2419
68.8556
99.2633
71.2696
135.556
72.6399
82.2188
53.6758
49.3306
107.972
63.4692
153.763
72.5221
80.8603
484.896
48.7802
696.641
48.9066
85.5169
58.0518
906.152
95.2059
74.9482
49.3361
45.9375
50.4559
47.8839
393.172
834.814
46.7394
692.852
107.334
692.704
696.193
88.0377
73.9371
47.5675
74.4728
68.1154
717.097
69.8651
52.8455
46.2792
1005.76
47.4396
60.2044
47.4268
47.916
49.9636
56.4949
82.1117
149.889
53.9392
47.9547
70.615
78.974
77.0424
48.708
47.4638
61.8897
74.2084
48.1748
81.2103
66.9723
123.267
46.8202
48.1637
51.6174
159.219
52.9982
47.7048
88.7463
48.4729
63.6125
65.7554
47.4979
94.5982
62.3797
63.0457
70.766
253.081
49.8253
94.9808
279.564
116.046
94.707
95.4391
167.56
235.313
48.5314
131.303
52.2685
60.5074
67.9903
73.907
107.55
49.3249
166.999
95.0806
309.485
116.675
256.568
181.995
84.3652
56.9472
45.6658
105.083
46.0145
49.5171
68.1343
60.8138
45.5074
77.0146
45.1759
210.816
66.9019
49.2859
92.0496
45.3892
47.5774
122.906
96.1706
48.388
127.577
47.5673
77.7779
136.391
68.6711
92.3385
46.5939
68.9168
62.0399
82.9328
79.4296
224.843
302.639
48.4463
210.799
180.823
211.449
118.415
287.622
179.492
1178.92
54.5366
1119.2
126.447
80.7111
86.3871
106.969
91.7404
92.2396
50.6766
613.166
47.0618
50.3439
56.8108
67.367
101.806
114.498
47.1012
66.6104
57.4405
91.51
46.3626
89.3609
60.0344
773.186
1036.86
678.037
45.529
48.9378
45.6458
104.086
685.069
87.9249
119.479
226.204
76.3632
106.295
124.471
92.701
382.893
200.213
46.9495
61.0868
47.5663
84.3093
45.6352
78.1366
60.6459
52.3396
72.1891
80.4422
611.278
55.0015
76.3633
129.23
45.7485
640.897
53.2738
47.1626
51.8631
47.3733
47.6122
45.479
53.9647
49.2942
51.7746
58.5924
48.8525
82.503
86.9253
48.5688
47.5189
63.474
49.5351
49.8564
50.3544
80.5491
45.5296
50.6955
93.5819
58.4981
59.3406
81.579
94.1345
48.0974
50.4167
133.673
48.2756
68.4258
46.8515
133.172
972.906
77.9968
47.2037
200.238
47.1196
71.555
95.6786
72.5596
46.4778
63.5758
47.3737
45.2914
73.791
88.4916
82.8677
84.8612
52.9765
48.937
85.0429
49.6479
48.2997
82.6541
56.3822
65.8285
49.7659
63.323
91.4537
65.2112
48.8344
485.643
47.2731
372.297
72.8852
107.754
105.563
48.5085
147.645
47.4985
96.3263
48.1004
615.087
350.082
45.4472
50.6336
81.4731
87.1533
81.2728
76.5792
80.0679
90.6642
68.7429
45.7062
103.893
71.0893
49.5985
80.9833
77.4551
54.0492
141.99
1351.72
48.7003
280.073
1118.8
91.3006
1153.55
886.185
49.6251
80.9846
76.3414
78.9409
721.181
91.2278
50.5564
51.2665
74.7248
75.4816
82.3447
81.3177
459.54
779.155
148.543
65.5979
73.8862
123.959
55.9865
46.7637
65.9248
46.3344
84.0809
75.8226
132.708
68.8324
49.3507
78.7443
59.52
80.5452
47.1756
65.2813
67.6222
66.8776
63.5636
110.592
125.229
62.3961
85.8933
46.7857
488.188
131.603
73.9209
46.834
140.4
241.495
49.0827
45.4757
49.2581
47.7361
68.6202
50.3282
109.919
82.2033
49.2125
53.4748
149.101
99.2659
47.0349
52.4618
59.1622
56.0679
48.4697
51.8902
46.0239
68.6551
57.5862
113.443
60.8565
48.3735
45.909
46.4321
75.6857
130.174
47.5506
45.4364
56.7504
55.0151
55.3923
59.6398
72.183
73.0534
51.9772
76.9217
100.912
428.588
61.919
69.1979
54.8869
49.3472
122.925
123.015
79.1272
49.9412
82.917
101.779
49.8005
134.097
48.4765
239.501
51.1609
52.8971
58.1881
119.135
45.3765
72.8676
73.1484
47.6184
45.4193
50.8818
1140.37
62.765
152.132
47.1292
94.66
47.5676
58.5272
80.4077
71.5082
70.8952
46.9083
415.506
53.9194
58.4901
54.047
50.2681
46.1998
58.7572
116.036
49.3224
53.2601
68.3957
46.3023
226.305
46.842
61.7019
527.39
73.0687
45.5996
384.487
550.633
47.462
681.464
716.328
71.8754
47.0523
52.6225
45.8533
86.5226
91.7815
545.305
46.1388
131.58
50.8791
103.662
57.5742
85.5775
68.2421
533.482
297.652
52.9497
94.6486
91.0531
85.712
124.35
128.09
51.0437
98.9483
132.929
90.1247
67.9331
130.556
52.0181
49.1593
130.949
95.2921
78.6189
125.237
103.634
67.0383
73.4384
59.0512
56.1498
68.7205
49.56
47.9359
1338.39
61.8088
73.451
1056.72
1018.95
45.5813
78.6838
1666.38
173.763
90.85
290.417
119.473
767.156
58.5419
49.68
60.2109
158.37
113.778
112.854
46.9594
120.237
65.8211
83.4433
50.2099
82.2995
57.5873
396.82
690.533
124.452
51.3875
87.4793
46.2373
110.724
47.6365
58.4411
63.56
65.9211
47.3537
185.195
75.9769
47.9073
71.5691
191.735
846.641
205.327
89.6536
45.6847
75.3057
46.0511
842.364
71.1189
563.616
85.9911
106.976
64.7278
70.9609
61.0285
86.333
56.2482
88.726
55.2368
209.579
86.9479
49.2357
69.9987
90.6724
1026.09
64.5831
205.104
67.0266
48.6713
45.9922
146.97
79.9853
69.8978
46.6221
65.2093
65.4393
74.9119
81.2784
80.1942
64.5847
124.27
192.485
71.5695
96.6473
67.195
115.896
93.7801
48.5987
99.346
60.1836
76.41
80.4775
46.3702
296.566
430.295
97.9845
67.0745
47.8982
92.9285
53.398
140.336
48.3826
240.313
83.877
46.6375
79.0381
48.9223
59.6044
70.9241
49.989
90.8353
45.9669
47.0443
49.7556
165.279
44.9176
392.22
227.731
244.371
358.786
82.1974
204.097
59.0502
49.4978
148.176
349.564
366.92
100.749
60.0165
121.339
119.73
161.113
133.19
95.5852
52.8684
70.5675
99.4155
116.522
57.8858
84.8465
371.943
59.4649
62.8984
153.546
122.095
116.723
141.833
745.377
501.131
231.291
255.977
80.6541
120.954
45.8202
48.2031
73.656
407.03
185.091
73.3183
74.5126
46.1346
361.952
358.394
45.4109
172.567
92.1799
45.6346
169.408
45.5328
45.5449
72.9508
73.6646
88.2621
49.8531
45.8178
61.1241
70.4695
69.0173
143.778
102.439
45.5569
252.907
48.4911
46.642
47.1339
201.694
80.814
267.67
120.708
54.543
45.7885
68.9277
1231.25
74.1007
85.5457
75.4173
65.9573
61.57
119.556
123.898
127.951
294.075
90.1277
752.258
49.4183
68.219
54.7645
62.0655
46.1319
170.685
129.761
45.8617
315.776
100.929
69.496
261.999
74.6269
53.9778
73.1537
66.4384
70.648
112.033
356.109
67.4221
72.3122
211.172
225.247
664.678
220.045
91.2904
181.102
46.5246
48.8623
99.8324
162.583
88.0672
84.8226
95.7239
104.636
49.272
68.2432
108.31
101.335
91.6536
272.89
593.527
95.6098
105.003
132.432
696.364
299.354
214.904
94.3384
67.1522
96.61
94.8934
156.571
46.6761
49.8403
96.5664
445.37
122.022
70.2953
98.5161
54.7166
110.71
128.804
78.5977
452.696
53.468
66.1033
131.334
97.2775
65.4488
66.2268
104.747
101.096
94.2405
61.2255
131.912
47.6691
46.78
48.0648
84.9413
57.888
151.486
54.0743
223.853
297.071
256.6
96.6271
83.6922
47.5777
70.3005
115.827
481.452
233.005
920.872
46.5823
59.2829
55.8996
306.864
88.6289
299.176
240.492
234.765
132.363
239.701
90.9283
86.2877
73.2059
48.1583
115.087
68.8897
74.1307
209.522
78.3455
64.2344
51.5448
264.16
430.532
150.904
185.609
651.281
193.468
94.1358
72.4067
88.4722
108.795
186.766
190.408
636.786
48.5463
57.7436
72.626
47.9956
64.7592
102.63
98.1782
53.8624
111.879
53.1194
78.8028
52.1752
47.4063
126.876
64.9524
123.032
47.6325
47.0316
164.874
48.1325
98.9533
106.315
47.2866
63.3348
120.322
76.3482
66.1183
80.4047
476.818
186.617
126.044
109.492
1858.05
985.685
642.267
424.323
105.713
50.9708
1059.79
413.863
55.3043
66.4807
108.695
87.522
383.441
140.627
48.6711
115.42
58.587
49.4549
207.353
924.074
141.374
1184.38
154.779
246.743
765.486
57.3589
79.592
134.819
277.865
95.3984
49.8888
49.6881
855.845
75.9959
352.727
72.0395
165.932
49.5185
54.479
536.809
544.668
85.366
56.3832
72.8481
445.523
46.7405
49.7778
425.108
560.057
73.1509
47.0589
1052.07
851.201
525.801
101.136
213.743
473.56
510.191
79.8084
95.6137
100.51
63.0804
108.409
525.596
1415.96
63.7223
61.1633
59.6765
51.9309
50.5899
81.8863
138.702
67.4895
49.5569
48.2924
76.8685
377.598
1091.91
51.5255
232.039
97.4207
74.1355
182.307
56.3415
90.3206
73.9472
49.5787
201.73
53.1156
485.097
46.1466
785.463
548.777
465.778
205.601
92.4095
64.9016
105.699
52.7459
206.005
1429.96
106.309
387.42
191.04
443.147
150.839
796.939
620.898
94.1584
50.5354
1505.91
84.7621
49.6875
74.2894
542.44
1035.08
81.1095
52.2986
465.668
80.5335
870.215
754.577
109.652
122.21
890.066
105.222
48.0034
561.524
52.5471
651.609
1022.35
46.6562
67.8903
84.437
56.1787
125.663
102.614
46.1501
123.905
90.4443
119.657
58.2244
46.0511
169.185
148.908
627.933
53.6809
98.181
225.621
47.4299
814.155
86.52
116.318
152.607
546.232
87.3611
538.501
183.03
142.139
56.9675
716.003
217.4
263.741
81.2283
159.647
61.203
76.0246
68.3202
329.847
264.64
106.642
712.451
150.114
103.667
263.207
130.06
147.373
793.854
283.218
49.5384
159.04
83.886
148.418
311.407
1001.43
58.5371
47.713
62.4002
555.864
63.5131
321.126
60.298
62.5507
47.9173
142.282
57.5505
211.521
304.121
53.9609
63.0769
93.824
81.653
992.178
309.64
115.354
727.177
364.289
121.985
207.412
64.272
58.6821
1095.85
57.9265
444.704
291.709
48.8812
60.3978
81.8015
96.2322
56.4397
71.8967
127.329
81.3743
79.0358
68.4538
82.712
238.396
67.3169
198.633
158.228
199.895
56.4539
727.532
414.339
58.4326
535.177
261.026
57.3154
111.942
639.566
223.79
49.842
181.22
356.153
183.256
435.722
58.1216
559.399
105.312
54.5036
68.7119
111.321
173.204
128.133
67.1336
259.191
49.4808
255.878
109.824
1209.03
146.772
79.5029
122.755
252.099
57.5219
232.381
106.085
112.139
689.959
78.5947
76.2643
1007.71
45.5669
101.718
385.351
61.0802
285.195
838.379
154.686
76.6453
82.1128
960.938
296.052
379.961
311.58
78.3373
69.3007
104.195
631.493
848.385
266.43
89.8452
48.3407
87.73
89.1024
131.253
336.4
94.4638
57.0248
61.1783
61.0621
47.775
87.0055
46.9333
47.3525
122.656
90.0029
46.9149
131.571
239.513
63.8277
48.548
133.584
62.57
48.2118
56.0804
103.98
97.5864
50.6824
97.1307
590.55
89.9864
50.5571
55.9373
46.0312
222.69
68.5574
54.7868
666.508
914.063
281.114
49.2494
662.881
154.337
48.2568
997.402
99.6901
981.069
92.1634
67.4535
83.6989
68.828
47.1936
83.7688
85.7788
94.5062
116.97
90.3854
106
152.141
82.3179
78.1232
432.46
87.2111
1272.06
71.0061
662.193
47.3767
121.025
184.964
52.5153
69.5517
191.114
45.509
463.857
325.822
1273.84
54.4529
643.285
57.3773
113.531
162.296
57.4317
553.23
79.7047
272.466
62.0941
712.604
694.417
80.6584
45.599
336.972
72.0922
348.168
85.9876
97.507
72.099
73.6775
58.5347
48.7299
84.347
263.604
72.1772
179.191
86.7107
88.086
46.786
156.645
754.114
91.3035
331.421
86.6228
67.9526
121.808
82.143
74.9065
57.3031
155.786
132.543
48.5777
86.2959
78.2728
70.1556
95.0045
402.705
411.454
82.7236
93.2476
302.359
88.5559
53.7009
65.7118
49.8119
173.26
168.442
203.966
105.236
70.8237
74.2148
67.7568
54.7529
55.6877
60.8476
453.583
131.02
650.199
488.576
608.846
58.516
68.7558
69.2931
72.9931
50.0813
305.609
79.543
48.2215
81.449
111.241
73.606
346.015
71.9413
158.461
107.084
101.335
52.1001
71.8663
91.3374
91.7422
68.7381
116.554
96.9333
174.901
87.0988
69.1116
78.4049
153.853
174.967
65.7768
83.6743
135.354
99.1102
171.608
46.7315
54.7063
137.121
69.2206
55.0601
77.9895
47.2152
47.015
84.6303
77.4146
434.216
72.6474
87.8008
49.0474
71.0886
667.355
82.2366
86.6225
59.8923
63.7185
89.9917
87.4326
946.416
107.829
429.304
50.9324
60.7343
72.945
45.735
49.772
109.036
84.0625
49.3268
47.2372
322.742
107.566
488.199
123.058
251.998
105.679
77.4116
110.247
540.144
184.471
93.1555
80.4953
930.809
65.4141
82.4231
90.4081
85.6005
47.0644
963.963
68.3199
94.6457
47.2615
127.58
57.4076
936.385
1032
68.5704
53.7665
46.4291
93.6389
96.8951
59.085
1193.61
799.669
65.3127
141.27
429.247
64.7991
103.358
114.731
45.986
62.975
48.2092
75.4069
230.129
88.4037
80.1411
47.4652
58.5706
76.8786
48.6234
295.946
63.4698
132.769
148.573
401.982
306.503
104.713
134.662
71.7621
133.158
122.511
46.9985
590.25
317.082
131.232
94.8288
106.065
93.3724
91.3078
341.436
46.1267
47.2112
62.2635
65.2145
133.536
79.9314
371.623
410.117
48.6055
131.263
46.9244
46.4905
80.2459
61.9895
66.4396
55.3239
45.524
343.016
400.28
46.4701
46.6441
187.855
756.061
51.6678
45.0237
83.1668
163.281
918.045
95.2883
377.644
351.595
376.279
376.95
72.0492
50.2771
45.3913
58.4647
949.016
55.5228
85.6914
81.6231
45.3634
720.083
1206.37
1182.4
204.652
407.936
49.7273
46.6108
54.8981
83.5731
760.535
655.81
362.006
557.349
374.512
58.8973
50.5412
838.305
47.9
918.942
95.3605
914.476
80.524
139.796
57.1121
170.479
169.186
169.857
73.5411
63.2058
89.3847
76.3581
66.096
72.0759
67.2739
1186.68
806.427
89.924
340.483
722.987
318.59
70.2448
47.4333
640.29
530.937
484.723
47.1526
842.178
51.0539
980.612
727.157
687.9
279.936
53.0918
60.9902
47.9329
73.6834
86.6584
159.13
66.3627
84.6466
60.692
96.136
79.6863
46.096
49.3486
114.152
48.2165
51.5407
80.0083
70.0671
90.0921
90.3417
157.702
92.305
51.7624
96.0571
105.535
90.1729
96.0935
134.562
1181.11
58.847
323.786
67.7481
94.3644
382.49
72.5247
55.0604
47.1339
97.0752
97.7382
55.1589
104.735
104.011
85.3002
48.2556
67.9335
54.8186
72.0091
109.747
73.7874
101.165
293.613
92.1013
83.2168
77.7251
115.331
84.3401
333.787
47.4596
69.397
109.905
300.755
308.244
84.6037
106.525
939.151
240.245
189.08
91.9067
73.2481
113.298
89.4357
53.8186
135.726
79.6305
89.0992
378.39
51.9227
166.872
127.685
115.371
106.863
202.119
80.1848
58.3917
46.009
55.495
100.259
82.2372
560.375
64.1952
91.6703
128.221
104.374
903.653
58.72
57.1011
105.421
280.749
384.262
152.763
46.9683
136.18
67.7803
49.6058
45.4913
539.454
102.146
60.8032
403.506
73.4482
71.0316
160.158
785.752
1014.4
126.509
69.0163
942.389
50.0667
173.015
128.259
549.721
328.243
64.4369
97.1336
546.841
93.472
62.4891
71.8215
101.854
54.9464
66.6456
362.552
48.0341
102.875
534.499
149.092
562.077
83.5621
420.348
53.0401
1102.85
106.002
106.104
575.223
232.679
283.579
487.896
428.58
285.58
46.8851
49.7777
412.947
57.7636
86.7856
351.136
64.784
61.554
75.8266
149.783
71.9079
51.5986
731.717
405.563
155.925
374.17
168.821
91.6161
83.5335
79.436
117.113
64.0477
56.5228
84.8222
63.0902
309.815
331.124
101.525
56.5966
70.193
77.1813
114.856
107.688
99.5536
77.6634
344.048
61.2861
65.5162
381.609
132.938
563.914
199.056
98.499
712.62
139.443
113.912
355.295
135.33
129.172
51.1764
653.363
46.267
56.7503
54.3523
87.5795
70.0861
103.869
206.487
106.647
134.99
83.3681
112.232
101.548
45.4393
336.285
136.318
580.03
1222.71
105.417
384.455
113.578
71.1846
628.502
69.7889
61.1914
89.7152
107.202
666.292
351.613
55.4061
312.398
378.623
72.3761
1890.16
398.027
100.615
371.672
64.2595
89.8163
240.418
349.671
147.284
743.663
57.2041
52.9994
153.813
55.0994
49.3543
106.526
314.253
573.92
47.11
144.139
46.1513
145.46
63.5419
145.275
309.682
90.8203
268.562
59.9442
63.4401
782.571
46.2933
54.5745
116.45
54.1858
128.389
308.137
49.2208
944.89
529.953
880.254
491.953
119.403
69.7551
52.8738
60.9507
85.2958
48.3002
88.8037
151.058
64.3399
75.3324
650.096
47.1475
153.671
47.6306
131.659
68.7419
721.396
129.459
94.708
47.0457
135.348
152.869
49.7746
61.1672
102.177
44.9903
208.052
97.225
107.082
55.8242
47.8661
104.171
50.3237
129.902
318.659
48.2021
74.7155
49.9314
66.2538
433.25
226.633
131.335
423.289
811.642
399.492
78.5482
546.913
457.667
718.887
70.8326
191.816
386.613
313.837
289.359
956.902
57.3888
48.2861
190.035
790.911
54.1992
377.044
108.688
392.429
77.4322
71.9182
576.291
547.152
378.381
60.1439
303.668
132.107
481.826
47.4045
210.365
65.4477
54.8053
97.4958
98.3439
303.785
115.378
65.3857
163.6
78.9673
251.677
359.017
47.7022
69.3033
57.7484
945.002
84.3995
132.724
171.37
140.624
69.9073
46.9441
93.239
77.1363
416.864
45.74
106.77
326.136
66.3803
52.3646
77.4274
74.0059
653.987
139.802
206.026
96.1953
70.7136
1070.33
980.476
60.4443
147.937
60.5235
49.1911
408.744
79.0639
515.829
56.5173
51.2201
99.7257
58.1854
50.3437
61.7284
68.4833
138.569
219.831
328.743
301.752
70.9387
78.2596
48.0333
172.968
566.978
905.48
72.998
565.281
185.801
638.657
82.3814
381.727
111.753
161.423
130.749
85.7422
270.009
72.8868
182.035
112.556
60.9576
1029.93
107.602
590.779
107.493
70.8114
110.756
118.232
66.4929
68.7749
290.841
108.98
124.55
56.6944
124.01
600.539
131.059
80.6804
163.705
47.4793
62.031
48.0895
77.6059
79.9268
150.568
73.028
98.0478
90.4471
72.5077
79.9705
64.8161
76.2804
60.5595
270.18
53.2584
106.837
51.6951
69.8405
128.655
80.6405
53.1897
81.3791
101.175
91.3038
130.548
337.898
48.9305
142.719
355.134
158.707
156.251
53.0609
156.84
87.3007
290.268
65.1296
49.5112
53.8119
158.878
59.2186
67.1455
847.234
158.771
353.644
48.1345
51.4164
179.389
81.4133
55.8297
128.21
49.1185
83.2261
57.1897
383.588
46.885
155.257
49.2804
49.4938
77.4241
66.6983
133.681
105.359
45.684
279.59
67.0522
71.3427
90.3396
791.66
65.5334
61.8849
130.672
61.3085
56.6016
127.015
57.1559
51.609
107.587
196.729
126.886
86.3454
411.575
110.211
271.988
48.5623
182.411
66.1929
95.8748
181.678
51.0969
94.3333
63.9419
82.0975
161.31
67.6982
584.815
106.585
48.915
501.783
131.425
1289.2
303.212
137.806
88.1924
97.2271
122.164
384.766
64.1039
459.152
91.1325
366.022
67.772
369.755
67.1885
241.935
217.311
128.226
382.472
477.987
468.242
1192.02
551.335
664.329
333.664
426.879
341.587
46.6514
97.8356
311.908
70.1095
613.88
59.2097
458.674
612
124.089
102.485
78.0925
46.3231
115.717
49.2973
251.128
133.921
85.591
181.456
87.1454
157.132
71.0853
54.2012
113.946
51.6344
223.03
47.778
69.6567
697.235
65.6634
46.1212
103.064
63.1881
628.973
263.718
70.726
63.6597
173.9
49.8688
82.6219
50.9633
54.2103
107.094
79.1036
57.2881
63.3798
306.182
90.9465
59.094
47.7363
45.9694
47.8204
156.717
74.3127
99.5343
55.2946
76.2955
99.1889
54.896
253.583
74.2878
49.9047
61.0089
85.0646
142.859
112.742
100.105
52.1519
120.678
85.8551
54.3661
54.8515
79.0508
79.774
99.3866
71.4037
128.359
66.8809
87.5594
117.348
282.927
715.458
1119.24
126.893
61.4109
429.321
172.387
138.254
48.4575
51.3632
46.8666
91.4873
76.0263
46.4829
47.5022
49.8504
115.742
45.8181
49.8187
47.1131
60.3228
171.484
56.9671
118.155
53.5622
95.589
255.458
59.8376
54.7693
62.0161
1042.24
936.847
99.8518
67.245
68.0105
60.1544
84.2834
524.203
66.5525
68.806
92.0213
46.6775
95.9277
54.2593
82.722
114.491
91.327
64.5589
207.264
259.341
66.4551
2055.85
213.968
203.679
61.7182
86.9559
102.957
116.906
52.5568
76.8705
313.299
47.6868
198.455
575.245
108.279
126.489
623.253
68.152
81.3338
93.9946
46.0931
122.847
390.634
93.8862
89.1183
414.962
202.013
1125.43
603.048
98.9292
50.1857
141.063
68.89
182.503
146.864
546.471
49.8493
47.0796
625.301
52.4815
199.426
75.3315
106.011
635.99
852.355
50.4683
46.3477
909.116
49.8934
54.0705
65.1022
48.0012
83.6346
134.529
249.912
60.3444
559.49
108.104
51.7034
87.1551
696.162
82.8524
611.119
66.2902
59.989
88.3364
86.7411
60.8438
103.543
64.8147
572.244
110.196
113.282
489.148
125.799
54.6241
584.796
108.132
109.847
81.1928
132.723
111.271
77.9281
48.7628
259.193
72.8015
74.3094
65.2541
117.228
78.0311
59.3644
49.085
65
153.256
70.3405
65.9962
83.5063
421.91
74.5949
69.6416
66.6798
96.6179
49.9407
64.4646
62.1651
134.22
102.001
143.133
150.923
91.186
382.512
61.927
57.5264
435.982
341.788
527.096
91.2031
362.595
56.128
472.65
96.0474
363.149
96.8546
46.7728
117.852
206.024
95.0388
68.3632
47.3872
62.4037
439.936
62.8759
51.6561
55.2854
1752.76
368.314
47.9855
1524.32
524.11
331.998
194.554
1357.19
315.395
73.1908
365.28
91.8359
62.2382
407.253
1021.56
65.4336
48.6398
55.3873
518.161
48.2658
1022.9
78.1845
131.081
110.822
128.425
337.78
46.2727
117.052
124.094
55.7333
106.777
52.677
125.096
1965.88
1992.4
811.936
95.8833
543.22
47.425
49.4196
61.6382
102.1
46.4951
56.3685
46.3616
73.2004
91.102
47.5411
53.9452
77.6114
47.7605
99.8364
123.327
48.1916
117.608
129.46
47.1041
56.7648
887.019
56.5119
836.488
609.022
130.491
135.498
84.4359
124.786
67.7049
55.6178
432.546
58.0377
61.0981
51.0039
54.2655
79.0599
143.55
112.551
181.825
112.84
50.0765
530.794
63.7815
298.28
300.176
63.7183
772.925
76.2406
58.3179
60.6568
57.6348
67.98
50.7624
129.766
52.821
392.035
209.906
376.748
56.3566
57.573
82.4378
353.681
388.843
86.354
148.099
64.5955
371.503
63.986
125.45
498.842
87.0861
56.0986
92.2336
1091.31
62.0283
58.8957
121.602
50.0684
138.812
131.987
86.7518
85.8189
288.777
172.149
696.173
72.8077
315.338
356.909
349.272
54.7888
179.133
103.613
104.629
53.7922
59.6753
62.3611
470.042
85.7526
99.0731
186.78
82.69
62.2232
98.6985
49.6843
146.398
48.2864
63.0685
169.065
103.963
80.1083
170.58
100.94
87.1504
81.6434
128.958
47.182
290.205
286.724
110.362
97.721
47.3059
279.639
60.2808
47.8643
86.8946
49.3521
109.56
90.8932
49.5334
53.1188
101.365
264.185
231.781
49.6426
792.176
46.2559
97.6408
96.0604
48.1832
770.317
150.687
666.746
50.2291
69.366
528.974
671.552
91.3873
103.539
194.449
128.015
53.8122
89.4491
62.8703
148.516
82.826
136.063
49.7074
136.78
102.552
110.297
61.3595
89.9729
46.2674
62.1599
570.742
279.605
106.307
68.2357
105.833
88.0051
88.311
151.881
47.0008
51.6195
61.0586
88.8588
84.436
66.0624
114.824
56.6191
57.2056
53.8527
72.9151
58.3424
67.7186
185.221
79.3763
69.6508
1219.16
80.2519
65.4319
80.6522
46.0948
84.7342
210.056
49.4188
79.456
81.6501
883.561
64.1522
62.5111
95.3314
1515.01
96.0451
156.215
124.706
67.7088
48.2253
75.762
65.5506
834.253
96.4767
68.3767
66.0633
48.5835
269.936
49.0943
550.274
333.923
112.135
75.715
59.3933
112.448
89.5365
59.6502
427.304
119.906
312.298
46.1761
139.857
674.432
119.045
51.175
102.646
54.3437
722.066
59.7532
56.2384
91.3183
45.8186
60.4777
87.6804
52.0295
277.137
48.2705
369.754
47.0017
77.1293
67.1021
150.332
89.4996
130.045
112.086
563.715
105.139
122.719
75.938
47.3491
103.243
58.521
54.1234
82.158
77.7092
63.8703
127.447
47.182
63.8908
48.276
283.528
87.0717
582.306
531.856
327.285
161.784
66.006
69.5834
61.2618
196.118
92.8293
47.5042
46.9761
112.727
139.635
48.8784
74.3207
1075.53
111.059
67.9269
74.8603
743.897
852.636
59.8378
538.825
552.881
204.785
317.968
169.773
505.501
72.1416
230.181
741.033
75.2409
45.4934
60.6607
101.143
316.521
46.7318
46.7396
69.0804
149.418
155.935
1112.52
110.541
983.623
120.356
70.9236
87.1802
78.7719
71.0257
580.602
146.216
308.061
456.83
68.0454
548.008
1832.63
66.6266
140.747
109.584
421.237
153.448
124.054
713.693
1053.4
100.264
601.334
127.386
396.107
82.5876
47.4587
154.341
736.179
658.057
62.2981
107.27
153.068
97.3726
244.849
52.2115
69.301
926.446
401.665
411.163
47.4558
413.334
67.0402
390.856
59.7999
109.535
197.717
332.85
87.4671
111.299
312.713
100.812
893.269
74.999
61.9603
368.325
48.9629
150.623
47.0622
54.9056
46.909
83.1756
428.446
458.453
338.38
60.9724
64.7788
277.719
58.8262
477.957
69.3237
54.1206
83.1507
206.224
153.85
604.046
51.6476
74.722
66.3565
293.544
104.483
565.91
891.83
435.772
104.631
63.856
394.28
386.736
156.49
50.5144
63.859
45.549
726.271
250.369
406.31
1863.92
236.773
97.6769
82.3229
768.695
398.038
65.3493
89.0156
103.009
325.662
59.1179
49.0611
89.3318
79.1725
712.259
327.749
229.031
231.981
298.854
346.036
163.655
95.6787
841.482
520.614
702.871
204.839
338.535
616.572
153.696
60.1681
105.55
58.2085
57.1559
74.5679
75.4847
142.688
279.332
86.3761
179.174
182.303
147.21
98.1611
186.3
105.87
93.183
129.445
712.167
1108.84
489.984
67.3147
121.3
82.0615
281.298
549.615
156.093
544.404
79.0548
453.434
339.533
180.891
48.8123
47.5247
71.4378
62.9602
642.45
90.0212
58.4244
514.141
73.5827
796.285
426.469
100.923
439.81
61.4809
46.5053
49.3898
45.7924
99.884
67.2343
93.8811
134.102
75.0284
47.995
155.063
679.983
524.458
46.4447
106.165
51.9261
64.66
55.0919
666.459
51.5933
54.3652
54.573
103.37
48.1253
54.7784
95.1882
55.4975
58.4338
55.1752
232.703
46.6106
61.0754
123.899
412.769
353.077
64.4275
641.394
724.244
55.9673
54.8953
163.135
77.3743
309.572
81.7296
93.5678
81.5716
298.887
70.1579
93.6952
1030.99
438.45
98.2022
619.644
49.1424
47.3096
64.0865
47.0523
47.5951
71.9891
56.0729
79.6014
197.03
85.4075
394.109
198.009
242.283
82.3447
45.4618
620.417
132.68
85.8736
567.363
104.234
666.998
68.817
438.823
46.8065
177.25
87.153
239.144
48.8121
87.1991
79.7224
778.028
49.0545
45.4205
126.246
80.2605
127.866
59.2416
68.6238
91.5576
50.1162
132.326
51.0653
64.6199
148.177
89.4931
222.915
68.9191
47.5716
61.7925
46.5035
53.9833
236.435
45.3112
90.0061
45.7131
229.868
119.325
53.2955
115.649
112.31
59.0388
80.0525
73.592
131.377
156.658
52.9637
48.5951
90.0173
71.7713
355.005
574.114
493.495
62.2432
48.4087
58.0853
64.0373
91.3969
865.321
236.401
64.1954
54.0726
76.4543
48.5346
49.5513
76.7985
145.706
186.618
479.015
310.873
57.2622
76.9055
80.3892
45.371
247.274
73.5674
109.246
114.67
52.5051
976.059
77.0453
57.9744
70.0943
69.7191
162.367
485.699
46.657
445.378
56.6664
744.756
115.132
505.666
72.0849
47.9627
59.5792
104.732
52.5321
48.5585
127.071
46.3954
46.8583
53.7474
61.0087
218.962
58.3596
753.553
74.1351
61.4166
145.209
171.484
48.4262
466.416
944.542
740.785
565.076
445.676
54.4348
399.83
330.946
78.6186
57.6492
54.1524
689.563
91.7058
97.6079
49.2559
74.3063
305.962
742.497
156.069
84.062
45.8419
66.2079
253.982
49.2601
56.8554
567.801
470.465
280.555
745.693
76.8951
47.7162
70.058
82.9667
1131.29
50.93
47.3462
46.0377
295.448
47.5194
53.0858
95.05
101.378
46.468
113.49
48.3841
148.414
84.4293
141.609
54.3985
219.137
91.1057
113.643
177.52
112.38
252.096
52.4244
616.175
93.2518
348.824
334.108
423.163
84.2714
115.049
195.993
70.0554
46.4889
50.961
53.7132
88.1609
565.47
118.309
47.5014
84.2884
62.659
49.5488
120.344
61.3727
135.99
99.3071
48.8201
101.398
51.9997
77.7718
286.746
546.372
69.8834
100.809
80.2366
105.133
533.733
333.431
561.033
861.958
143.293
48.4851
50.2227
46.3749
106.4
842.535
80.8912
796.846
133.494
47.6716
118.852
373.257
47.985
48.0009
56.2348
77.0933
59.14
308.933
75.9986
92.8175
277.716
49.1517
98.7384
63.4112
130.374
106.811
54.1965
652.76
82.2388
115.159
57.152
115.95
47.512
117.894
123.235
93.7788
94.2762
78.426
66.65
68.1198
53.2201
230.549
59.7254
53.1686
117.438
217.392
234.57
103.381
96.9563
115.087
177.503
71.4805
337.757
93.9379
139.866
104.2
79.6289
163.522
82.6832
97.0204
401.093
102.395
53.5268
49.1674
345.081
91.491
104.869
52.7487
113.053
86.8756
48.7067
95.8525
399.094
92.3784
73.1976
88.586
655.313
74.5449
92.9111
146.346
60.3497
159.085
50.9033
737.747
83.2498
80.773
85.8146
56.7027
117.729
56.6299
493.351
45.2855
78.5054
637.925
58.4435
113.98
205.684
103.019
50.1699
552.711
58.459
46.8862
95.6903
135.234
57.7984
303.286
46.4248
367.011
99.739
46.4341
75.0795
118.896
726.546
184.575
71.2137
48.0918
131.761
393.416
348.325
118.249
125.185
1005.84
210.472
341.443
130.176
85.2518
104.276
59.8134
525.589
1021.63
153.036
173.417
100.234
953.688
479.302
454.19
421.318
174.015
64.7363
53.518
152.807
73.7446
553.621
324.252
81.6181
791.567
109.303
75.3133
70.3198
51.0793
108.06
88.9248
92.0944
78.7279
143.227
184.36
877.102
57.3911
119.116
641.804
608.46
182.271
183.291
65.1836
666.875
47.4636
65.8493
359.669
148.445
46.8603
331.397
434.224
70.3849
125.648
49.665
97.6551
57.235
80.9287
177.763
84.9926
607.353
45.9182
53.7984
90.2906
478.574
169.142
124.26
168.665
254.654
123.047
79.1256
403.086
109.795
72.0994
243.302
782.869
282.037
59.6454
390.068
160.414
89.7233
65.882
128.516
48.6912
110.159
81.24
76.8139
68.9081
60.184
88.7908
47.118
45.4515
49.4745
100.3
50.4733
160.621
407.566
726.996
98.2465
81.2482
59.6595
52.36
104.949
662.803
53.2577
145.957
73.1824
215.128
63.6886
113.247
168.71
400.062
48.8193
56.8935
255.849
53.0694
72.9018
113.458
76.961
370.017
82.5554
301.558
416.901
242.366
637.714
189.386
385.51
88.8336
136.16
145.704
55.2268
430.813
121.807
87.9884
159.591
92.4109
85.2653
46.0351
55.8188
51.6073
46.0401
86.7086
317.476
45.8414
907.806
113.802
325.682
115.931
347.789
1721.37
55.6961
260.243
995.155
124.442
340.191
78.5414
70.3426
781.716
1000.74
269.686
163.806
55.7386
371.236
103.134
577.739
53.8285
56.706
228.923
1010.64
61.9377
80.5869
53.7584
227.72
494.384
49.9211
499.958
228.53
534.547
703.372
51.9282
361.146
72.0001
701.013
373.699
211.637
376.781
248.435
461.306
336.553
235.828
80.0381
74.7882
74.967
51.7812
54.7604
1294.06
71.2472
103.88
72.0629
80.9013
120.623
1009.33
134.584
265.273
306.957
140.944
337.529
130.539
45.7589
75.2746
945.283
574.967
261.93
191.793
239.533
85.2374
458.486
59.7989
254.778
274.088
58.7708
507.727
107.253
288.59
344.583
138.907
186.337
192.368
131.4
52.2971
144.409
64.3367
522.013
72.2391
191.911
80.7905
251.341
60.1085
68.7415
354.428
125.293
305.406
47.8897
1087.27
46.7748
61.2168
55.219
57.4977
89.5249
495.704
150.311
75.4708
647.759
77.0988
49.6476
60.7989
855.89
52.7868
93.1803
845.454
268.465
887.337
451.694
145.095
180.545
169.067
193.472
732.45
68.208
405.262
124.177
66.054
181.485
66.3913
134.638
71.8111
648.337
426.711
531.735
345.052
235.621
326.472
52.2354
202.198
153.459
52.0486
192.804
91.6981
76.8558
52.8268
47.3699