/*--------------------------------*- C++ -*----------------------------------*\
| =========                 |                                                 |
| \\      /  F ield         | OpenFOAM: The Open Source CFD Toolbox           |
|  \\    /   O peration     | Version:  2506                                  |
|   \\  /    A nd           | Website:  www.openfoam.com                      |
|    \\/     M anipulation  |                                                 |
\*---------------------------------------------------------------------------*/
FoamFile
{
    version     2.0;
    format      ascii;
    arch        "LSB;label=32;scalar=64";
    class       volScalarField;
    location    "0.0381003";
    object      p;
}
// * * * * * * * * * * * * * * * * * * * * * * * * * * * * * * * * * * * * * //

dimensions      [0 2 -2 0 0 0 0];

internalField   nonuniform List<scalar> 
47425
(
1.32716
1.25243
0.0241358
-3.21715
-18.2068
0.120901
-16.1515
0.0155946
13.5869
-34.6251
-0.0303213
14.2299
-11.9479
-0.0232041
-1.15589
12.5978
0.0171381
25.7726
-102.842
-30.6674
4.46409
16.2813
-0.0728592
1.00489
15.0462
1.04287
0.0511121
-38.5847
-0.0377502
0.311833
16.0487
13.1184
14.2246
0.28539
0.0280651
-0.0212271
17.1382
14.0049
6.87684
1.27115
1.50092
1.26197
4.28981
13.9288
-39.1682
1.18416
0.116815
13.7919
1.26341
0.485466
46.9009
1.12591
0.115901
-27.9977
1.1831
9.10484
1.29533
0.196286
-13.1866
0.068931
-29.7641
-30.9876
-69.7787
21.0712
13.4291
3.41159
14.2878
-0.790438
-47.245
23.4338
3.58861
0.758486
1.74028
5.05972
-55.8698
13.2359
-70.0226
0.168903
-107.427
-18.9057
-58.9227
10.3844
21.8294
13.1918
1.75377
1.41481
1.50615
1.36173
-2.42163
-24.611
15.4114
2.63341
0.457887
1.37732
1.45385
1.33058
0.357533
1.42814
1.53292
12.0981
12.7911
23.1991
9.8524
46.2401
9.64458
1.49991
1.41568
1.40862
1.74746
14.3911
-43.9284
13.7037
1.1351
1.49459
0.0985037
35.5779
0.41758
48.4501
8.36169
-1.91189
1.53132
14.2583
13.6708
-6.83182
11.8287
0.42615
1.4593
13.329
1.15021
0.490803
22.105
1.16579
56.629
8.19668
1.4915
-8.42227
2.27814
0.380222
11.7554
-0.025095
14.2837
-7.10155
6.43515
0.747449
11.8161
13.365
-16.1235
13.5341
6.50287
14.2007
1.22667
40.0128
13.5876
-4.08388
21.7731
1.10162
3.45603
-116.43
1.31152
0.337067
-1.04167
1.01489
0.651563
11.4967
-47.1503
-83.2019
13.5287
-55.3058
0.678809
-42.1888
-56.5336
0.684411
13.312
18.9393
1.30497
13.417
30.8043
0.0311382
0.021569
0.359798
24.8949
1.2601
0.0398766
0.0854267
0.163774
12.9885
10.9736
51.055
0.377694
1.30594
14.1466
0.384744
-10.9075
14.3664
0.467453
-0.775361
14.3449
0.925055
-1.44682
1.43438
0.243592
1.50529
1.82364
-0.367695
9.5536
2.37676
-0.00565936
-0.00249587
13.0392
13.2675
1.36821
-0.757146
13.2699
1.0735
1.79891
-2.13357
2.31147
-17.9166
21.7156
14.2346
-21.1325
-2.41998
4.25348
2.1561
2.84348
-18.9736
0.388985
-1.68955
-2.97248
-7.74953
2.9269
0.234965
1.49851
14.0417
0.10103
12.9342
-23.7829
0.732792
-21.3985
-0.000293931
0.150036
0.449745
0.441708
-6.51567
8.40333
13.2491
1.38482
13.1429
0.737132
-0.0526375
1.11124
-16.9509
-0.00258314
14.3426
0.196613
0.239993
15.6753
0.2797
7.39629
13.1946
0.280172
13.8382
10.2964
10.1297
-8.17392
1.42086
0.119678
-8.03867
0.298938
10.4438
10.9095
-21.2916
-23.6259
10.8473
-18.9094
10.7871
-19.8902
32.2087
-21.9021
34.4213
-29.1114
1.41108
-34.0255
0.7351
0.705004
-1.98112
0.686251
0.0888415
1.54144
0.242062
57.1958
20.1831
13.446
0.0532257
0.0981977
10.6335
-5.63453
10.7107
13.6961
-7.91526
1.41399
0.928331
0.221677
0.0864378
-61.4229
-73.2986
37.7943
0.395746
1.06068
11.8273
12.1123
49.6276
-0.114491
0.0880909
-11.9121
1.44216
0.45183
0.485966
0.089089
-37.6238
-11.8519
12.5439
12.1525
0.0185839
1.19006
0.0580959
12.3125
1.24448
0.68058
0.239983
-4.19648
-65.3516
7.24171
0.120542
14.1835
-0.00582942
-64.3141
13.7756
0.690658
0.753963
12.5733
12.3755
1.29957
14.2161
0.582128
0.0764053
0.217295
16.8644
-0.0533118
0.196365
12.8584
8.02815
13.0788
13.7922
13.2355
-2.50093
0.369522
20.9707
13.6123
13.5117
18.3963
-2.81905
0.899852
0.0942902
8.85355
1.33975
0.141579
13.5794
13.9313
10.4135
0.221879
-39.5681
1.55632
11.3972
13.3734
11.3084
-0.0438671
12.93
13.2356
16.7226
13.1382
11.2302
1.00323
13.7763
1.18976
13.775
0.0209729
10.8487
14.249
0.100506
6.98331
8.23249
-0.0287763
7.25797
0.601427
7.56655
13.9866
-0.0059428
-12.703
0.287414
-25.6159
0.389204
-34.4643
0.220122
3.37276
0.219994
0.27825
-0.0194903
0.155983
0.216925
8.34293
-73.9147
59.1544
0.953189
7.86239
5.90324
4.49414
0.815153
0.0891644
0.49919
0.177553
0.648372
1.54029
4.32588
0.0192445
0.0488307
-4.29932
-2.89007
-0.403523
19.133
-69.5381
1.38172
28.9668
-68.096
1.60322
-72.1345
-29.209
0.845639
1.71025
2.64174
-0.971787
-75.4531
1.22168
0.939194
0.444437
-1.36101
0.744863
1.05132
1.20511
-20.1439
-71.8622
-21.7806
14.0515
21.6396
-0.781005
1.12539
1.58697
-9.56168
1.88911
14.0402
14.3033
14.326
7.48113
14.2347
0.737439
11.4263
0.228502
0.0528775
0.512587
0.518823
14.0682
14.2234
13.1644
8.84879
12.2182
1.08363
0.902306
-19.9301
12.9724
-10.9385
14.2545
-0.27629
0.823026
13.8596
0.940323
12.1775
13.6237
13.0973
10.5264
0.584409
0.854261
12.5538
1.53023
9.56202
24.1961
0.831346
14.4478
13.0819
16.1971
1.35109
0.371762
0.952563
0.147435
2.70523
0.0333329
0.0829789
0.930025
1.18642
0.222979
0.145211
-0.0520696
25.1978
-0.00663651
1.5723
1.384
1.0404
0.0508691
0.093517
12.3303
9.08568
13.3174
13.3244
47.1648
0.0499283
0.0527401
13.5785
13.8237
-19.4037
-23.1078
0.0974894
1.25169
1.31208
-6.81348
12.9501
-24.8811
14.2291
-38.674
28.5013
19.6253
0.197958
-19.2576
0.207121
1.21421
0.227603
1.65764
0.0984348
0.83806
-67.3689
0.247517
-0.0165645
0.296708
-18.5462
0.812113
0.104632
-18.4658
-14.4493
0.0886045
0.185565
-31.6567
0.514832
0.685467
0.0811469
0.406022
0.3274
-10.21
-8.1293
20.1067
1.53746
1.44653
0.0687287
-26.3049
19.9573
1.57806
-31.7308
0.0991102
0.22926
-33.328
-36.0707
14.9581
-31.2823
-31.3421
0.221743
14.1127
0.12146
17.9365
13.2096
0.091684
-44.5727
12.5819
0.0798974
0.664944
-16.347
-9.63698
14.2336
7.72593
-58.1108
-25.7936
3.26841
0.386458
1.28954
5.45037
0.477584
0.572083
13.2539
9.17985
14.2234
-0.126872
13.2643
-23.0937
7.16388
5.24465
-24.959
11.768
0.528181
7.43351
11.317
0.520591
13.5634
-0.273609
31.2011
13.2743
0.557225
1.42367
-95.0514
8.74472
-7.63596
-37.5742
-39.3889
0.281243
1.5395
-40.2079
-0.082952
7.08357
-13.8657
13.6361
-35.8178
0.248332
0.24777
13.3728
-29.7695
14.2936
14.371
0.485801
0.104557
0.866317
0.0235521
0.836361
1.06212
0.352888
-29.0798
-37.3398
2.91012
13.5423
0.213819
18.8224
12.6642
14.2833
14.2939
14.3398
14.2921
21.3847
2.24449
14.2312
10.3751
-8.7379
0.137527
-76.9471
-22.951
-0.0725295
19.6225
6.0355
0.171988
-80.6402
0.0325602
-56.2898
0.329403
-8.96499
-10.565
0.706498
14.5267
10.2088
28.4222
0.387317
0.616077
1.38275
-11.8482
14.16
-13.1618
1.56044
-80.9655
-9.02839
1.42021
-11.2327
14.2353
1.14862
6.71394
1.42683
-12.473
14.1187
13.015
-11.8928
0.307848
1.43918
0.150315
0.755195
32.0487
30.8409
16.5009
18.9495
0.142633
-0.0219145
4.59602
1.44185
0.667763
0.200343
1.19279
0.186997
1.11515
34.4769
-10.3092
0.136725
13.0666
0.993694
0.980396
1.24097
0.0690384
-1.46355
-20.1624
1.25036
0.244461
0.0102085
0.899102
16.1469
0.0165874
1.42974
0.808629
0.72369
1.11588
20.282
39.0675
0.957307
-31.7451
-4.54828
-27.3225
-30.9263
1.32066
2.09411
8.21515
-0.0480118
45.673
-32.8347
57.9612
-6.86925
2.37712
-12.7603
0.466441
59.048
4.91366
1.67936
1.27383
0.31025
-7.13983
1.59037
1.23091
0.891043
-36.0679
28.2873
13.5095
13.8019
47.7359
44.0008
-10.8019
-56.1696
-14.9762
49.8398
47.0087
13.6734
0.562229
19.1647
0.484469
7.5858
-31.5681
4.16561
6.73094
8.05424
0.315136
-33.5795
-34.09
0.1765
6.87187
0.643351
0.464669
8.00547
0.296521
17.4803
0.0660877
0.52815
34.8094
0.24479
-0.128024
0.0210978
0.56966
0.191984
54.3665
-17.4757
0.0500185
7.74555
0.629578
17.0418
17.2103
-11.908
0.552983
-37.8779
-12.9118
7.18312
3.65987
27.0112
-55.5462
0.0312239
0.101193
-10.3131
1.2447
13.8364
3.50758
-0.030311
14.405
-48.5003
-16.3378
-54.8561
14.3717
29.1422
0.251791
-9.01119
18.5343
-12.4338
0.0581916
20.1958
-50.6337
-12.8175
-13.3368
-36.8391
-11.9366
1.34189
0.0465319
-10.4139
0.118105
-13.6761
-32.5791
0.0210149
-16.4709
1.03539
0.912172
-37.2791
1.09725
1.47656
14.2421
16.9775
13.4119
-19.956
-2.65774
0.977106
-12.1332
49.527
1.04178
16.0886
1.30036
0.920972
1.0991
1.24582
-26.2154
-76.758
-8.89978
2.15744
-14.609
-15.2673
-18.7176
0.640383
1.2041
13.9058
14.0923
1.31977
-6.93133
17.5972
24.5209
13.9694
-32.2293
-13.2394
2.28047
1.14914
0.461405
1.15465
34.9206
13.6771
-10.5976
0.252233
7.20617
13.7889
13.769
13.628
13.4054
14.0282
-21.9764
-5.88503
23.7199
25.6679
18.0077
8.39604
-1.04294
38.0469
1.36848
-6.19156
1.32517
-12.1906
-13.2635
-1.61193
0.791095
14.0478
16.6232
13.825
1.3934
-47.1623
-25.1063
-40.2276
11.1844
-7.30321
8.02654
-39.0158
1.42732
-47.1201
1.46012
1.4734
-4.03589
7.81938
1.39792
12.0984
0.226003
4.77855
-5.8814
0.945935
1.34132
-23.9189
-10.4004
0.386847
18.2356
53.0326
-67.0146
40.7578
-21.3645
-52.7343
0.289167
0.982998
23.133
0.486896
53.6498
0.411451
0.173304
-72.7869
14.904
2.95635
0.298997
13.6879
25.0394
12.1543
0.65631
13.4866
-14.1794
10.7603
14.5969
14.7889
14.2528
0.718414
-9.68867
-7.26471
30.6307
14.7444
1.05502
11.7985
0.609901
0.662291
8.32541
-8.20076
-8.60222
-7.42267
-6.83778
12.9073
-38.9466
0.704374
0.608278
0.690669
-72.6354
-65.0042
-17.4345
-30.3056
1.30247
-1.40665
-35.5432
-32.4366
-3.79641
10.1332
0.793445
1.71443
-32.23
5.30852
-0.158162
0.884529
11.9865
2.14545
35.6124
-101.517
-12.0897
-26.889
0.978735
56.8931
-72.7083
1.41884
12.0852
3.52437
-34.5004
12.1524
-3.61881
18.1591
-23.4946
2.75764
-24.0466
3.42022
-7.52898
1.52816
8.39472
-22.0277
-21.5536
11.1536
18.8709
-8.39104
-47.7359
10.3727
1.48402
-22.2683
-33.4888
12.8791
9.45975
-55.0782
-67.4833
-37.9346
11.3345
-3.95912
-14.2872
-38.7963
10.9733
25.4206
-20.3928
-6.44381
-4.47213
-19.4119
-36.909
-2.79011
11.3487
13.4037
14.7532
13.5739
11.1654
-7.35564
14.0917
14.1907
14.8242
1.80623
-48.5472
-32.8568
12.4345
40.8197
-15.45
12.6316
-26.8498
6.89207
11.3314
-6.7462
-2.68543
11.67
10.1021
-42.8157
14.589
-28.3366
-74.5981
-36.6079
11.0968
-7.5317
13.022
1.5288
1.58229
-13.4101
-36.1973
1.00093
-43.3445
-26.5418
62.1831
-19.3049
-60.6432
-25.2133
0.0757384
1.55875
-40.7194
1.08103
16.9507
0.0870019
-47.8207
-36.6115
-0.0216977
2.301
-31.3753
-17.4104
-42.0796
48.6865
0.515864
-9.83013
-66.7855
0.331311
23.4997
-25.1648
16.5067
-80.9474
-21.1923
12.0405
0.277038
0.430478
1.51377
0.427214
2.38
0.946356
0.510459
8.61982
37.6878
14.7246
26.3434
-24.3563
-5.76716
25.2331
-1.54911
2.76413
-8.36699
14.4846
-64.2399
0.947538
1.31714
0.9281
-33.5864
0.996384
-78.3555
1.09131
11.0415
6.45498
-78.2291
53.2934
-34.5167
-18.6779
37.9449
-0.840484
13.6786
-7.05297
-22.9489
-36.1995
-24.1681
48.1295
13.5526
-13.3285
-42.7583
-6.23726
-2.70788
-35.0531
-26.7596
1.92623
-11.1859
13.4042
13.6983
-44.9695
-52.1145
-0.179761
10.0742
13.5368
-73.727
13.6773
-19.8855
-11.7426
13.5786
13.9569
-17.8099
2.27179
52.813
-15.2921
5.72464
32.5032
29.729
11.0645
-81.2069
-34.6331
-11.7114
-106.229
64.6333
14.0289
-34.8169
14.0132
25.3675
-89.4968
3.93039
-78.8226
-42.0632
-1.61072
22.786
-4.48539
13.8854
13.8705
17.875
-19.6363
1.33459
0.108076
28.2753
0.325198
-1.31976
16.7525
-9.84056
0.421646
-13.1456
16.837
-54.2164
-29.9123
5.08247
-29.2221
-45.5767
0.0844117
49.8936
-41.3142
-2.3538
31.1975
-7.80494
-10.7114
-19.9553
-25.5067
8.5275
-38.5837
-16.6763
6.96622
0.889752
0.490233
-20.1837
-4.99545
27.0726
-25.9032
1.35816
24.5901
0.711572
-49.8519
0.217572
0.309716
-6.65991
-19.5203
23.8047
-0.867436
-9.52934
-7.23167
-80.8031
0.142294
-9.75685
-54.8528
0.986961
-6.30142
60.2716
-4.3219
-16.6458
-61.7903
0.118569
8.9435
0.0167809
-118.885
-40.1745
-36.7579
-39.5605
22.6206
-2.6369
-5.3747
-43.0793
-61.8873
-9.17543
0.60622
13.7312
1.03849
0.555954
3.48304
55.57
14.3878
13.4028
-5.45333
0.537398
15.882
14.4254
23.8664
13.9785
0.538145
22.2641
14.6186
11.6095
-10.8396
1.4944
12.8823
11.0171
-7.68766
13.257
0.523414
1.07893
11.8854
14.488
13.9962
-74.161
13.2178
19.9376
1.0757
0.223264
-25.5973
15.0615
14.3655
-68.3932
-55.7186
59.957
16.2008
-72.3962
20.4549
1.62485
-63.961
6.31283
-68.2584
1.06344
1.17055
13.8807
22.1995
11.7879
1.40973
1.20443
1.67825
8.6564
9.97828
1.189
-13.9528
0.873219
-9.8189
60.5611
13.2081
-43.5565
-13.2525
-64.6201
1.09176
12.2566
0.1414
14.76
1.3957
13.3173
1.14482
-36.6621
-20.9704
-36.7544
-1.6768
-6.32666
1.27343
3.54615
-27.6727
1.5526
-46.6047
0.10307
-41.4534
1.70297
-53.0902
-80.7762
1.29503
0.0455183
-50.5787
0.315424
-56.2597
12.8869
2.36724
0.994677
1.33126
1.06623
0.411379
-8.89595
-23.0241
-4.94301
12.9776
1.21766
12.9095
0.850075
12.8452
-46.3448
10.8043
-32.3121
2.59594
1.11717
10.7801
0.550786
10.6216
10.37
0.225865
1.12912
13.8673
1.11603
-1.79023
1.34899
1.26683
-19.3577
-43.3685
-5.29447
1.18681
-45.2856
0.92751
0.588443
0.465128
0.444736
-0.0200669
1.42104
13.1814
12.9038
0.899551
0.674778
43.5752
1.33492
1.03521
1.43739
-40.4135
1.60727
-48.7946
-33.8894
-43.0731
11.5144
0.310029
1.63275
0.125313
0.996937
-39.1886
-7.92618
0.928721
0.913906
1.63318
1.72987
-34.3927
1.71401
-0.00521203
-12.9544
0.619612
0.490027
0.294849
0.49325
0.30853
0.292129
0.486747
-8.10163
-12.3533
-0.032368
13.0544
-0.158622
-6.55989
-5.41221
0.615926
1.07766
-8.05753
1.46669
0.174797
1.36226
1.02735
-7.3709
0.00515459
1.15056
0.563395
0.679882
1.58832
-4.02603
0.0629608
-51.5904
0.675865
-14.404
1.51814
-0.0158022
-53.697
0.02592
1.20242
0.0814851
0.790172
0.806306
1.08104
53.1828
1.44669
-19.2174
1.01164
0.236529
1.60264
0.868947
0.536124
1.29588
0.498006
0.766015
0.315443
-5.07344
-9.77306
-33.9382
11.5285
-9.58038
1.22534
1.32135
1.235
-22.1261
0.0730555
0.129267
0.145111
-50.3772
0.12991
1.6025
-0.066973
0.173942
1.72969
-133.219
0.0823501
1.26125
13.1642
0.014127
-6.71252
26.3668
28.4325
0.0443191
8.14479
0.177013
1.17668
0.499716
0.343543
-48.9279
-55.5526
0.123184
0.989135
-42.3566
-0.0246008
0.966772
-19.7036
0.0453452
0.958977
5.64316
-0.187714
-4.17307
0.00795485
1.56036
20.3279
0.562381
-0.0426596
13.2417
-20.2974
13.2944
-23.3766
-24.1223
-32.5734
-20.797
0.509233
13.2158
-13.7407
13.3629
1.2335
17.0977
-30.792
-22.532
13.6611
-10.1131
13.6494
0.681068
1.3668
-34.0747
0.853304
0.458829
13.4028
13.4231
42.402
45.818
64.0853
-22.119
29.1776
13.6884
15.5964
23.9222
13.5137
0.753851
0.168501
0.426905
-0.118761
-34.0683
-33.1313
0.737443
1.74748
-0.0576231
-70.2226
-1.96898
1.16094
1.48324
-26.1647
-50.0021
0.791852
-42.8036
-0.0827588
-28.2371
-32.5693
-14.9183
0.296743
0.775213
14.1826
-50.8968
0.209437
14.2794
0.605999
0.11288
-61.7409
-59.8452
-66.0398
0.21371
-44.4411
17.6366
10.0251
3.95242
-12.4752
-71.352
-69.7022
-30.3558
62.7426
-31.3035
35.8263
13.16
-35.9656
13.8245
-53.421
13.2376
-49.3891
13.1352
-22.121
2.32586
-25.1796
13.6826
13.5877
2.31492
13.431
13.2879
33.8817
3.76473
13.5918
13.3039
-60.5006
-49.9454
-11.0634
-21.6134
-52.8038
-21.0886
1.16021
15.9681
-43.2654
-26.3454
-31.0163
14.6935
-69.8844
7.25729
-55.0151
-77.0128
-42.2658
-9.43747
16.366
6.46663
10.3163
13.5588
1.61079
-26.5047
0.598535
0.925586
1.55018
0.191742
0.120843
1.18646
0.478708
-21.0185
0.28575
0.15514
0.379351
1.57083
-16.6497
1.05009
0.0336883
0.304217
1.60366
-5.73995
-12.1135
0.735858
14.7902
-26.1033
-77.0007
-3.06333
-59.5989
-8.69698
-6.46423
-17.77
37.9694
8.32542
9.28382
-5.16095
0.0130525
0.120698
0.210167
-0.00772929
-0.129243
-0.748145
0.112144
1.67289
1.75658
11.7961
-6.08944
1.43595
46.3564
-0.0476939
13.6359
0.0161832
0.0117003
44.9072
-52.925
25.791
0.086962
1.29552
-21.7555
-33.9259
-0.0723503
1.45284
15.8012
-8.85106
0.734785
0.0710986
-14.2102
13.4364
-0.218744
15.4524
56.5542
1.4185
0.955618
-9.92915
-0.234464
0.983981
0.87126
1.04047
13.1476
13.2873
10.2105
13.393
13.8136
5.70175
4.33279
-3.00005
-54.1777
6.48647
-6.14785
13.2834
13.1701
64.105
4.51631
1.80319
1.51241
-30.0246
-30.4873
5.00227
17.2663
1.4139
31.5256
-4.38005
15.7895
-28.5646
49.3688
31.412
-6.36961
2.9594
6.35418
-27.6822
-68.7421
-73.1602
2.273
-8.4951
-70.9397
2.21036
-10.2167
-4.77563
-31.2735
-35.6655
2.17484
16.2023
-74.5094
11.7208
-5.11676
2.33031
11.7546
-2.51547
14.2637
-4.96913
14.8999
10.9433
-40.4926
8.4788
60.0935
-15.8253
56.7031
33.3305
-63.2582
14.3592
14.3854
-49.0456
-9.84233
0.784889
-33.1904
-20.8589
-6.18247
1.971
1.80657
-32.5172
-1.27834
7.76479
59.4532
-5.89481
12.0039
-4.40366
-14.2653
8.5088
8.86767
-27.4433
-32.8294
-26.7285
-33.0847
0.573568
-13.349
1.35543
-13.9848
-9.4612
1.71436
1.28348
-12.2629
-2.36332
-32.3849
-32.6168
-0.0320332
8.37561
1.14028
-9.35552
-18.5569
10.0824
9.62242
-12.8915
-31.8573
10.2457
-5.61368
-32.7492
2.5696
-31.7631
-0.0666139
-2.84282
-50.4542
2.59766
54.2993
-6.07645
1.78936
1.69666
0.924531
-75.5404
0.891975
0.938008
-4.11359
0.23495
11.6133
0.700318
-23.1757
12.4743
36.3756
13.1989
12.5714
12.409
1.0402
-8.32336
-2.72878
-6.85599
-74.6365
-0.419657
-38.3694
-7.6815
-0.0256133
-60.9654
0.0224114
0.806627
1.49564
-5.63854
-49.3674
-20.0015
12.5456
41.0701
-3.74672
1.95757
-30.9706
-38.2627
-5.18302
-50.1678
35.3522
12.9967
-6.63894
40.9413
13.2864
-59.4586
19.2042
10.5281
50.2557
35.5703
13.4583
13.3095
62.6444
-45.9955
1.23688
55.5467
7.64007
13.4046
-7.27487
13.3737
-24.6196
11.7538
61.1986
13.4273
13.5757
41.0617
11.606
18.277
-9.1116
-1.76545
16.1619
-51.2925
25.3245
-17.424
-49.2381
-62.2537
-20.3732
13.6678
38.1429
15.4114
5.91235
11.301
12.9553
13.8581
1.38018
1.38958
42.6772
-35.7717
13.1556
-22.3577
2.9134
10.2054
-13.7849
-60.4581
1.37497
-13.1265
13.7046
5.49905
1.25484
11.9701
-6.12771
1.50103
1.3146
-32.595
3.71971
0.930794
-5.96266
11.5762
0.768612
22.5354
0.819831
-12.8466
28.7979
4.85847
18.0503
37.9921
-32.0548
58.6897
43.034
-26.6348
-52.2282
-33.195
-21.4387
-31.6499
-31.8029
-22.7272
-18.2453
-27.2294
-33.213
61.2636
0.0436847
-55.9424
10.0308
-0.250088
-30.329
-60.8761
-5.50346
-31.6033
-13.4993
-30.4332
-12.1157
42.8907
-35.9183
-27.5925
-32.728
26.0583
-31.9341
1.20136
-65.0413
24.8494
7.89128
1.20471
-0.0756545
47.1662
8.80906
-28.7387
-12.4191
14.1068
1.28635
-4.56311
-22.1654
-28.2163
-1.00203
-2.52419
18.7992
-24.4704
-4.88623
1.40992
-18.6659
46.5005
-0.809079
6.47834
1.26282
4.31693
-36.2625
11.2621
8.78332
-5.74444
1.46667
6.56174
0.250908
-0.372045
64.4415
4.15479
-21.8409
-4.27151
3.11309
-74.8194
-75.0327
10.0053
10.3031
9.43522
12.4797
-20.0147
-7.04621
59.4026
-8.06006
12.2448
-19.1584
-1.17233
-4.44672
9.93286
-9.16726
9.91416
-16.6748
-34.2068
-39.9131
34.1465
-17.2264
18.3187
10.1843
-49.7182
-59.7584
33.1207
-64.5596
10.5594
-53.826
35.6247
-6.84388
22.3616
-11.4859
1.89999
0.277702
-4.31139
-10.6689
-33.9858
1.75901
11.6154
-86.177
14.1909
-23.1501
14.0645
-0.157983
11.45
3.01174
0.762391
0.236399
-2.39147
8.11905
2.65717
16.4539
0.77948
-57.7742
35.7598
12.59
41.9595
13.4546
2.51228
12.3455
14.2396
31.8442
0.985004
31.7544
1.46169
0.86459
-16.7872
0.925503
0.350029
-15.917
-9.52122
-30.4037
-1.742
35.5226
6.26743
29.6058
0.875624
18.5705
16.4046
1.08922
0.691662
0.393957
1.55438
60.1326
0.313956
-5.94271
-31.3009
13.5614
13.9052
17.2692
13.7578
-18.4319
-25.8575
1.34394
-1.93232
-1.86032
-10.9387
35.7444
0.292869
-50.2406
-3.26034
-27.825
1.26337
10.0493
-20.5198
13.6102
13.7337
-14.9498
13.9211
1.35396
7.91363
-46.7022
18.7078
56.5823
1.22939
1.01904
36.3385
9.18829
2.15185
34.6551
8.88559
-10.6369
38.8449
-14.4489
40.7638
-61.1567
4.08048
14.2508
0.723763
-6.22926
1.82276
0.986455
0.256642
0.265382
14.266
-29.7171
5.39433
1.36601
-24.2787
1.42096
7.49071
13.7295
13.877
25.3686
5.57329
3.63302
-5.62235
1.18758
-9.32149
13.531
1.54826
-16.7415
61.767
-16.304
1.59077
60.3749
13.7536
-72.3437
55.2934
1.79751
4.78654
35.4356
13.9228
-31.2643
39.8012
-31.3164
-2.09899
-30.8935
-14.7027
-36.9106
36.2263
-1.65548
62.0775
0.781925
-31.9677
-30.5258
-78.6136
-72.9172
-33.2945
-68.5222
-27.4109
-34.411
59.0739
10.5412
11.7137
50.3231
24.8705
-38.0105
8.84477
-40.3417
47.8137
0.988019
12.0027
0.0232606
1.17179
0.517268
0.799603
60.3836
0.861029
0.75575
15.578
0.944065
0.924227
12.0793
-4.76931
0.98003
-5.41573
1.03056
8.23984
29.0761
-39.5566
1.40625
2.74167
-3.69095
1.08811
-42.3506
-41.2493
-17.8781
1.89415
41.2656
14.9437
-0.899468
-4.17633
7.06132
5.25189
1.00917
13.0119
12.7057
-34.4483
1.08772
18.685
-1.54865
4.01247
12.7263
0.282168
9.21502
13.1689
12.8065
-10.9927
12.4668
11.283
52.5319
27.9111
12.9289
25.1136
12.1921
0.140164
12.6859
1.1934
-1.59576
1.40494
6.40101
0.0193555
23.5588
12.2173
-14.2824
26.2527
0.197389
10.891
30.3571
-10.8956
34.9112
-21.4642
-43.3905
-49.1589
1.41841
-0.118654
-18.3334
35.6064
-5.78511
-0.677976
9.88969
2.17459
0.172283
-0.101387
10.5453
14.1935
30.7827
9.14877
2.57421
12.8654
12.3605
0.0729431
-30.5834
36.9336
-0.024353
9.16606
-8.36481
41.9714
13.8984
11.7572
-7.99242
-42.8137
-72.9563
13.2184
13.139
-4.68317
-9.01998
-6.23853
-26.1748
33.9886
1.37568
1.63982
-0.110203
0.127058
19.106
-14.789
0.273513
0.381393
32.7153
0.499929
-3.82683
25.7794
-30.2706
-21.7498
0.660249
-8.13718
15.0701
0.00319563
0.747301
13.7783
10.6544
-5.27657
22.6024
5.61061
-49.0228
0.77727
0.76631
-36.8134
-6.34871
14.8993
0.621253
8.85334
13.2721
63.015
0.708159
-7.39505
-40.1396
-32.1703
-74.9642
-51.7948
0.722571
17.977
49.013
-0.0457946
11.7566
12.2887
-38.7139
14.4279
7.26593
-31.6417
13.713
21.9717
-13.6017
10.1195
-36.1452
-64.6297
16.1893
20.4134
-48.6533
16.3924
12.17
3.85867
15.244
13.7685
2.69785
-28.631
-4.14425
12.2297
15.457
14.2647
14.0935
6.83368
0.0383876
39.0329
-0.00898578
-4.62425
1.48434
38.1622
13.8048
-9.98812
5.83647
59.3385
-19.1407
-23.9957
-44.762
4.28667
-3.33766
-42.4885
-15.1106
15.8507
-12.3156
-2.53126
0.0307482
-6.0742
13.185
9.34952
6.70009
0.142967
0.288477
-15.9523
-2.40825
-9.3584
1.05597
1.31483
0.237158
1.03353
-3.47697
14.2951
-34.7879
14.6325
0.975667
1.04577
13.0385
12.597
13.4437
1.38663
1.14595
-5.52051
5.23327
1.03372
1.22428
-29.8218
3.18727
-6.97038
-47.4376
-31.2903
-40.3318
15.7854
-56.483
18.5098
-30.4134
1.29776
-32.9444
1.00795
3.38328
1.84899
-2.69931
1.27835
3.80027
-0.514866
14.1781
4.45301
15.4957
-2.99063
-6.87983
-72.6318
-31.7365
25.1565
33.9022
-41.1396
-28.4628
-30.0451
-67.6593
-31.6364
-5.56847
-32.3313
1.75923
1.71038
-58.3364
-72.3258
-7.36265
1.15663
13.525
53.0589
-2.81286
-72.6459
2.98663
5.92124
-0.187206
0.990897
-30.4045
1.86176
1.52215
1.46602
3.14421
8.23258
1.57319
1.003
-61.4294
-63.965
-33.5796
25.2124
-35.8922
13.515
0.880313
15.4579
7.84519
5.14929
23.8131
13.0205
25.3749
1.0728
4.9631
6.49742
1.3221
3.42933
-8.60902
10.0056
14.6513
9.87642
43.2919
1.81628
23.2683
-50.6659
-2.46442
-41.738
39.4636
11.693
10.5503
7.15468
-20.0486
-7.78925
11.902
-36.6198
8.71393
6.91609
-2.44776
17.4841
10.7541
-3.37778
-11.8163
-21.1313
14.2718
-1.40827
-45.3996
1.04918
-38.8743
-35.1924
14.1521
-74.6157
-3.30546
35.0079
-2.80218
14.1213
13.5152
17.6295
-3.70771
13.4146
-32.3705
-9.82474
-31.6072
-3.75941
-8.00201
19.8469
-32.1863
-16.0405
2.05681
1.84702
18.653
-32.782
10.2371
1.89827
-41.6104
0.722337
0.599996
12.8775
-75.9428
-3.2083
1.38629
1.28262
-0.130048
12.483
11.4865
2.37181
12.5554
-12.8011
12.611
-81.0342
12.8492
-45.9002
-26.201
-6.61393
10.7259
-5.132
-1.82228
12.1931
-2.19735
1.32346
-5.54936
54.5838
0.279712
36.6454
-4.86148
0.137027
-2.36195
0.12251
13.7831
12.2656
13.523
-5.09396
0.347411
13.0141
-3.0865
0.0262469
0.587393
-18.7186
2.89794
0.213065
13.8129
-39.7119
-45.5807
0.0301376
-1.77645
0.696575
-32.0618
0.417948
0.383324
1.24172
0.360344
1.27643
1.24048
0.0472326
0.71757
12.6974
-36.001
-27.8777
13.8318
48.5984
17.2698
13.5291
-0.0427461
14.2359
41.6099
-0.0169533
37.5565
1.67459
-0.120015
4.42116
29.7813
0.930893
0.00485801
55.7535
14.3375
27.9593
-6.33658
-10.4565
0.111202
-2.29327
-0.0650172
1.06754
3.42099
0.711505
52.2949
1.0287
0.582963
0.697683
13.1956
-32.4823
-16.4427
-2.30258
2.44206
1.46259
0.566585
15.4972
-23.6581
26.714
18.7907
1.64251
0.560903
44.8647
-11.0629
43.095
32.7344
12.483
13.6396
0.335298
-4.70353
2.81033
-9.54781
-9.07284
13.7635
-72.9962
1.43359
1.46428
1.19117
11.9946
1.15299
50.7943
-2.31663
47.746
1.26775
-67.784
-8.64978
-10.7505
1.02813
-40.0299
1.47323
31.7483
13.4371
34.3432
1.39263
-13.8672
4.82989
-40.7192
29.511
13.1894
12.9968
0.660141
-19.726
12.7219
-81.7322
-19.5016
13.2667
35.9649
13.1269
-17.9352
45.3926
6.12792
-3.03258
44.7815
36.2092
2.63643
4.10144
-66.376
44.3618
10.6122
42.3147
-2.89433
-59.3431
29.8407
-0.369301
-0.0653944
0.201616
-0.0159413
1.68341
15.2026
-42.0595
1.03605
-27.147
17.6744
40.5927
-10.807
37.9848
-0.0726244
-0.0207796
-9.71605
58.4336
-13.6478
50.1661
17.0358
5.41756
26.3107
6.41189
18.8354
-0.00820876
-0.151357
-0.0492037
-0.0258329
9.82933
-11.0199
14.5877
-29.4208
1.14923
-34.5461
12.7427
-17.2146
47.5967
0.606664
0.262905
0.12807
41.4678
0.13967
23.826
-0.405229
9.79262
-5.58034
1.60562
34.0156
38.1478
-10.1704
0.170108
1.31364
-44.6375
-57.5657
-6.97716
54.039
29.9295
56.6141
59.5356
46.9615
-45.9836
0.115072
46.8616
-41.9922
-0.0155649
6.21197
0.068231
-21.698
-21.9416
-0.538139
2.68774
-5.39362
-0.0513846
12.5866
-35.6337
42.8593
-39.1946
12.5009
0.0201133
11.4003
3.07496
-3.45183
-79.2249
2.80105
-27.4715
-12.3293
12.8678
-73.8891
-72.2207
12.8778
-7.55867
-9.69138
20.8532
12.8787
-10.0824
27.2729
-64.7457
-24.9836
-35.3875
40.6497
-36.6561
6.06038
26.9443
5.75654
-46.551
-43.8531
3.64659
0.837718
52.1121
-0.102059
-31.8715
-0.354622
-12.4144
-54.4264
-12.8869
-32.0214
1.71571
-32.7087
0.288711
-32.0829
13.8115
-17.8814
52.5073
-31.863
23.0302
-25.1711
-31.9365
-15.6503
-38.3751
35.4458
33.2049
-32.8257
12.2277
23.0944
17.6879
7.13647
14.5484
-3.70891
-37.0589
-91.9806
-51.8231
18.8197
22.6706
-33.019
25.9294
-30.9703
-10.7369
7.68915
5.08231
-38.6263
13.8839
-34.0659
15.6707
33.1103
34.8537
63.1169
32.5827
-21.9648
-50.1454
47.2069
13.8713
38.7825
-40.9986
-32.5516
52.4495
31.6683
-2.44971
23.3723
21.6722
-37.8007
-34.3473
-73.1317
20.0137
11.2558
38.4388
-47.8881
47.0322
31.0742
14.1621
39.6462
-44.6967
5.0242
3.91118
14.1948
-8.51835
-50.016
-35.3055
46.9435
0.356582
-33.9419
-62.3686
45.1572
47.9974
42.2163
-48.0308
-85.67
46.8001
-21.0139
-49.9175
47.8385
0.113583
-6.97307
13.6513
1.31034
1.96658
-5.30645
45.3197
-28.4412
0.998817
2.15147
1.93891
2.42918
1.35316
8.67213
-27.8991
-2.80463
1.66356
-47.5906
-65.8329
-32.8169
-14.5064
1.11051
-13.4957
-35.0158
-31.3805
1.74878
-37.5979
1.308
-35.7763
-31.0069
44.8141
21.371
28.0315
0.0542542
8.15961
-61.1111
-20.196
-7.00195
-54.6546
0.00117828
-51.2215
-34.8165
-20.0462
-35.3973
-1.29294
17.3745
13.3106
16.3802
12.3775
44.3855
0.0516833
-0.0394729
0.115363
16.1488
-15.577
-62.0754
-47.0452
16.9228
39.5904
25.4547
31.8918
3.13815
-63.6012
-3.70034
14.9219
6.38256
0.553624
20.6133
9.94655
-9.6927
16.3575
-8.15722
-7.21348
-2.13406
18.0618
37.9193
-25.619
56.0381
-46.4462
20.775
-80.2493
-56.7951
-7.69754
14.8322
37.4033
-5.47713
-41.5553
5.49373
16.1682
-18.0877
-35.2703
18.8313
48.7114
62.8085
-62.8985
-4.87203
-51.5977
15.8729
2.41513
-8.86417
12.0274
8.57418
-15.4913
4.89446
10.7269
-34.4679
-5.98211
-33.5109
-8.1108
-41.6478
0.110647
13.4475
-79.1999
-13.1602
-0.0168094
63.1398
12.745
49.1224
10.1788
-26.2536
18.7661
4.61884
35.9989
57.4527
17.0771
36.2827
-0.131638
-45.6857
13.9582
13.7383
1.61524
9.80624
-30.0082
-0.891552
-5.42397
14.1072
5.14331
-17.3323
6.43339
11.0819
-4.34967
-8.21091
-25.887
-0.0415477
14.8071
0.00939219
15.733
0.147106
-12.8312
13.701
-17.9881
13.119
-37.0429
-0.0692837
35.1507
-8.1658
38.0913
0.110929
6.89269
-0.081166
0.00698883
-4.77462
6.72259
18.1599
36.5816
30.5059
-48.451
-47.2657
45.549
26.8325
22.6613
8.17373
0.0113125
0.190939
-64.5041
46.7158
21.3657
17.1368
0.129585
20.0883
0.148743
0.116563
-16.2652
-20.4617
-31.0265
-39.7474
10.1329
1.96289
-9.56311
13.727
43.2164
12.2014
-9.96423
12.3112
-4.96935
-68.147
-13.9423
0.253662
6.4891
-5.24934
-4.09504
-37.8051
13.6996
-38.3369
25.7684
-65.4163
-26.3508
-22.4286
0.294907
23.4097
5.51472
14.0326
36.4362
14.0745
-7.12297
11.9422
12.925
11.095
13.9719
-33.4328
18.1153
9.31073
44.8952
13.5684
-17.6285
14.1742
14.0895
-32.6166
-66.9639
-23.4591
-33.5844
-31.5759
11.8211
59.9472
-34.9356
-5.9604
14.544
21.8566
-31.869
0.686937
0.630452
11.8509
-18.7313
-35.71
-40.836
34.3879
1.79952
1.19396
6.42229
-38.5699
29.6035
11.0335
-48.8324
-40.1978
-35.5415
62.9568
15.3768
11.5456
5.44299
15.4926
-60.4925
18.5036
12.3263
20.5597
-5.42374
18.4007
24.8245
46.7095
38.0505
11.7943
-13.1033
24.0299
-6.26068
0.653977
0.54399
32.0793
-25.4408
-14.4108
0.515422
57.775
0.549112
-38.6054
31.6198
24.4613
41.3908
-33.871
-26.4204
-32.5008
34.012
-8.84804
-25.6651
-9.68492
12.3286
2.16207
15.4552
1.20573
19.0563
1.07665
12.5355
1.22846
-8.42743
0.332898
37.2787
5.21876
5.61625
-21.5733
8.50392
1.38437
9.53144
-3.22603
-37.5663
-44.1862
-16.9917
5.99617
38.4854
1.1877
60.6977
-48.524
60.5739
55.1144
1.08152
4.25179
5.58361
1.03897
1.10723
-80.3409
13.5275
-35.6116
-18.6208
5.85361
1.48415
-30.623
6.55276
6.41875
11.4608
8.07104
1.14058
-46.1401
-1.98795
1.47511
-4.14141
1.65442
1.14623
1.63177
1.41567
-2.05143
6.58095
-49.0559
1.15493
1.66238
-9.23312
-4.24775
23.9065
-16.7928
13.3373
13.2255
-0.0825539
0.285726
-7.15172
-13.0455
8.20793
0.117087
0.581429
9.43435
0.0845117
58.5167
0.0956346
3.00934
0.0611932
-0.0134325
-23.6448
-0.0214435
-33.8101
-1.40619
53.0839
4.67696
-0.101916
-7.09586
-3.00499
-0.236624
-37.0348
1.89127
0.0724515
7.50844
-33.3389
0.0489973
6.85267
28.6086
43.0199
-6.98819
9.64836
10.3297
-40.0334
-20.2068
0.054767
49.6243
-53.1061
-17.9364
-6.57838
51.5976
-8.01897
-6.99608
32.8807
-59.1226
1.03871
0.0855463
0.0847697
0.135709
-0.00808179
0.00511867
-39.0818
18.4472
-0.0526311
-49.1558
2.93
0.250865
-6.48397
3.08134
17.4421
-42.7743
6.90145
16.9069
-21.8657
1.69634
15.8309
61.1799
16.0827
-53.4725
42.5599
18.7882
32.9151
0.23394
46.8906
0.580524
8.85877
24.8633
0.0424261
-40.1952
-31.1831
0.742939
0.690751
-128.288
21.7235
-34.3314
1.32004
-3.3954
1.16919
14.3196
24.7739
51.2121
14.3251
55.954
14.3061
-75.6912
-33.6774
-35.0719
-31.9949
-8.85472