/*--------------------------------*- C++ -*----------------------------------*\
| =========                 |                                                 |
| \\      /  F ield         | OpenFOAM: The Open Source CFD Toolbox           |
|  \\    /   O peration     | Version:  2506                                  |
|   \\  /    A nd           | Website:  www.openfoam.com                      |
|    \\/     M anipulation  |                                                 |
\*---------------------------------------------------------------------------*/
FoamFile
{
    version     2.0;
    format      ascii;
    arch        "LSB;label=32;scalar=64";
    class       volScalarField;
    location    "0.0657856";
    object      k;
}
// * * * * * * * * * * * * * * * * * * * * * * * * * * * * * * * * * * * * * //

dimensions      [0 2 -2 0 0 0 0];

internalField   nonuniform List<scalar> 
47425
(
0.298048
0.331949
0.310784
0.316773
0.466764
0.316563
0.423047
0.322649
0.366887
1.33276
0.331062
0.32462
0.361446
0.311546
0.305413
0.32948
0.308025
0.339377
1.09971
0.531418
0.318153
0.305962
0.319888
0.312536
0.306494
0.299342
0.298383
0.837775
0.296383
0.301103
0.313266
0.319459
0.356126
0.299935
0.297099
0.315579
0.305763
0.36334
0.306469
0.314984
0.358806
0.491827
0.960541
0.378401
1.62289
0.345242
0.328841
0.350664
0.303451
0.299278
0.787601
0.615526
0.298146
0.818645
0.366463
0.363126
0.299892
0.299704
0.4169
0.308678
0.846883
0.852559
0.909602
0.323744
0.364462
0.304609
0.341247
0.361432
0.788783
0.314884
0.304935
0.293733
0.298942
0.310755
0.916678
0.368709
0.938727
0.308973
0.828124
0.524025
0.922923
0.311919
0.309922
0.348619
0.316652
0.315566
0.295759
0.295283
0.524225
0.601498
0.309823
0.337339
0.302187
0.367673
0.379426
0.364116
0.301696
0.298693
0.308698
0.353291
0.334796
0.429793
0.309533
0.452584
0.302539
0.368363
0.303483
0.317787
0.399592
0.314294
1.25764
0.322156
0.424821
0.350062
0.327284
0.822689
0.322638
0.635314
0.334506
0.32999
0.318623
0.362698
0.343172
0.344419
0.347161
0.390273
0.320652
0.364887
0.351708
0.302905
0.311232
0.325195
0.499205
0.345622
0.473792
0.34499
0.311978
0.396084
0.308199
0.307707
0.354024
0.363012
0.330411
0.456159
0.327251
0.366223
0.435218
0.340041
0.359257
0.361589
0.459641
0.797263
0.360298
0.803624
0.331154
0.321847
0.34201
0.932688
0.348797
0.325484
0.33254
0.299848
0.296946
0.310844
0.751173
0.851693
0.338237
0.926229
0.335034
0.88728
1.03
0.347353
0.353846
0.319245
0.344981
0.376719
0.851116
0.295414
0.298417
0.302464
0.852841
0.294484
0.295434
0.301207
0.30069
0.336975
0.307589
0.418178
0.350441
0.295874
0.357976
0.300392
0.422027
0.365297
0.302567
0.313594
0.360532
0.321333
0.326827
0.290901
0.33116
0.364162
0.354535
0.315604
0.33315
0.376153
0.295261
0.311184
0.348017
0.361898
0.300108
0.302985
0.352136
0.311734
0.304504
0.30435
0.303455
0.584479
0.336827
0.354001
0.533974
0.287312
0.582317
0.301415
0.397873
0.514434
0.302103
0.319784
0.351851
0.38419
0.304505
0.31401
0.33992
0.36937
0.366617
0.31969
0.565047
0.332469
0.527754
0.365636
0.335432
0.294038
0.299703
0.30797
0.304321
0.362567
0.306771
0.357559
0.299047
0.306795
0.302324
0.502465
0.308501
0.365695
0.313382
0.300731
0.307258
0.361337
0.306089
0.357614
0.378155
0.352182
0.312423
0.360433
0.371264
0.347916
0.302098
0.368754
0.300026
0.324568
0.316606
0.514694
0.564332
0.301054
0.504338
0.372416
0.506088
0.453725
0.549442
0.544366
0.897954
0.295609
0.887846
0.362496
0.312908
0.304434
0.35122
0.320556
0.361056
0.341428
0.776247
0.319685
0.371308
0.300509
0.306963
0.323765
0.322072
0.302977
0.316752
0.361568
0.330686
0.297385
0.325291
0.301859
0.878419
0.851959
0.801334
0.30112
0.297971
0.305341
0.321148
0.799313
0.319432
0.328451
0.576629
0.339509
0.342499
0.369387
0.316127
0.650732
0.550325
0.310442
0.308469
0.29541
0.334851
0.2996
0.312334
0.298746
0.298163
0.3021
0.301428
0.925739
0.326556
0.305159
0.383806
0.301409
0.875404
0.317378
0.296927
0.303756
0.31157
0.311882
0.297969
0.308012
0.293982
0.302128
0.301876
0.308113
0.307081
0.335398
0.313085
0.303406
0.319046
0.30965
0.313623
0.338293
0.321919
0.309168
0.31102
0.360271
0.349409
0.336733
0.321775
0.31856
0.301471
0.32076
0.365385
0.358446
0.324282
0.310716
0.358983
1.14149
0.302315
0.314164
0.385664
0.312359
0.42368
0.358046
0.364437
0.305751
0.357609
0.311663
0.300055
0.355247
0.344325
0.364514
0.319978
0.306958
0.349729
0.317228
0.314099
0.316748
0.324453
0.302977
0.30552
0.312136
0.31984
0.316905
0.395218
0.298207
0.644338
0.299188
0.915865
0.327237
0.363321
0.351477
0.30088
0.348132
0.298331
0.331867
0.313683
0.5917
0.858269
0.29875
0.333254
0.308741
0.308164
0.316689
0.310964
0.305802
0.356579
0.321247
0.299992
0.310268
0.316794
0.298906
0.443449
0.30567
0.312581
0.494335
0.510194
0.307868
0.623118
0.531722
0.353158
0.516052
0.74708
0.301049
0.306503
0.307753
0.3059
0.743279
0.328389
0.297138
0.301904
0.311307
0.312089
0.320449
0.302826
0.697549
0.726006
0.506108
0.356382
0.396733
0.48367
0.302692
0.310854
0.349727
0.310101
0.355179
0.363124
0.377802
0.309497
0.369613
0.310597
0.304971
0.332699
0.314255
0.312502
0.309655
0.348588
0.357669
0.368699
0.332322
0.310793
0.344406
0.310575
0.762039
0.361212
0.394649
0.344965
0.345675
0.801666
0.329916
0.300215
0.332734
0.35017
0.32757
0.329453
0.343354
0.297729
0.323729
0.2982
0.322583
0.445563
0.297097
0.346294
0.318911
0.35836
0.298597
0.300255
0.300953
0.308041
0.310791
0.327987
0.307474
0.299521
0.302483
0.321971
0.321515
0.334463
0.32711
0.300442
0.310209
0.290605
0.297293
0.307584
0.331132
0.314303
0.332533
0.363305
0.375393
0.763181
0.313784
0.306668
0.330888
0.365735
0.452644
0.455307
0.334307
0.303299
0.340264
0.432059
0.319474
0.462661
0.362382
1.00404
0.343577
0.344665
0.301712
0.454748
0.302994
0.306652
0.31447
0.325827
0.299366
0.294031
1.03744
0.303034
0.35516
0.302722
0.435549
0.294935
0.301573
0.416357
0.405046
0.314626
0.299453
0.282939
0.297797
0.312896
0.297499
0.298811
0.298775
0.376183
0.449289
0.317025
0.307762
0.315564
0.302031
0.52317
0.310284
0.314927
0.212459
0.311833
0.301387
0.296649
0.753991
0.311429
0.208817
0.229146
0.298467
0.346995
0.296092
0.305346
0.362579
0.337951
0.896906
0.309336
0.340185
0.298568
0.455792
0.371439
0.369499
0.317611
0.763028
2.3399
0.306043
0.323096
0.338887
0.315604
0.361399
0.372974
0.320385
0.32615
0.378947
0.292497
0.359238
0.469885
0.339271
0.306553
0.475894
0.338097
0.3084
0.32228
0.337093
0.299933
0.36192
0.366292
0.356442
0.343429
0.306361
0.304025
0.990019
0.316153
0.393192
0.846283
0.807458
0.302783
0.353851
0.734256
0.346565
0.418697
0.782466
0.376793
0.790237
0.300858
0.298888
0.354845
0.51363
0.381507
0.375569
0.296351
0.368669
0.304206
0.316776
0.297273
0.340478
0.316722
0.781601
0.703377
0.337518
0.33638
0.342931
0.315764
0.374787
0.351691
0.352414
0.360588
0.342703
0.319303
0.338008
0.354491
0.302063
0.385439
0.358782
0.883376
0.563497
0.33793
0.310522
0.359335
0.300439
0.884101
0.309842
1.06805
0.349674
0.439589
0.33918
0.3211
0.322761
0.296051
0.355236
0.308805
0.295314
0.390546
0.387799
0.368557
0.385162
0.354289
1.02218
0.339519
0.37292
0.365331
0.363677
0.300871
0.350211
0.324
0.383589
0.341451
0.318903
0.352814
0.31819
0.330069
0.310044
0.306337
0.478178
0.553371
0.303927
0.441474
0.304264
0.323448
0.306861
0.299805
0.641875
0.294001
0.31314
0.312855
0.299101
0.670297
1.03035
0.315832
0.334243
0.301172
0.339517
0.29562
0.32346
0.324284
0.539384
0.323752
0.301245
0.316496
0.303024
0.31233
0.307777
0.296854
0.313677
0.301313
0.297345
0.327523
0.544594
0.299609
0.247651
0.61179
0.559708
0.270123
0.328295
0.935963
0.358074
0.332818
0.501566
0.265444
0.819692
0.335325
0.301371
0.461862
0.334353
0.559089
0.315163
0.343048
0.301341
0.305729
0.427717
0.345423
0.318301
0.338427
0.436885
0.375192
0.348347
0.37843
0.486815
0.464588
0.649741
0.862988
0.884234
0.613476
0.64364
0.3631
0.357766
0.306399
0.300218
0.33918
0.317658
0.32654
0.334879
0.34689
0.303102
0.32665
0.355684
0.302283
0.378957
0.324443
0.301133
0.363114
0.301703
0.306805
0.307901
0.342585
0.424946
0.302977
0.301314
0.303956
0.354798
0.346516
0.519011
0.435398
0.299366
0.340223
0.295283
0.303199
0.305141
0.342808
0.353208
0.459471
0.311322
0.304495
0.307224
0.396891
0.904194
0.317326
0.317354
0.397978
0.342214
0.342969
0.33826
0.326066
0.3768
1.86573
0.438222
0.868788
0.366857
0.394318
0.297271
0.395246
0.306621
0.330472
0.335098
0.308542
1.36837
0.43214
0.360088
0.498117
0.360881
0.294312
0.323122
0.400033
0.307325
0.34195
0.225187
0.304312
0.38746
0.367774
0.388377
0.710233
0.36976
0.361976
0.491977
0.306679
0.305971
0.436772
0.533888
0.327337
0.40745
0.446785
0.327913
0.31688
0.302686
0.325874
0.350196
0.348443
3.40571
0.669415
0.367113
0.540067
0.518542
1.28259
2.33107
0.508884
0.359012
0.360763
0.373542
0.36481
1.8642
0.305584
0.32946
0.372765
0.280007
0.328434
0.363806
0.354613
0.299528
0.380606
0.470512
0.363484
1.09033
0.298993
0.381099
0.376583
0.365703
0.357268
0.349864
0.37481
0.449525
0.347186
0.36631
0.465049
0.324689
0.308473
0.335935
0.418006
0.301754
0.410174
0.368782
0.361337
0.643319
0.999572
0.300469
0.3635
0.317847
0.36189
0.358849
0.665524
0.54511
1.47408
0.307106
0.364475
0.325107
0.955336
0.31255
1.68862
0.39898
0.379465
0.494495
0.584407
0.319256
0.304492
0.309328
0.320805
0.467088
0.319467
0.399326
1.06742
0.389414
0.300529
0.303605
0.68226
0.984523
0.508044
0.54518
0.938524
0.397841
0.35089
0.392085
0.309746
0.471915
0.367173
0.383391
1.08799
0.325319
0.301283
0.306188
0.357131
0.387044
0.369993
0.327234
0.315174
0.459416
0.305322
0.324925
0.301786
0.352842
0.361489
0.376838
0.34266
0.331203
0.312115
0.3764
0.306211
0.311235
0.322036
0.316304
0.37363
0.454871
0.337948
0.36689
0.305813
1.77266
0.377917
0.362547
0.331065
0.939361
0.658752
1.0638
0.350478
0.335639
0.331263
0.727265
0.388222
0.336722
0.373694
0.353423
0.359508
0.883285
0.361508
0.313637
0.358868
0.354063
0.297035
0.579761
1.01194
0.309346
0.994954
0.338428
0.657201
0.570985
0.305858
0.341888
0.369874
0.61429
0.335764
0.336509
0.332852
0.745452
0.499853
0.61423
0.313882
0.324527
0.301689
0.313043
1.27222
1.28162
0.341524
0.361414
0.38342
0.762699
0.308113
0.297109
1.75623
1.21067
0.355749
0.313639
0.882301
1.34992
1.0072
0.36727
0.716138
1.15948
0.805264
0.319765
0.442326
0.438033
0.326692
0.338254
1.29902
1.33689
0.356085
0.366343
0.345395
0.315667
0.3374
0.326078
0.480775
0.328751
0.366939
0.304176
0.367291
1.04582
0.985065
0.316478
0.568938
0.434168
0.316025
0.512098
0.296672
0.33501
0.308538
0.33536
0.384636
0.301953
0.760792
0.30689
0.85936
0.627826
0.86177
0.401195
0.417488
0.334596
0.351979
0.3219
0.546872
1.10086
0.351425
0.963947
0.510694
0.783765
0.469339
0.88895
0.691242
0.323976
0.322016
0.946614
0.337363
0.312036
0.31107
0.742146
0.70809
0.311329
0.330873
0.630492
0.404913
0.947119
0.794572
0.350912
0.455226
1.03409
0.345062
0.322942
0.834535
0.312167
0.791568
0.816936
0.309781
0.303534
0.320241
0.301795
0.368706
0.310224
0.311742
0.360438
0.370444
0.470562
0.337418
0.319842
0.501562
1.19919
0.807394
0.350219
0.337184
0.54905
0.31479
0.987439
0.335433
0.342325
0.358121
1.67187
0.341451
1.94993
0.384084
0.50329
0.3378
0.758921
0.625873
0.668466
0.424296
0.542796
0.370601
0.363526
0.388226
0.584826
0.407628
0.456338
0.798142
0.388158
0.453123
0.915248
0.346289
0.308124
0.726661
1.7715
0.341394
0.332422
0.359335
0.379488
1.22397
0.962817
0.30037
0.318683
0.359142
0.782306
0.355936
0.585315
0.372065
0.346864
0.352559
0.471176
0.354717
0.608349
0.612168
0.342348
0.375734
0.43389
0.322357
0.90895
2.10117
0.334454
0.857317
0.847274
0.376772
0.817023
0.360612
0.362451
1.04987
0.36416
0.976453
2.47562
0.322517
0.368503
0.428384
0.365345
0.353193
0.390256
0.497478
0.400149
0.323338
0.389685
0.32628
0.797816
0.393643
0.351184
0.369386
0.549275
0.308591
0.833919
0.731456
0.357696
0.828616
1.25681
0.303678
0.464866
0.526868
0.355077
0.339757
0.513265
0.739565
0.495358
0.845043
0.309771
0.765139
0.450517
0.298106
0.379089
0.363697
0.48935
0.334634
0.384817
0.596915
0.297962
0.573699
0.354219
1.40202
0.376161
0.296807
0.364875
0.52392
0.357987
0.676092
0.436722
0.321409
0.723768
0.306122
0.331689
1.18038
0.298819
0.372096
0.712358
0.336915
0.746746
1.30869
0.363336
0.398487
0.304707
0.89761
0.597844
0.891429
0.796819
0.409367
0.337874
0.421094
0.947062
0.954209
0.881615
0.351396
0.357549
0.350059
0.316683
0.376182
0.72141
0.348213
0.3312
0.339006
0.301343
0.322078
0.354057
0.316811
0.348981
0.360475
0.424878
0.30683
0.35894
0.564396
0.320929
0.304446
0.370857
0.348363
0.359407
0.301132
0.334782
0.332202
0.316873
0.375969
0.63908
0.338805
0.319716
0.3058
0.302379
0.522346
0.312112
0.311453
0.639289
1.12865
0.714216
0.316332
0.619745
0.466231
0.343517
0.579701
0.420097
0.558315
0.356774
0.314812
0.34655
0.386995
0.308054
0.363151
0.375338
0.357107
0.311867
0.311016
0.356906
0.505823
0.347429
0.41031
0.84055
0.346592
0.667916
0.39582
0.875376
0.297368
0.358438
0.347615
0.300404
0.317595
0.365999
0.301151
1.57979
0.567929
0.815673
0.368257
0.960854
0.303532
0.328363
0.518114
0.309328
0.798792
0.416621
0.623271
0.315872
0.975926
0.952488
0.311417
0.299594
1.08875
0.319094
0.990376
0.319586
0.358798
0.310363
0.305573
0.309285
0.326078
0.333228
0.627101
0.39366
0.386125
0.334034
0.327533
0.300615
0.356538
1.50168
0.359708
1.79903
0.559986
0.30843
0.370289
0.328613
0.325103
0.322651
0.354305
0.343125
0.362906
0.329481
0.295733
0.343318
0.35618
1.24281
1.49738
0.343577
0.350502
1.59133
0.337368
0.302278
0.302831
0.300727
0.341493
0.37065
0.400063
0.378027
0.330063
0.305492
0.393213
0.297597
0.292505
0.31729
0.726679
0.388555
0.830769
0.757312
0.822605
0.318297
0.306375
0.297742
0.299501
0.302112
0.637867
0.324323
0.297996
0.321519
0.353454
0.306299
0.462179
0.302718
0.370909
0.446846
0.330632
0.302611
0.308795
0.330061
0.330555
0.30765
0.337167
0.320228
0.497643
0.319889
0.350205
0.391553
0.31884
0.322456
0.305274
0.329042
0.310397
0.361752
0.387184
0.301453
0.29543
0.313145
0.317001
0.306832
0.352514
0.300693
0.306719
0.302434
0.319164
0.83632
0.316035
0.418434
0.295528
0.302972
0.708244
0.317259
0.357425
0.298729
0.309081
0.345799
0.364962
0.749814
0.371828
1.61499
0.301959
0.309267
0.352167
0.301909
0.299164
0.379663
0.330228
0.297819
0.299265
0.870016
0.425405
0.663799
0.359827
0.544614
0.366847
0.302549
0.386942
1.11473
0.354162
0.310761
0.311128
0.787361
0.305903
0.315866
0.330573
0.327411
0.339091
0.781844
0.309008
0.324363
0.347502
0.325495
0.360377
0.903851
0.80406
0.308844
0.30344
0.302075
0.360062
0.338243
0.298005
0.795521
1.00438
0.303951
0.3467
0.807847
0.313125
0.771106
0.446644
0.300069
0.306392
0.306404
0.313551
0.595204
0.330918
0.327426
0.320139
0.359556
0.316961
0.361543
0.583201
0.362926
0.485877
0.496597
0.472606
0.574537
0.350882
0.38772
0.393263
0.379196
0.337156
0.320693
0.819383
0.579601
0.377901
0.357674
0.360544
0.347039
0.333526
0.305871
0.301067
0.299322
0.357066
0.349927
0.493452
0.415504
0.870985
0.70781
0.331281
0.377893
0.313382
0.315302
0.365124
0.301968
0.322796
0.301587
0.30126
0.292027
0.282802
0.301053
0.334466
0.638964
1.00234
0.343326
0.299587
0.464974
0.495248
0.833188
0.320141
0.795357
1.55442
0.785029
0.861354
0.395317
0.30128
0.297937
0.360614
0.862856
0.298223
0.372716
0.336489
0.301343
0.641173
0.585546
0.562372
0.327028
1.31327
0.299082
0.307511
0.33756
0.338528
0.700144
0.777209
0.364131
0.436364
0.333027
0.368072
0.312636
0.906025
0.353675
0.870775
0.371901
0.864093
0.353115
0.487031
0.52352
0.544713
0.380212
0.382696
0.633734
0.352545
0.353923
0.395891
0.379923
0.360718
0.341258
1.27432
0.62276
0.329093
0.590538
0.740995
0.5816
0.312615
0.30622
0.789751
0.669695
0.786479
0.308914
1.07691
0.30892
0.871315
0.656574
0.603719
0.683832
0.301302
0.358953
0.305013
0.328574
0.326014
0.512472
0.419346
0.302544
0.301532
0.356884
0.325102
0.299922
0.301291
0.460399
0.301746
0.296329
0.331866
0.363809
0.425692
0.330646
0.364484
0.364775
0.311673
0.463152
0.436608
0.310473
0.311731
0.481175
0.594192
0.321544
1.63797
0.346667
0.422757
0.788624
0.389886
0.321681
0.301367
0.495516
0.322259
0.296052
0.36995
0.318338
0.30736
0.322326
0.305964
0.310494
0.315916
0.330138
0.313837
0.359871
0.680759
0.312989
0.320352
0.315724
0.324483
0.415599
0.966856
0.325164
0.307779
0.327501
0.56759
0.326103
0.335195
0.328217
0.850415
0.346987
0.380625
0.365232
0.398284
0.337088
0.351506
0.326194
0.513461
0.370434
0.355894
1.00633
0.325115
0.390242
0.346566
0.33932
0.353573
0.390865
0.32003
0.336646
0.306448
0.347568
0.32388
0.345966
2.35566
0.309285
0.411763
0.375995
0.344077
0.66485
0.357699
0.532561
0.362435
0.568242
0.646595
0.333706
0.30579
0.393608
0.384434
0.338919
0.307467
0.78984
0.454522
0.370862
1.42426
0.54827
0.314872
0.497678
0.502156
1.29168
0.8417
0.389044
0.513103
0.433741
0.561508
0.474386
0.888142
0.271188
0.494523
0.320274
0.613038
0.36449
0.394427
0.36798
0.356383
0.337406
0.371178
0.601028
0.326436
0.362008
0.405627
0.497221
0.769391
0.413906
0.739836
0.34803
1.05078
0.373327
0.374644
0.83759
0.553319
0.705335
0.660751
0.639966
0.547543
0.35524
0.339467
0.325236
0.381875
0.362854
0.773533
0.353754
0.363307
0.313019
0.483447
0.355299
0.308778
0.860344
0.475492
0.507038
0.218995
0.403791
0.336389
0.351352
0.352077
0.381444
0.317651
0.293719
0.339026
0.395147
0.212678
0.202006
0.543507
0.351126
0.388015
0.414865
0.452959
0.372905
0.357131
0.35433
0.174763
0.362546
0.396661
0.197662
0.369283
0.828656
0.589825
0.338545
1.17792
0.386726
0.470689
1.80061
0.390552
0.373509
0.311876
0.624589
0.302454
0.304486
0.352551
0.366392
0.381076
0.335106
0.556506
0.355263
0.472002
0.314056
0.377039
0.36222
0.299237
1.33031
0.535368
1.02346
0.487584
0.30155
0.915953
0.484335
0.304212
2.58356
0.306087
0.301699
0.471031
0.464223
0.976053
0.778293
0.344879
0.68266
1.74095
0.350272
0.6141
0.98509
0.618136
1.62842
0.374909
0.331083
0.587024
0.656288
0.386712
0.955409
0.354549
0.32843
0.516511
0.354717
0.310479
0.369829
0.77065
0.724105
0.296259
0.509158
0.312493
0.379669
0.336134
0.376577
0.581047
0.42388
0.769065
0.351391
0.360678
0.741614
0.303588
0.315491
0.445279
0.307239
0.345531
1.08639
0.33191
0.897759
0.814109
0.832581
0.789763
0.376378
0.388176
0.298811
0.297488
0.413981
0.305449
0.314657
0.390746
0.314381
0.404094
0.923195
0.305518
0.518256
0.310581
0.464512
0.361128
0.853942
0.357231
0.455307
0.310345
0.325786
0.402048
0.306671
0.328357
0.318279
0.301396
0.520927
0.316863
0.365964
0.354495
0.316383
0.355685
0.33681
0.366714
0.74399
0.331391
0.313116
0.317366
0.381245
0.184481
0.633689
0.467898
0.674425
1.01758
0.337968
0.421744
0.112229
0.265253
0.899604
0.400517
0.533821
0.351531
0.728928
0.695662
1.24283
0.354505
0.328187
0.534015
1.25204
0.339575
0.396472
0.445662
0.434943
0.404763
0.395057
0.88899
1.3722
0.240435
0.369696
0.190593
0.343496
1.1874
0.323934
0.346505
0.317898
0.309243
0.437102
0.31748
0.574972
0.45661
0.320162
0.377134
0.313352
0.535993
0.619117
0.324077
0.421158
0.355495
0.834821
0.444401
0.350349
0.52283
0.511977
0.299706
0.305904
0.351117
0.307871
0.655706
0.307129
0.425922
0.588567
0.321673
0.336699
0.31601
0.3158
0.600449
0.384299
0.508466
0.307106
0.310281
0.521931
0.666807
0.310591
0.333272
0.309729
0.308688
0.614751
0.435756
0.78069
0.337554
0.308706
0.43556
0.381701
0.339196
0.312237
0.373437
0.371504
0.532937
0.405157
1.92756
0.399972
0.405023
0.309246
0.368082
0.841817
0.98595
0.383694
0.841317
0.350334
0.982837
0.411728
0.705833
0.458304
0.516944
0.389699
0.323419
0.354748
0.4058
0.548345
0.351759
0.356827
0.956517
0.374529
1.30319
0.37324
0.337431
0.366784
0.574745
0.409337
0.307975
0.883867
0.304394
0.324058
0.305575
0.355784
0.782282
0.473593
0.328716
0.502609
0.346028
0.335847
0.310183
0.328248
0.408763
0.398106
0.398585
0.34345
0.326391
0.390234
0.334332
0.299616
0.388467
0.349753
3.48385
0.362256
0.44891
0.340106
0.392042
0.34741
0.406276
0.300547
0.352561
0.335001
0.333502
0.364422
0.816965
0.29976
0.698381
0.574217
0.391251
0.379798
0.343114
0.38251
0.434908
0.666562
0.312911
0.3346
0.340253
0.48442
0.37026
0.301598
1.24237
1.41365
0.641941
0.302301
0.308428
0.494401
0.353012
0.353612
0.491924
0.364427
0.325698
0.352538
1.32767
0.307312
0.558318
0.304243
0.325966
0.412834
0.322705
0.379934
0.442549
0.309003
0.575195
0.393019
0.386747
0.433592
0.926878
0.316273
0.359951
0.356985
0.382932
0.345828
0.353321
0.298487
0.295642
0.374465
0.575547
0.371387
0.35221
1.07882
0.370912
0.597128
0.358357
0.383028
0.384711
0.340841
0.775302
0.341238
0.503938
0.357906
0.355012
0.337575
0.381651
0.555255
0.439026
0.319704
0.611513
0.37693
0.658998
0.740156
1.31424
0.31319
0.443886
0.377688
0.231207
0.378458
0.245707
0.428972
0.21608
0.382331
0.774853
0.389743
0.611894
0.670207
0.352912
0.212583
0.456326
0.937095
0.509048
0.649881
1.83385
1.69405
0.718401
0.798941
0.312904
0.347368
0.736992
0.379834
0.920202
0.363384
0.77615
0.758648
0.328968
0.360175
0.324526
0.300315
0.350287
0.300177
0.709286
0.38464
0.357568
0.542486
0.320745
0.352113
0.303207
0.327792
0.348666
0.34132
0.387006
0.300824
0.399499
0.898268
0.305357
0.313275
0.340385
0.3105
0.778222
1.0834
0.386472
0.419133
0.525931
0.304063
0.292949
0.332937
0.351242
0.321777
0.328568
0.315861
0.31007
0.451139
0.31079
0.351777
0.324755
0.303925
0.306179
0.95454
0.319336
0.335762
0.310253
0.422264
0.350111
0.33922
0.673436
0.397202
0.328852
0.377681
0.339948
0.361121
0.384233
0.366716
0.314006
0.375555
0.360358
0.320526
0.339753
0.345326
0.426212
0.443844
0.325145
0.331994
0.39113
0.41775
0.466676
0.556165
0.915202
0.906157
0.335032
0.307123
0.987148
0.517856
0.541809
0.314438
0.303489
0.325776
0.298934
0.321192
0.307435
0.311295
0.337396
0.30625
0.312731
0.308797
0.313448
0.306109
0.530348
0.362692
0.337179
0.313934
0.317407
0.605056
0.305075
0.309908
0.391175
1.04521
0.52715
0.374181
0.362234
0.315247
0.349978
0.459391
0.650595
0.389878
0.32221
0.361036
0.321518
0.321489
0.355538
0.422016
0.357057
0.316042
0.386312
0.395958
0.59874
0.382331
0.74427
0.569177
0.37952
0.38068
0.322344
0.331697
0.368635
0.297844
0.321354
0.590297
0.316281
0.340319
0.702951
0.344471
0.363841
0.491941
0.380448
0.313226
0.346843
0.311675
0.344536
0.720259
0.346577
0.417352
3.43981
0.572509
1.03402
0.825997
0.322205
0.329918
0.515529
0.306299
0.542117
0.480487
0.677972
0.369858
0.303239
0.78492
0.301909
0.531519
0.403061
0.315031
0.705557
0.869145
0.302375
0.310837
0.876252
0.301724
0.309448
0.308809
0.303745
0.342962
0.561659
0.568364
0.330882
0.792918
0.322886
0.326137
0.31496
0.854223
0.326652
0.892044
0.304758
0.34488
0.307207
0.420121
0.334913
0.492605
0.306503
0.651189
0.461517
0.463384
0.688286
0.328037
0.323151
0.900327
0.432974
0.33729
0.406239
0.692486
0.329929
0.414569
0.322315
0.579436
0.393355
0.310645
0.301454
0.444535
0.317612
0.374006
0.340133
0.302626
0.328965
0.308453
0.311057
0.330318
0.749779
0.318556
0.309563
0.308093
0.321924
0.314609
0.343477
0.301652
0.363015
0.429396
0.381586
0.376429
0.314468
0.44802
0.317348
0.371119
0.90961
0.493522
0.735554
0.320955
2.3381
0.351672
0.531767
0.372764
0.31253
0.379886
0.313135
0.307464
0.343384
0.353485
0.294653
0.318095
0.302652
0.65345
0.302092
0.318602
0.358429
0.74301
0.171895
0.326605
0.785537
0.887149
0.59105
0.550584
0.91502
0.149733
0.392859
0.251196
0.341752
0.463119
2.61396
0.49693
0.370593
0.301664
0.305736
0.742152
0.337142
0.496872
0.632098
0.371685
0.582122
0.361558
0.582722
0.310999
0.359873
0.34309
0.300317
0.383007
0.295961
0.342023
1.09017
1.02979
1.09308
0.441952
0.848815
0.320149
0.297202
0.306521
0.363854
0.304309
0.360476
0.311212
0.402236
0.375369
0.302299
0.307247
0.360284
0.302785
0.325262
0.355507
0.315071
0.353299
0.492482
0.325225
0.361567
0.807848
0.354611
0.726564
0.797488
0.345147
0.382377
0.303975
0.463909
0.343465
0.35904
0.689213
0.306235
0.369271
0.337683
0.354006
0.314087
0.315204
0.47195
0.505307
0.3755
0.344312
0.782495
0.368292
0.631591
0.577566
0.360507
0.874729
0.431197
0.362527
0.337554
0.351543
0.382124
0.341785
0.299454
0.329003
0.198022
0.576556
0.199478
0.31651
0.347805
0.417722
0.17673
0.883614
0.340995
0.366438
0.382058
0.20555
0.38676
0.748502
2.13076
0.360642
0.314285
0.365642
0.541385
0.314682
0.364614
0.372425
0.316577
0.351213
0.32397
0.626983
0.326035
1.4595
0.386608
0.933245
0.335042
1.4765
0.895861
1.00536
0.333033
0.338645
0.44018
0.364144
0.31948
0.370575
0.326658
0.814041
0.302414
0.4551
0.610917
0.30196
0.306735
0.314806
0.320594
0.349681
0.360471
0.378668
0.385576
0.371692
0.331941
0.392697
0.331429
0.435552
0.323284
0.362556
0.3064
2.55091
1.23053
0.365648
0.436455
0.298779
2.21561
0.299284
0.301703
0.353519
0.299588
0.371702
0.354012
0.298333
0.294768
0.33729
1.38972
0.593329
0.370891
0.801266
0.305517
0.361233
0.323958
0.35956
0.792822
0.380125
0.820205
0.296707
0.323984
0.775788
0.86762
0.329307
0.33366
0.615769
0.377037
0.346082
0.471259
0.373117
0.367608
0.398988
0.369526
0.2943
0.379951
0.350192
0.462918
0.304302
0.357327
0.30177
0.328718
0.806111
0.710117
0.319715
0.393198
0.327714
0.352026
0.318568
0.521156
0.31865
0.334721
0.353908
0.344845
0.424961
0.38371
0.468018
0.35696
0.297004
0.323927
0.305438
0.364131
0.300043
0.508233
0.430876
0.320757
0.607872
0.330638
0.303353
0.351821
0.30503
0.369094
0.61494
0.323648
0.415833
0.364105
0.989243
0.381007
0.360655
0.370035
0.708441
0.371105
0.515185
0.356483
0.387833
0.403085
0.3964
0.368629
0.742659
0.439308
0.363187
0.321439
0.312741
0.53378
0.327113
0.90032
1.70222
0.375887
0.406936
0.357433
0.459417
0.434021
0.371739
0.870972
0.464563
0.635601
0.306536
0.388734
1.07539
0.470342
0.340662
0.452285
0.318578
1.11223
0.37383
0.371425
0.317753
0.30317
0.30767
0.33445
0.306028
3.18111
0.306356
0.626832
0.303565
0.408794
0.372544
0.511449
0.33398
0.339007
0.326752
0.613332
0.449914
0.489736
0.309464
0.309633
0.437767
0.357214
0.344409
0.305265
0.302784
0.302734
0.324701
0.301873
0.359439
0.307917
0.54133
0.416472
1.08817
0.744201
0.574011
0.542216
0.374026
0.38196
0.300503
0.569388
0.31602
0.325555
0.314387
0.444614
0.477546
0.316037
0.406579
0.763066
0.473132
0.306363
0.306839
1.66761
0.798415
0.368805
0.839397
0.847413
0.62225
0.741897
0.552709
0.724153
0.389765
0.612375
0.748937
0.302216
0.311155
0.296012
0.457543
0.593302
0.319521
0.303119
0.385612
0.349039
0.379797
0.783605
0.466106
0.949308
0.342447
0.307026
0.325513
0.306788
0.344986
0.783503
0.90819
0.74558
0.767593
0.316939
1.13965
0.617321
0.311597
0.517752
0.456393
0.752594
0.367934
0.460528
0.749798
0.766798
0.459289
0.838056
0.487737
0.786531
0.363816
0.326785
0.377973
1.11241
0.754551
0.376641
0.323291
0.534622
0.42774
0.566343
0.342589
0.36121
1.11259
1.0561
0.208635
0.328743
0.214022
0.304944
0.207253
0.362518
0.446967
0.582174
0.193214
0.419903
0.483501
0.137595
0.446609
1.45274
0.397044
0.366163
0.750752
0.320589
0.481065
0.312482
0.29861
0.316691
0.327695
0.844545
0.68133
1.98773
0.377128
0.37408
0.614363
0.359757
0.449273
0.394392
0.34658
0.322309
0.580218
0.379922
0.424754
0.313698
0.407173
0.39044
0.733402
0.44759
0.792837
0.952144
0.754382
0.3737
0.386265
0.729244
0.2719
0.535306
0.344987
0.37105
0.311878
0.78524
0.606753
0.654967
0.744664
0.596114
0.30385
0.414358
0.862393
0.799782
0.373305
0.35617
0.444403
1.35492
0.339643
0.306225
0.361906
0.329178
0.831951
0.31953
0.5932
0.956296
1.02527
1.84754
0.525795
0.440504
0.782645
1.37495
0.856575
0.565796
0.751174
0.924434
0.510605
0.362582
0.430613
0.356457
0.29439
0.312035
0.407252
0.49713
1.85365
0.354526
0.390308
0.404707
0.376442
0.455867
0.552069
0.469073
0.370912
0.378815
1.04483
1.07378
0.18649
0.383872
0.326993
0.353433
1.5262
0.821516
0.369345
0.656082
0.322286
0.427409
0.559586
0.54625
0.327206
0.324417
0.317257
0.3785
0.903513
0.442082
0.34258
0.739721
0.306815
0.940519
0.700968
0.458638
0.685765
0.352697
0.306205
0.31662
0.310304
0.351802
0.382566
0.3184
0.333031
0.318925
0.30832
0.491162
0.644981
0.714282
0.311876
0.461247
0.350015
0.377459
0.333842
0.622208
0.342823
0.328328
0.325449
0.305407
0.315793
0.319862
0.443458
0.300658
0.344257
0.356295
0.601412
0.314007
0.377631
0.489029
0.782795
0.863726
0.371986
0.895293
0.514051
0.358995
0.332669
0.520636
0.322498
2.7014
0.404314
0.311806
0.409743
0.468118
0.39275
0.442442
0.712583
0.946238
0.432054
0.838579
0.32965
0.300398
0.378811
0.306735
0.305947
0.393744
0.308128
0.308755
0.569095
0.305563
0.259752
1.50151
0.561447
0.304084
0.305677
0.652224
0.323691
0.31691
0.563693
0.316076
0.732373
0.385706
0.765029
0.306628
0.531344
0.431225
0.657223
0.311858
0.426548
0.311377
1.02243
0.364328
0.30599
1.13055
0.414295
0.489848
0.343908
0.35754
0.373675
0.307348
0.492119
0.306754
0.311633
0.303202
0.436518
0.542894
0.314317
0.312865
0.312619
0.309147
0.321588
1.67324
0.30596
0.443484
0.305294
0.557902
0.342792
0.355473
0.349387
0.455444
0.324912
0.405978
0.296455
0.328206
0.324156
0.337644
0.306351
0.422699
0.394144
0.861091
0.948462
0.779578
0.382202
0.332458
0.330378
0.305685
0.307685
1.03481
0.624989
0.387455
0.358938
0.298298
0.323984
0.297202
0.311874
0.516549
0.497795
0.756739
0.953325
0.35884
0.353505
0.393275
0.305867
0.564355
0.349121
0.443376
0.358799
0.348136
1.06005
0.402106
0.299105
0.325083
0.389459
0.309604
0.493177
0.304624
0.676343
0.360943
0.894527
0.481372
0.762671
0.312615
0.325369
0.343612
0.374406
0.34869
0.358237
0.308519
0.30479
0.310086
0.318491
0.354888
0.582252
0.358681
0.848056
0.403335
0.318686
0.506483
0.381689
0.361452
0.272758
1.0488
0.870481
0.26408
0.318315
0.312019
0.832678
0.304464
0.4053
0.366954
0.354155
0.278893
0.360932
0.357533
0.304627
0.408483
0.467449
0.947995
0.520383
0.428461
0.297236
0.388626
0.56422
0.33715
0.307808
0.861488
0.803097
0.356093
0.745258
0.311171
0.303605
0.385657
0.31119
0.872862
0.302923
0.304053
0.308417
0.646015
0.305273
0.345651
0.443793
0.451795
0.30416
0.321333
0.327277
0.324808
0.308622
0.347867
0.355866
0.580163
0.416558
0.365979
0.564199
0.358143
0.606405
0.349771
0.883412
0.432711
0.296267
0.656898
0.210765
0.420344
0.515928
0.573838
0.386248
0.304402
0.306685
0.299676
0.357103
0.822777
0.36978
0.304055
0.34896
0.364457
0.298317
0.471372
0.330188
0.367215
0.450284
0.323993
0.310515
0.337991
0.328132
1.88324
0.911059
0.372083
0.355637
0.414287
0.351692
0.792419
1.01596
1.02725
0.766899
0.344092
0.323171
0.3301
0.297241