/*--------------------------------*- C++ -*----------------------------------*\
| =========                 |                                                 |
| \\      /  F ield         | OpenFOAM: The Open Source CFD Toolbox           |
|  \\    /   O peration     | Version:  2506                                  |
|   \\  /    A nd           | Website:  www.openfoam.com                      |
|    \\/     M anipulation  |                                                 |
\*---------------------------------------------------------------------------*/
FoamFile
{
    version     2.0;
    format      ascii;
    arch        "LSB;label=32;scalar=64";
    class       volScalarField;
    location    "0.0657856";
    object      nut;
}
// * * * * * * * * * * * * * * * * * * * * * * * * * * * * * * * * * * * * * //

dimensions      [0 2 -1 0 0 0 0];

internalField   nonuniform List<scalar> 
47425
(
0.00503779
0.00492659
0.00433409
0.00196607
0.0032482
0.00445439
0.00443403
0.00318383
0.00742777
0.00222387
0.00241689
0.00738358
0.00500752
0.00392418
0.00318533
0.00373743
0.00449177
0.00244492
0.000252482
0.0027508
0.00376609
0.00679122
0.00306046
0.00495473
0.00669022
0.0068124
0.00383671
0.000490518
0.00422535
0.00544445
0.00719461
0.00713344
0.00745916
0.00439332
0.00536558
0.00472189
0.00685981
0.00537816
0.00467098
0.0042294
0.00501422
0.00443591
0.00490548
0.00260976
0.000892796
0.00332391
0.00343529
0.00451888
0.00385891
0.006354
0.000641595
0.00266383
0.00600636
0.00109978
0.00325168
0.00294816
0.00673684
0.00514413
0.00246455
0.00504262
0.000899906
0.000721287
0.00101687
0.00297819
0.0073849
0.00680032
0.00555509
0.00414878
0.00107863
0.00522405
0.00389967
0.00562884
0.00612395
0.00342989
0.00143088
0.00746319
0.00105797
0.00380893
0.000205908
0.00194837
0.00140207
0.00479145
0.0071796
0.00742904
0.00617982
0.00385711
0.00547862
0.00561672
0.00420774
0.0014806
0.00698221
0.00442417
0.00712898
0.00321816
0.002585
0.00187327
0.00630385
0.00564531
0.00350807
0.00452284
0.00556684
0.00095075
0.00592592
0.000976852
0.00606557
0.00701343
0.00615847
0.00340141
0.00623637
0.00703151
0.00341304
0.00518533
0.00588154
0.0022591
0.00736019
0.000341917
0.00738185
0.000737181
0.0042956
0.00527206
0.00401478
0.0074714
0.00590462
0.002574
0.00359573
0.00676673
0.00377007
0.0074179
0.00334229
0.00715283
0.00691956
0.00341207
0.00101457
0.0028945
0.0046533
0.00454843
0.00653959
0.00650993
0.00446961
0.00317263
0.00499014
0.0023261
0.00467934
0.00506291
0.00630896
0.00742414
0.00382187
0.00542301
0.00239172
0.00499675
0.00510898
0.000542239
0.00738986
0.000418999
0.00296385
0.00382463
0.0028726
0.00030348
0.00380506
0.00454516
0.00746862
0.00691229
0.00596696
0.006677
0.00119256
0.000429653
0.00743307
0.00142176
0.00315447
0.000782573
0.00148852
0.00407496
0.00479072
0.00331189
0.00482271
0.0012482
0.000392297
0.00420906
0.00566969
0.00691985
0.000318917
0.00614904
0.00490638
0.00657337
0.00645323
0.00695989
0.00542605
0.00109865
0.00235061
0.00527007
0.00746955
0.0041762
0.00508739
0.00474283
0.00653494
0.00737273
0.00582736
0.00445695
0.00748801
0.0034961
0.00503499
0.00296206
0.00592688
0.0073343
0.00240583
0.00236626
0.00553345
0.00728378
0.00401247
0.00747105
0.00475206
0.00459728
0.00745921
0.00333669
0.0047686
0.00477163
0.00396726
0.00180103
0.00334019
0.00380527
0.00186922
0.00238572
0.00452646
0.0031263
0.00238343
0.00161743
0.00654883
0.00246573
0.00722955
0.00398511
0.00421538
0.00434914
0.00330905
0.00748889
0.00222614
0.00346115
0.00172069
0.0029707
0.00193443
0.00202002
0.00402578
0.0049116
0.00709
0.00301469
0.00683411
0.00733161
0.00447935
0.00590003
0.0069403
0.00396128
0.00715441
0.00227561
0.00460365
0.00742026
0.00342601
0.00706055
0.00668438
0.00301911
0.00324187
0.00739659
0.00304006
0.00745971
0.00397402
0.00267026
0.00515416
0.00389299
0.00686238
0.00448547
0.00477142
0.00396138
0.00396309
0.00215683
0.00178862
0.00618378
0.00225452
0.00208182
0.00225362
0.000544942
0.00183729
0.000603232
0.000902038
0.00506878
0.000824197
0.00295026
0.00393516
0.00357198
0.00337715
0.00352858
0.0040057
0.00749074
0.000759885
0.00503998
0.00737543
0.00530558
0.00454649
0.00331457
0.00289881
0.00653408
0.00484345
0.00493161
0.00379758
0.00682587
0.00380611
0.00501063
0.0010291
0.000824756
0.000553222
0.00709978
0.00617775
0.00704024
0.00320271
0.000821126
0.00370522
0.00282767
0.00180629
0.00463874
0.00328967
0.00303154
0.00339288
0.00149279
0.00188246
0.00697214
0.00511227
0.00627618
0.00412654
0.00687859
0.00399702
0.00475938
0.00569205
0.00420428
0.00360185
0.000953695
0.00391027
0.00409181
0.00297233
0.00706799
0.00084953
0.00633348
0.00652308
0.00573927
0.00683263
0.00678111
0.00662507
0.00585434
0.00577354
0.0059803
0.00506916
0.00656045
0.00368383
0.00403656
0.0067089
0.00675517
0.00510906
0.00652275
0.00657287
0.00258654
0.00399913
0.00719199
0.006415
0.0038573
0.00195404
0.00556514
0.00415239
0.00337332
0.00628008
0.0065986
0.00279773
0.00743425
0.00484748
0.00701722
0.00277307
0.00118539
0.00388093
0.00722598
0.00192608
0.00718254
0.00420954
0.00384012
0.00502325
0.00682132
0.00563157
0.00704731
0.0070364
0.00481468
0.00402422
0.00439932
0.00383206
0.00583783
0.00717406
0.00385197
0.00629261
0.00614869
0.00404746
0.00533643
0.00465946
0.00645661
0.0051746
0.00358129
0.00330904
0.00611116
0.000960134
0.00662238
0.00215923
0.00470961
0.0034582
0.00343378
0.00640779
0.00239431
0.00645504
0.00354193
0.00677439
0.00112817
0.00101617
0.0069857
0.00265929
0.00385683
0.00359593
0.00384702
0.0041831
0.00377862
0.00400582
0.00479988
0.00661572
0.00307101
0.0044702
0.00616129
0.00354139
0.00391715
0.00598565
0.000890774
0.000393913
0.00666156
0.000483243
0.000496676
0.00396164
0.000469639
0.000923927
0.00633996
0.00382929
0.0040702
0.00388125
0.00100809
0.00378667
0.0060046
0.00618098
0.00416149
0.00414709
0.00399506
0.00378254
0.00104479
0.000742408
0.00123003
0.00543756
0.000989117
0.00382217
0.00524686
0.00712443
0.0051136
0.00718629
0.00422924
0.00478998
0.00284693
0.00446194
0.00748961
0.00387375
0.00511316
0.00430749
0.00725709
0.00483407
0.00460152
0.00523094
0.00562936
0.0033913
0.00277988
0.00503181
0.00414405
0.00719536
0.00127309
0.00277877
0.00201036
0.00744304
0.00257497
0.00328954
0.00291806
0.00700781
0.00395399
0.00740271
0.00486438
0.00286625
0.00326836
0.00352884
0.00319925
0.00542716
0.0022762
0.00086755
0.00635096
0.0015774
0.00559008
0.00161099
0.00613794
0.00582572
0.00689331
0.00443989
0.00525567
0.00295542
0.00498316
0.00647136
0.00702528
0.00626387
0.0043536
0.00263939
0.00362987
0.00708588
0.00557064
0.00503391
0.00516713
0.00518971
0.00479242
0.00436703
0.00251943
0.00472287
0.00372038
0.000670703
0.00511664
0.00444261
0.00625892
0.0074118
0.00173954
0.00211409
0.00440697
0.00607773
0.00426042
0.00413263
0.00683741
0.00205587
0.00747829
0.00383876
0.00236478
0.00273394
0.00516272
0.00282558
0.00723956
0.00423814
0.00428827
0.00581742
0.00692841
0.00570505
0.000916728
0.00482148
0.00243503
0.00663529
0.00186032
0.00635602
0.00512101
0.00209335
0.00239802
0.00449399
0.00662464
0.000716665
0.0054324
0.00529352
0.00534283
0.00618852
0.00681491
0.00228162
0.00291697
0.0060994
0.00522245
0.00467734
0.00692451
0.00198463
0.00699
0.00505354
0.000436772
0.00436134
0.00704167
0.000862109
0.00130145
0.00705169
0.000319766
0.000335479
0.0042263
0.00744588
0.00569677
0.00691467
0.00426378
0.00383715
0.00131977
0.00697323
0.00270061
0.00605779
0.00205062
0.00226757
0.00433126
0.00475505
0.00151542
0.00737951
0.00592304
0.00343047
0.0033597
0.00250619
0.00298005
0.00299261
0.00668207
0.00334891
0.00285124
0.00297356
0.005326
0.00289105
0.00333298
0.00641735
0.00247947
0.0036436
0.0039582
0.00270069
0.00335487
0.00440859
0.00492968
0.00613065
0.0016718
0.00507734
0.00650791
0.006459
0.000299331
0.00392374
0.00507374
0.000525945
0.000833063
0.00704807
0.00464124
0.000153664
0.00205909
0.000777123
0.00265326
0.00315409
0.000738977
0.00505571
0.00618777
0.00590959
0.00296143
0.00335452
0.0033283
0.00640673
0.0031263
0.00450663
0.00380582
0.00616569
0.00427159
0.0038213
0.00170816
0.000996373
0.00277915
0.00290279
0.00400099
0.00597719
0.00342202
0.00741648
0.0060541
0.00567855
0.00526722
0.00584349
0.00192245
0.00469484
0.00636225
0.00186478
0.00193235
0.000988149
0.00117856
0.00390686
0.00722351
0.0048217
0.00690884
0.00119153
0.00441041
0.0012475
0.00418603
0.00399119
0.00507946
0.00467352
0.00552102
0.00338996
0.0019073
0.00350114
0.00518846
0.00188998
0.00425951
0.00748588
0.00419374
0.00397448
0.00182006
0.00495883
0.00184679
0.00335379
0.00747322
0.00691434
0.00248552
0.00406336
0.00359469
0.0074327
0.00505216
0.00407143
0.00440562
0.00409364
0.00389476
0.00472823
0.000886041
0.000608032
0.00429198
0.000794663
0.0044981
0.00286875
0.00336818
0.00622438
0.0042124
0.0047619
0.00407044
0.0040064
0.00676373
0.000570955
0.00262461
0.00333518
0.00506874
0.00645324
0.00373923
0.00532202
0.00239214
0.00738242
0.00196998
0.0040178
0.00678219
0.00411638
0.00650689
0.00526572
0.00441679
0.00598632
0.00352811
0.00714335
0.00655334
0.00373137
0.00102641
0.00718685
0.000726592
0.00237886
0.00211292
0.000727031
0.00417048
0.00408455
0.00212039
0.00363036
0.000801966
0.0008347
0.000923314
0.00320602
0.00485667
0.00372345
0.00290986
0.000863627
0.00246614
0.00364193
0.00557298
0.00433672
0.0041903
0.00307864
0.0056818
0.00417559
0.00130361
0.00195919
0.00555559
0.00246468
0.0010744
0.000690982
0.00363008
0.000562935
0.00192265
0.000658745
0.000842574
0.00449999
0.00301018
0.00690968
0.00646546
0.00476816
0.000734411
0.00124212
0.00472079
0.00479121
0.00701977
0.000880525
0.000848101
0.00707329
0.00224871
0.00362292
0.00706632
0.00220116
0.00709056
0.0070205
0.00424474
0.00476008
0.00156581
0.00632052
0.00703974
0.00499155
0.00517735
0.00515714
0.00101853
0.00186931
0.00691899
0.00125039
0.00614625
0.00649934
0.00647135
0.00176687
0.00449534
0.00197181
0.002604
0.00558214
0.00708743
0.00125787
0.000650916
0.00442984
0.00384449
0.00194276
0.0052837
0.00561016
0.00297276
0.00273353
0.00294507
0.0063521
0.00242279
0.00107915
0.0074237
0.00108928
0.00527842
0.00393806
0.00679266
0.0019976
0.00267636
0.00695925
0.0040069
0.00125833
0.00323453
0.0019843
0.00459537
0.00538067
0.00457091
0.0035128
0.00445225
0.00305418
0.000687104
0.0045906
0.00255008
0.00178051
0.00176537
0.00107822
0.00172249
0.00409165
0.000543949
0.00682792
0.00643338
0.00407898
0.00272934
0.00379527
0.00140975
0.00132664
0.00318447
0.00467571
0.00444054
0.00315385
0.00354401
0.00388559
0.0094971
0.0013642
0.00394394
0.00398798
0.00272794
0.00191389
0.00577799
0.000549558
0.00389432
0.00537208
0.00386731
0.00393946
0.00770686
0.00666423
0.00336281
0.00386329
0.000707595
0.0027243
0.00476777
0.00363852
0.00555669
0.00349662
0.000770846
0.00462406
0.00212284
0.00553674
0.00181078
0.00286743
0.00376016
0.00546102
0.00529017
0.00357869
0.00209019
0.003861
0.00162808
0.000743802
0.00521942
0.00688702
0.00492156
0.00104687
0.00522452
0.00272016
0.00699303
0.0016742
0.00171981
0.00388273
0.00301407
0.00434281
0.00700841
0.00514754
0.00314792
0.00114225
0.00220613
0.00116296
0.0066528
0.00223681
0.002491
0.00296307
0.00353653
0.00508734
0.00168292
0.00164119
0.0037267
0.000927312
0.00353582
0.00353717
0.0042368
0.00482773
0.0037075
0.00474556
0.00122237
0.00417304
0.00392969
0.00438584
0.00595384
0.00078995
0.00248619
0.000704637
0.00154214
0.000938828
0.0020787
0.00385708
0.00128164
0.00346028
0.00125558
0.00199459
0.00204055
0.00137956
0.00297686
0.00516064
0.0042254
0.00746843
0.00143943
0.00367719
0.00341193
0.00434476
0.0013335
0.00575883
0.00426514
0.00588226
0.00746035
0.00291696
0.00181652
0.00296286
0.00312935
0.00527788
0.0023234
0.00654081
0.00314803
0.00307833
0.00673375
0.00234301
0.00230277
0.00423304
0.00205353
0.00382961
0.00331455
0.00205275
0.00291915
0.00309118
0.000221827
0.000659116
0.00167831
0.000771641
0.0032967
0.00328558
0.000624753
0.000930572
0.00498711
0.0010294
0.00331811
0.00417138
0.000544381
0.00261446
0.00694146
0.00317342
0.00147596
0.00599348
0.00068945
0.000342731
0.00223014
0.00083093
0.00223017
0.000946342
0.000843321
0.00540298
0.00446863
0.00276353
0.00188701
0.00365593
0.0072941
0.00207827
0.000693531
0.00461977
0.00167011
0.004267
0.00201285
0.00620353
0.00586642
0.00230427
0.00224741
0.00416367
0.00177045
0.00504396
0.00142457
0.00703038
0.00575965
0.0040566
0.00214586
0.00489983
0.00714812
0.000775943
0.00186126
0.00171831
0.00369665
0.00254078
0.0022148
0.00119812
0.00400287
0.00115845
0.00294854
0.00506326
0.00314374
0.00238379
0.000847863
0.00200673
0.00176953
0.0058796
0.00493821
0.00200172
0.00399827
0.00277073
0.00500063
0.00740451
0.00626709
0.00391941
0.00291903
0.000833828
0.00398805
0.000498353
0.00380761
0.00436077
0.00297238
0.00517037
0.00371117
0.00402927
0.00446994
0.00193741
0.00564752
0.00145132
0.00697138
0.000369518
0.00133789
0.00139314
0.00197872
0.0041099
0.00534122
0.00343829
0.00514841
0.000639279
0.000759158
0.00338356
0.0022141
0.000993061
0.000938144
0.00232171
0.00116326
0.000580577
0.00354283
0.0049466
0.000540335
0.00381997
0.00454059
0.00422514
0.0011149
0.000582748
0.00390385
0.00373725
0.00131562
0.00258692
0.00127271
0.000762276
0.00325548
0.00109943
0.00118789
0.0033528
0.00456422
0.00111049
0.00594255
0.00154427
0.000235424
0.00713489
0.00434006
0.00379688
0.00533376
0.00300183
0.0030466
0.00731887
0.00296798
0.00413469
0.00082962
0.00160036
0.00452585
0.00141439
0.00544695
0.000391078
0.00681629
0.00355755
0.00233756
0.00535315
0.000996859
0.00390631
0.0030476
0.00236734
0.0034441
0.00394213
0.00535854
0.00211427
0.000695776
0.00593263
0.00144564
0.000723355
0.00235133
0.00359717
0.00101838
0.0017132
0.00478124
0.00536502
0.00104266
0.00175465
0.0022582
0.000824064
0.00258599
0.000936546
0.00336824
0.00280001
0.00215426
0.00100031
0.00529866
0.00566918
0.00212752
0.00428464
0.00255693
0.00399305
0.00117683
0.00514699
0.00366013
0.00575596
0.0014118
0.00560407
0.000608049
0.00219516
0.00556699
0.00739778
0.00190061
0.00165972
0.000891591
0.00193715
0.00210373
0.00111717
0.000872865
0.00401831
0.000930147
0.0050518
0.0028619
0.000423267
0.00151772
0.00308877
0.00337315
0.00561311
0.00150073
0.000662492
0.00161597
0.0027264
0.00679448
0.00708672
0.00183373
0.00423
0.00379484
0.00627796
0.00105149
0.00311192
0.00162696
0.00413883
0.00157851
0.00402307
0.00336631
0.00111823
0.00183856
0.00238841
0.0025993
0.00550741
0.00040116
0.0016622
0.00154568
0.00143748
0.0042707
0.0053173
0.00105464
0.000774823
0.00163552
0.00274228
0.00284631
0.00160235
0.00247046
0.00147273
0.00539463
0.00131727
0.00135266
0.00543084
0.00119669
0.00336396
0.00255889
0.00275247
0.00129874
0.00247859
0.00586766
0.000708255
0.00331983
0.00065279
0.0026265
0.00368164
0.00306369
0.00196726
0.00130857
0.00235818
0.00399017
0.00295873
0.00119842
0.00387245
0.00419697
0.000662937
0.00688927
0.00361143
0.000870792
0.00351907
0.00267623
0.00220647
0.00240672
0.00119135
0.00365277
0.000160363
0.0022432
0.000859961
0.00278494
0.00114789
0.00275109
0.000890479
0.00138003
0.00136464
0.00287515
0.00397306
0.00741052
0.00405947
0.00363489
0.00289596
0.00072513
0.00376079
0.00596328
0.00429539
0.0049113
0.00307974
0.00415934
0.00719485
0.00745302
0.00299473
0.000984206
0.00668547
0.00279831
0.00242054
0.00525748
0.00639591
0.0028444
0.00224837
0.00747108
0.00548184
0.00334345
0.00353015
0.00598122
0.00387986
0.0011609
0.00386243
0.0033973
0.00560632
0.00690849
0.00210209
0.00465607
0.0058244
0.000838311
0.00187624
0.000970053
0.00660334
0.000957691
0.000428582
0.00592411
0.000383827
0.000786741
0.000576825
0.0039293
0.00472347
0.004247
0.0014211
0.00681766
0.00441171
0.00448513
0.00389758
0.00273312
0.00348573
0.00344704
0.00105334
0.00433045
0.002731
0.000842723
0.00400617
0.00033895
0.0016994
0.00125122
0.00643288
0.00303077
0.00195014
0.00574758
0.00465754
0.00192754
0.00703175
0.0029757
0.0017106
0.00042875
0.00724383
0.00153437
0.00513942
0.00300576
0.00298302
0.00532234
0.00135436
0.00466631
0.00212655
0.00447373
0.00130348
0.000280303
0.00391407
0.00687756
0.00237111
0.00465065
0.00083103
0.00375105
0.00375703
0.00443546
0.00421507
0.0054567
0.00724968
0.00375485
0.00222444
0.00527267
0.00218583
0.00400653
0.00376624
0.00712827
0.00230122
0.00247535
0.00401319
0.00479994
0.00467867
0.00456438
0.00308814
0.00417136
0.00440131
0.00579269
0.00235443
0.00261811
0.0074721
0.00385952
0.00355563
0.00508567
0.0038165
0.00310176
0.00396758
0.00359947
0.00391176
0.00501113
0.00386156
0.00575883
0.00469834
0.00622727
0.00205792
0.00223524
0.00196174
0.00361951
0.00473603
0.00409811
0.00122163
0.00524456
0.00503719
0.00539362
0.00150299
0.00298715
0.00124759
0.00123266
0.00125165
0.00326667
0.00448083
0.00410216
0.00417289
0.00628933
0.00119221
0.00397006
0.00636744
0.0040975
0.00316811
0.00397439
0.00147615
0.00400661
0.0023662
0.00272838
0.00339877
0.00605667
0.00437868
0.0037091
0.00376992
0.00451976
0.0029966
0.00327079
0.00282012
0.00368632
0.0050821
0.00495672
0.00212722
0.00190505
0.00468212
0.00411729
0.00231272
0.00374004
0.00228484
0.00657484
0.00522447
0.00230812
0.00460962
0.00570117
0.00465158
0.0067624
0.00648364
0.00341045
0.00429398
0.00208113
0.00438995
0.00235035
0.00589409
0.00431722
0.000993069
0.00399818
0.00421734
0.00497308
0.00507318
0.00395799
0.00426158
0.0003235
0.00347017
0.00357649
0.00589559
0.00516071
0.00496762
0.00709408
0.00614219
0.00350655
0.00407947
0.00618329
0.00661309
0.0028563
0.000982092
0.00129312
0.00301164
0.0017598
0.0035084
0.00384651
0.00354002
0.00197314
0.00195035
0.003277
0.00395931
0.000837309
0.00475034
0.00395201
0.00383687
0.0039738
0.00622328
0.000305496
0.00460632
0.00358723
0.00743041
0.00263735
0.0025865
0.000408836
0.000231919
0.00459184
0.0056895
0.0068958
0.00397818
0.00363842
0.00493208
0.000211358
0.00130418
0.00470114
0.00252271
0.00133192
0.00485849
0.00467162
0.00341144
0.00686098
0.00494459
0.00657574
0.00423536
0.00284805
0.00387517
0.00421338
0.00511169
0.00190467
0.00423567
0.00743716
0.00144068
0.00571921
0.0034441
0.00296875
0.00106259
0.00172426
0.00344745
0.00287963
0.00486061
0.00284779
0.00285179
0.00597245
0.000584613
0.00174264
0.00287974
0.0038937
0.00339969
0.00385459
0.00381387
0.00112622
0.00712462
0.00660531
0.00574176
0.00538267
0.000878743
0.00128268
0.00129363
0.00182782
0.00304062
0.00287971
0.00714732
0.00690058
0.0045491
0.00489191
0.00506852
0.0055263
0.00708144
0.00107277
0.000784275
0.00701858
0.00607022
0.00274682
0.00238249
0.00294869
0.0070351
0.00504395
0.00172185
0.000900927
0.00342335
0.00202757
0.00445289
0.00147396
0.000560284
0.00304125
0.00612491
0.00695103
0.00617164
0.000901155
0.00527291
0.00435008
0.00420553
0.00710176
0.0009247
0.000367528
0.000488578
0.00165503
0.00418838
0.00592884
0.0067894
0.00224717
0.00384538
0.000930585
0.000838088
0.000845431
0.000500809
0.000818969
0.00169403
0.00647937
0.000801119
0.0073976
0.00033635
0.00390477
0.000766092
0.00444401
0.00170424
0.00550395
0.00292722
0.00224757
0.0022549
0.00455704
0.00559576
0.00398898
0.000895001
0.00107165
0.00500287
0.0051651
0.000473504
0.000453386
0.00360836
0.00170966
0.000716039
0.00140957
0.00462195
0.00664195
0.00087729
0.00067608
0.00154864
0.00704813
0.00135839
0.00618173
0.000773218
0.00108756
0.000563898
0.00239822
0.0055763
0.00152502
0.00653541
0.00461107
0.00378542
0.00216612
0.00599865
0.00356607
0.00457493
0.00378569
0.00414747
0.00664103
0.00625948
0.00335367
0.00661306
0.00570239
0.0042361
0.00374706
0.00154905
0.00380025
0.00238804
0.00402921
0.00519721
0.00380629
0.000948507
0.0034407
0.00333395
0.00189842
0.000570098
0.00416769
0.00394788
0.00314012
0.000979342
0.00164034
0.00129678
0.00461182
0.00640552
0.00451615
0.00338018
0.00542762
0.00339195
0.00314432
0.00366897
0.00694012
0.0045461
0.00473689
0.00445235
0.00315622
0.00429756
0.00366397
0.000655721
0.00347101
0.0039843
0.00416743
0.00291225
0.00110453
0.00276252
0.00382811
0.0045119
0.00309875
0.00125095
0.00120674
0.00377514
0.00322388
0.000372134
0.00150154
0.00204491
0.00404298
0.00147309
0.00309197
0.00399482
0.00275077
0.00114046
0.00473143
0.00406972
0.00235191
0.00636184
0.00236578
0.00269913
0.00309217
0.00332979
0.00194452
0.00409995
0.00584362
0.00695346
0.00182074
0.00324664
0.00431055
0.00514195
0.00493261
0.000813161
0.00293946
0.00332319
0.000442303
0.00177166
0.00534583
0.00343795
0.000932732
0.00165889
0.00229469
0.00691796
0.00290199
0.00103558
0.00507341
0.00715925
0.000670998
0.00182222
0.00135293
0.00336731
0.00446472
0.00459467
0.00153583
0.000622626
0.000720248
0.00473547
0.0054571
0.000615015
0.00533621
0.00174852
0.00307854
0.00151118
0.000968541
0.00441798
0.00338572
0.00116793
0.00398787
0.00478645
0.00450251
0.00357443
0.00546391
0.000892392
0.000291002
0.00358215
0.00357502
0.000717157
0.000525702
0.000682745
0.0020749
0.00109311
0.00198203
0.000550977
0.00352554
0.00353175
0.000843683
0.00233406
0.00237722
0.00103232
0.000934356
0.00042156
0.0057352
0.00528933
0.000751043
0.00651411
0.00424299
0.000833237
0.00526065
0.00318914
0.00400327
0.00305061
0.00501853
0.00615316
0.000466792
0.000518228
0.0022096
0.000722361
0.00240654
0.0036164
0.00431233
0.00434788
0.00331389
0.00441057
0.00511833
0.0039364
0.00463738
0.000716577
0.000660416
0.00412642
0.00170891
0.00379995
0.00424052
0.00258935
0.00352873
0.00364918
0.00448156
0.000541176
0.00110138
0.00430805
0.000653587
0.00280235
0.0014225
0.00292257
0.00341678
0.000991078
0.00280476
0.00107213
0.00456461
0.00290724
0.0029061
0.00624149
0.00114951
0.00701062
0.0053584
0.00237762
0.0042648
0.00144475
0.00332182
0.0025345
0.00338775
0.000874506
0.00387134
0.00340856
0.00363837
0.0069595
0.00352853
0.00351951
0.00175719
0.00045445
0.00276539
0.000720576
0.003585
0.00434468
0.00499223
0.0044551
0.00493855
0.0047243
0.00335694
0.00122826
0.00170601
0.0012228
0.000619789
0.00473782
0.00388298
0.000157331
0.000903299
0.0044458
0.00440449
0.00124847
0.00374369
0.000713883
0.000448388
0.00265397
0.000855622
0.00130689
0.00277158
0.000749631
0.00168839
0.00579024
0.00348377
0.00104271
0.00126412
0.00629686
0.000959785
0.00663443
0.00262968
0.00450925
0.00261894
0.00184561
0.00083674
0.00102371
0.00589236
0.00568917
0.00024332
0.00680556
0.00457031
0.00116834
0.00574751
0.00278678
0.00423944
0.00324461
0.000525644
0.00146679
0.000870787
0.00169757
0.00315235
0.00110483
0.00558809
0.00479093
0.00101592
0.00649287
0.00366151
0.00262329
0.00502513
0.00128122
0.000633306
0.00668266
0.00222833
0.00698719
0.000741214
0.00393884
0.000581049
0.00278871
0.00284673
0.00571783
0.00249632
0.00266097
0.00628299
0.00455752
0.00322458
0.00703349
0.00137598
0.00325774
0.00349052
0.00620387
0.00399092
0.00348139
0.00246735
0.00287346
0.00176909
0.00305877
0.00349424
0.00379401
0.00142912
0.000558281
0.000799634
0.000704255
0.00116028
0.000824441
0.00101455
0.0025632
0.000234005
0.00073502
0.00133703
0.00174928
0.0025698
0.00107201
0.000983447
0.00229756
0.00144629
0.0020898
0.00607338
0.00260469
0.00158312
0.00380824
0.000908364
0.00327094
0.00058877
0.00185476
0.00117069
0.00139138
0.00142397
0.000765315
0.00182956
0.00066588
0.00262598
0.00246897
0.00393921
0.00170517
0.00494461
0.00542502
0.000933434
0.00330324
0.000949182
0.0018173
0.00503339
0.00233997
0.00391773
0.0014607
0.00121461
0.00681074
0.0056564
0.00158612
0.000941071
0.00365218
0.00266965
0.00114655
0.00107935
0.00419636
0.00696635
0.00385126
0.00404055
0.00079488
0.00710166
0.00088801
0.000358234
0.0049512
0.00251594
0.00406935
0.00348281
0.000868081
0.00277661
0.00076331
0.0032041
0.00420044
0.000520592
0.000990979
0.00516532
0.00231687
0.00513732
0.00637604
0.00126832
0.00302668
0.000752866
0.00356235
0.00605403
0.00256129
0.00670753
0.00457823
0.00510845
0.00469547
0.0027268
0.00216186
0.00144373
0.00360912
0.00108003
0.00514945
0.00657138
0.00215418
0.00126251
0.000828306
0.00085815
0.00189576
0.00194812
0.00103978
0.000923625
0.000820058
0.000836042
0.0030669
0.00300335
0.00394234
0.00136906
0.00500791
0.00270936
0.003108
0.00133144
0.000514414
0.00348142
0.00254228
0.00347542
0.00437703
0.0033635
0.00381023
0.00594023
0.00450641
0.00251326
0.00288198
0.00265887
0.00529887
0.00288919
0.00150856
0.00075363
0.00414987
0.000574128
0.007444
0.00293827
0.00685219
0.00439578
0.000898191
0.00269389
0.00113835
0.00364406
0.00342042
0.00326084
0.00437197
0.00466368
0.00390543
0.00318772
0.00891441
0.00734223
0.000779935
0.00292299
0.00121881
0.00281634
0.00105643
0.00554427
0.00448613
0.00336252
0.00381969
0.00288459
0.000957133
0.00628061
0.003972
0.0011812
0.00246717
0.00243078
0.00260293
0.00243945
0.00226605
0.00211082
0.00481634
0.00745002
0.00641538
0.0019375
0.00147249
0.00454052
0.000492529
0.00647517
0.00174865
0.00677487
0.00604862
0.00181697
0.00435114
0.0063557
0.00095109
0.00742105
0.00406972
0.00139088
0.00338029
0.00675964
0.00128062
0.00665143
0.00729681
0.00108025
0.00276134
0.00286742
0.000747878
0.0072064
0.00192357
0.00131191
0.00166704
0.000934037
0.001152
0.00449592
0.00582475
0.0028277
0.00571257
0.00180916
0.00287352
0.00495574
0.0057069
0.00348112
0.0011649
0.00296475
0.00423221
0.00263235
0.00339904
0.00247823
0.0073882
0.00209993
0.00111938
0.00359716
0.00333043
0.00462702
0.00445952
0.00290593
0.00432339
0.00217089
0.00322911
0.00060922
0.00392875
0.00701071
0.000979358
0.00286875
0.000654293
0.000966452
0.00628833
0.00329278
0.00121559
0.00309252
0.000640191
0.00140723
0.000552499
0.00139786
0.000618616
0.00301669
0.00150506
0.00153696
0.000531924
0.00113911
0.0028718
0.000633822
0.000613238
0.00245422
0.000313855
0.00121099
0.00433969
0.00365987
0.00119975
0.000926262
0.00724558
0.00364278
0.000966417
0.000732813
0.00106057
0.00126969
0.00154456
0.0007906
0.00277262
0.00361042
0.00426402
0.00682182
0.00306778
0.00629509
0.00100124
0.00293354
0.00429222
0.00066508
0.00377638
0.00228461
0.00417807
0.00594874
0.00312796
0.00429056
0.00176785
0.00631567
0.00171657
0.000596898
0.00465875
0.00636692
0.00325068
0.00486968
0.000988715
0.00370625
0.00527188
0.00613596
0.000558028
0.00603309
0.00343291
0.006489
0.00164532
0.00306171
0.00429456
0.00566747
0.00494384
0.0014563
0.00351274
0.00254718
0.00741671
0.00687884
0.00663904
0.00467714
0.00443392
0.00350876
0.00575854
0.00328557
0.00356548
0.00235954
0.00124536
0.00108665
0.00315405
0.00175271
0.00411519
0.0026319
0.00346197
0.00370264
0.00623996
0.00314508
0.00425507
0.00613815
0.00213091
0.00452068
0.00306094
0.00104126
0.0047446
0.00269571
0.00116207
0.00358918
0.0011098
0.00185062
0.00117605
0.000334453
0.00273936
0.00505955
0.00195342
0.000448406
0.00295218
0.00694889
0.00593544
0.00505769
0.00331057
0.00439802
0.00703566
0.00690991
0.0035995
0.00275279
0.00731965
0.006405
0.00724417
0.00510363
0.00284255
0.00171839
0.00296375
0.00598269
0.00325143
0.000920724
0.00507113
0.00572711
0.00378129
0.000574803
0.000599907
0.0037487
0.00539701
0.00459523
0.00298495
0.00466653
0.000699059
0.00170876
0.00474728
0.00399347
0.00570436
0.00338154
0.00178049
0.00439211
0.00319445
0.00344931
0.00127516
0.00194503
0.00146576
0.000925018
0.000248015
0.00222329
0.00190418
0.00374358
0.00378686
0.00332325
0.00321634
0.00545741
0.00425908
0.00047107
0.0062929
0.00177291
0.000960044
0.00327382
0.00293922
0.000746797
0.00201585
0.00392198
0.00378359
0.0072572
0.00293232
0.00105873
0.00377399
0.00148702
0.00658658
0.00259239
0.000731202
0.000837772
0.00322196
0.00301466
0.00105332
0.00446928
0.000671699
0.000591693
0.00119638
0.00741959
0.00663233
0.000302704
0.00569847
0.000506973
0.00191562
0.00304345
0.00106711
0.00105766
0.00592965
0.00714065
0.000944391
0.00597497
0.00571446
0.00467058
0.0063036
0.00422491
0.00360399
0.00210199
0.00537686
0.000355451
0.00308838
0.00379856
0.00369422
0.000307232
0.00409279
0.000556164
0.00463827
0.00303561
0.00355919
0.00108575
0.00559189
0.00429188
0.00470956
0.00095367
0.00182821
0.00181711
0.00130901
0.00266868
0.00602521
0.000776873
0.00326794
0.00319037
0.00327302
0.00414659
0.00305903
0.00382132
0.00717622
0.000366377
0.00125853
0.00428506
0.0046723
0.00300739
0.00378649
0.00269107
0.00275108
0.0045071
0.00224194
0.00428542
0.00468574
0.00410898
0.00155982
0.0043799
0.00434382
0.00446057
0.00343714
0.00674385
0.00536893
0.00474063
0.00275087
0.00411458
0.00269779
0.00253624
0.00350344
0.000717097
0.00472817
0.00268302
0.00147903
0.00120082
0.00149411
0.00358896
0.00692252
0.00179376
0.000765695
0.00393385
0.000993126
0.00397127
0.00706977
0.00267634
0.00172337
0.00379034
0.00421922
0.00730349
0.00474561
0.000345053
0.00471923
0.00636574
0.00236932
0.000485643
0.000541167
0.00346878
0.000288912
0.00151612
0.00113017
0.00237856
0.00117551
0.000528685
0.00474414
0.00084396
0.00386199
0.00496561
0.00653933
0.000511062
0.00204395
0.00673769
0.00556321
0.000992109
0.00398956
0.000511029
0.00486697
0.00288962
0.00420708
0.00289394
0.00062838
0.00726234
0.0031249
0.0027956
0.00537723
0.00365624
0.00552594
0.00282717
0.000459339
0.00045061
0.00074179
0.00141481
0.00124728
0.00560912
0.0060145
0.00487838
0.00362048
0.00685821
0.00141801
0.00711537
0.000890503
0.00416685
0.00639623
0.00561742
0.00470928
0.00649966
0.00321413
0.00294423
0.0071941
0.00307392
0.000878613
0.0051294
0.00101653
0.000919839
0.0062995
0.000305196
0.000547694
0.00274393
0.00288827
0.0036244
0.00122181
0.00451035
0.00195293
0.00118496
0.00521671
0.00159813
0.00706336
0.0019673
0.00399946
0.00225432
0.00203778
0.000868479
0.00332799
0.00380386
0.00066425
0.00125838
0.00195259
0.0015474
0.00566126
0.0017215
0.00405349
0.00181916
0.0031854
0.00612342
0.00128476
0.00265881
0.00231348
0.00646953
0.00057927
0.000817999
0.000556399
0.00554932
0.00399443
0.000854217
0.000565169
0.00181509
0.00367431
0.00249383
0.00103798
0.000688489
0.00171952
0.00442445
0.00471492
0.00426683
0.00473799
0.00399088
0.000559085
0.00497177
0.00167199
0.00310602
0.00664712
0.00256427
0.00257385
0.00468627
0.00385919
0.00489731
0.00227363
0.00194521
0.00468955
0.00527874
0.00215052
0.00318062
0.00276804
0.00193467
0.00219183
0.00355497
0.00593473
0.00570807
0.00515817
0.000757485
0.00353134
0.000942214
0.00227956
0.00365495
0.00487629
0.00324557
0.00703581
0.00244274
0.00747114
0.00198878
0.00234353
0.00358905
0.00418565
0.00236507
0.00337961
0.00248616