/*--------------------------------*- C++ -*----------------------------------*\
| =========                 |                                                 |
| \\      /  F ield         | OpenFOAM: The Open Source CFD Toolbox           |
|  \\    /   O peration     | Version:  2506                                  |
|   \\  /    A nd           | Website:  www.openfoam.com                      |
|    \\/     M anipulation  |                                                 |
\*---------------------------------------------------------------------------*/
FoamFile
{
    version     2.0;
    format      ascii;
    arch        "LSB;label=32;scalar=64";
    class       volScalarField;
    location    "0.0657856";
    object      omega;
}
// * * * * * * * * * * * * * * * * * * * * * * * * * * * * * * * * * * * * * //

dimensions      [0 0 -1 0 0 0 0];

internalField   nonuniform List<scalar> 
47425
(
59.1624
67.3791
71.7068
161.12
141.802
71.0675
95.4092
101.34
49.394
599.297
136.979
43.9652
72.1807
79.3915
95.8812
88.1566
68.5753
47.7186
1339.45
193.187
84.4781
45.0526
104.523
63.0783
45.8121
43.9408
77.7705
691.472
70.1439
55.3045
43.5418
44.7833
47.7435
68.2708
55.3712
66.8333
44.5732
67.5584
65.6113
74.4748
71.5577
110.874
195.81
144.994
1817.76
103.866
95.7245
77.5998
78.6364
47.1007
573.514
231.068
49.6384
711.605
112.699
123.17
44.5152
58.2613
79.9674
61.2138
941.08
1182
894.514
44.0683
49.3523
44.7933
61.4296
87.1177
731.283
44.3742
78.195
52.1836
48.8152
90.602
640.639
49.4036
887.286
81.1182
1329.62
268.955
658.255
65.099
43.167
46.9265
51.2397
81.8141
53.9842
52.5722
124.586
403.733
44.3732
76.2492
42.3885
114.25
146.78
194.374
47.859
52.91
87.9967
78.1126
60.1411
91.9915
52.2338
97.3253
49.878
52.5226
49.2789
93.428
64.0744
44.698
352.673
62.1283
72.2295
154.956
44.4668
889.729
43.707
228.308
77.8717
62.5921
79.3623
48.5449
58.1193
63.1428
96.548
57.6752
85.0521
49.1901
105.23
42.3476
44.9786
95.3074
125.321
119.406
101.818
68.0429
47.7061
60.8431
68.9543
96.9877
70.9447
131.001
70.6106
90.0982
51.8708
49.3287
113.876
62.7033
150.209
72.3647
89.9672
502.642
48.7558
696.941
46.2362
84.151
59.4134
898.443
91.6665
71.6111
44.525
43.379
49.7651
46.5544
417.989
822.365
45.5043
651.465
106.209
729.276
691.961
85.2409
73.8607
45.5719
71.5325
65.7067
726.12
70.1854
52.6336
43.7095
1000.06
47.891
60.2142
45.8224
46.5954
48.4168
56.6875
76.239
149.085
56.1424
47.9246
71.9295
82.9554
77.0208
46.2999
42.5343
61.8689
72.0971
43.6468
83.2071
65.7718
122.942
59.8181
43.0312
49.1918
158.965
53.3594
42.7229
86.7338
48.44
63.1531
65.9053
47.2082
93.4261
63.8561
63.7834
76.4897
249.842
46.6394
93.0293
285.667
120.43
128.647
96.4127
166.933
240.407
46.1308
129.692
48.6685
60.3533
72.2367
72.2006
102.724
49.3224
164.687
92.3653
328.384
111.916
272.821
181.006
83.3211
59.866
42.2712
102.156
44.5298
49.4526
68.4855
60.603
43.0885
77.4485
42.2571
220.805
67.0123
49.2833
91.4714
42.5932
45.9666
119.683
94.4174
48.3485
124.391
47.2113
78.6164
134.981
72.0318
89.3698
44.0224
72.2286
62.8799
81.933
79.8888
238.634
315.512
48.6844
223.7
178.889
224.567
111.932
299.05
183.162
995.472
58.3196
949.964
122.869
79.5157
85.2283
103.999
90.8456
90.1356
45.58
624.313
44.0447
50.3438
56.6401
67.5165
97.6793
111.105
46.3688
65.3979
55.8399
87.0782
43.5673
85.4656
60.2437
824.767
1032.98
666.708
42.4126
48.233
43.3708
100.274
686.979
86.2113
116.156
268.769
73.1899
104.114
121.848
93.1738
435.917
235.335
44.526
60.3391
47.0684
81.1458
43.5554
78.1417
62.77
52.3825
71.8552
83.6871
710.264
54.9128
74.5779
129.126
42.6443
710.248
50.1111
45.5195
52.9259
45.6003
45.9928
44.9761
52.6126
50.9188
50.5204
59.5515
46.9652
83.3592
83.09
46.6672
44.9146
62.4471
47.4724
47.7147
46.6016
80.4972
42.9878
48.4832
93.3997
54.2649
60.5075
77.4915
94.4352
48.0043
48.6103
130.6
48.2155
66.8971
44.279
129.453
962.969
77.8977
43.477
200.232
43.4886
100.648
93.2381
72.55
44.8228
63.5008
44.2244
42.6433
73.7841
85.5631
82.8567
83.5003
52.5809
48.7491
82.3547
48.2059
46.5603
80.1622
56.7752
65.5697
48.3436
61.8096
88.489
66.9599
48.797
485.871
45.1783
424.162
69.4828
105.061
102.358
46.9553
145.399
46.2167
93.6967
46.3042
524.478
365.349
42.7659
49.8123
80.0506
85.698
82.3205
74.3381
80.9295
89.0152
66.9281
45.3453
101.031
70.868
48.5135
89.3025
78.0337
52.2218
145.392
1295.19
46.2155
282.638
1070.56
89.1444
1098.83
764.282
47.4843
80.0417
75.6113
78.8149
685.377
86.7224
49.485
48.8441
74.8067
75.2549
80.2113
80.0589
481.237
756.66
154.383
65.5408
72.0595
126.543
57.6901
43.6321
68.3915
43.1517
83.9817
75.8091
132.705
69.3637
49.3502
80.18
59.6443
77.2373
43.3032
64.6456
67.294
66.6396
63.5363
108.719
119.546
61.7656
83.1086
43.1633
532.131
129.99
74.9589
46.3474
134.244
243.701
47.1822
42.8401
47.2919
47.303
67.3407
49.3801
105.054
84.3701
47.8801
54.9459
141.72
99.3281
46.7799
50.3663
57.0494
54.1512
48.6478
51.5395
43.6587
69.3805
59.1344
110.978
61.7026
46.284
43.0564
43.2936
73.8503
126.72
44.3755
42.4001
55.6864
57.7295
57.5354
59.2681
69.0949
71.9719
51.6747
76.9246
100.902
430.596
61.3262
69.0287
52.8666
49.345
132.538
130.949
75.8588
49.9034
79.8663
104.548
46.7245
141.553
48.4578
261.554
47.7756
50.7393
58.4405
126.634
41.8526
72.3554
73.3325
56.0088
43.2085
51.5386
1131.68
62.8508
145.855
45.6231
99.5432
46.4024
58.8894
84.6417
72.4971
70.0103
45.2029
394.8
54.8187
59.1093
55.6819
48.2847
43.8414
57.7618
117.512
48.342
58.9306
67.4667
43.6177
263.611
44.3897
62.3181
486.429
71.4994
42.8006
344.097
579.346
44.1637
653.03
683.04
70.6213
46.6022
51.9754
44.1592
85.0369
88.0734
679.591
44.3605
125.966
49.2866
114.673
56.558
85.3099
66.7945
503.51
317.081
51.6699
94.1842
100.868
84.5596
121.273
124.632
47.947
97.3898
132.906
98.3661
67.4499
135.607
51.3005
47.7694
136.345
92.7919
77.9143
119.333
100.479
68.0338
73.4165
59.7476
53.3018
67.6395
47.0752
47.0699
1315.19
62.2263
77.4956
999.008
969.264
42.9597
76.2406
1619.25
168.31
93.2841
294.907
119.462
765.823
59.5086
48.3031
60.0456
173.44
113.729
112.841
46.2563
117.925
67.5018
83.2346
48.214
79.7075
57.9162
457.568
705.938
121.447
48.9177
85.7116
42.9853
109.522
47.4203
58.2109
63.5001
65.0633
44.4458
175.822
75.5066
47.4774
67.0714
185.672
750.641
231.878
86.4966
42.9877
74.5245
43.4862
741.991
70.2524
653.946
83.5335
110.14
66.7749
68.7064
58.4604
87.3317
54.0373
88.2013
56.9174
206.641
91.043
49.2336
72.082
89.1411
561.619
66.753
201.929
69.3174
48.6641
43.5141
140.9
79.7371
71.9948
45.9389
63.1223
67.7292
72.2235
80.6297
79.6056
64.789
126.35
197.099
70.8127
98.4117
67.6427
112.749
91.1059
48.1663
152.378
61.7402
76.9302
78.0888
44.2214
298.668
392.573
94.6973
65.9422
46.6699
90.7986
55.5466
135.218
43.9266
257.87
80.5795
44.4171
76.887
46.5698
59.3138
69.6834
49.5888
88.9078
42.1808
45.373
48.198
165.557
41.6885
340.839
257.178
264.898
371.542
78.7188
229.147
58.5786
46.2141
143.99
318.012
403.435
104.592
62.0531
124.042
114.903
164.67
127.796
94.1941
54.0718
70.4978
102.073
112.2
56.0211
81.0488
335.135
57.4629
62.7021
153.541
119.503
115.657
178.988
732.987
459.903
223.169
246.475
80.6889
118.852
44.3434
46.4341
71.1343
432.534
175.582
70.9372
72.4014
43.1784
370.972
413.454
42.7359
168.522
89.553
42.6153
164.964
42.55
43.7013
72.5371
71.9704
83.8266
47.9355
42.8019
60.8941
68.5289
67.1915
136.955
106.498
43.2672
243.426
48.0428
46.6507
47.1526
194.02
78.5721
233.02
119.555
54.5481
43.3477
68.1875
1389.11
71.6337
82.5476
70.5248
64.7679
61.1336
113.787
119.284
127.943
293.718
96.1917
805.065
49.4171
65.8505
56.3182
63.3689
45.1401
165.434
125.207
44.3354
288.884
94.2366
71.6882
239.452
78.5315
54.6981
70.691
67.9412
69.027
111.961
327.734
66.2902
74.0871
206.556
219.997
658.711
214.666
88.4672
171.471
44.9154
47.56
107.079
178.874
86.2487
82.4606
91.9293
102.973
47.83
68.1642
103.326
98.8135
89.6758
358.605
490.702
93.0829
135.424
171.209
670.148
403.44
201.904
92.1884
67.1552
96.5894
92.604
241.888
45.8543
47.8781
96.489
395.717
120.558
76.3052
97.4609
53.904
108.85
126.17
78.607
513.62
54.0017
64.9789
131.331
97.2573
65.4215
66.1347
104.734
104.088
89.9212
57.7242
124.698
44.8689
44.7904
45.3167
79.5535
57.7573
150.79
52.7356
215.827
286.134
257.441
99.6887
83.7016
45.3523
70.3035
113.995
490.423
247.088
886.154
45.107
57.929
54.36
322.414
88.3775
331.927
237.076
231.213
132.69
216.263
90.292
86.0834
73.0098
46.2523
125.985
67.3191
74.8599
255.788
72.6439
68.5225
50.9931
266.058
395.996
152.125
204.809
659.711
191.39
90.9729
68.0764
89.5146
104.896
184.084
187.886
461.718
46.0361
58.3809
72.4638
47.8188
62.872
100.619
95.9087
54.2518
120.862
53.018
76.1817
51.3044
47.2956
123.927
66.9079
115.652
44.5029
45.0749
162.004
46.8154
98.8668
104.614
44.3016
62.5533
103.199
79.8356
68.3013
79.8549
534.813
184.102
124.196
107.1
1868.89
999.447
633.851
454.198
101.811
49.4559
1164.08
417.187
53.6066
62.9808
106.513
86.1845
397.033
138.273
45.1831
113.086
58.3229
49.5597
202.893
961.166
138.711
1197.4
151.75
249.339
677.067
56.6092
76.5085
133.841
325.537
91.8409
46.1344
46.0915
780.276
108.199
367.778
73.5604
161.228
48.6318
53.3618
552.116
570.264
82.0248
52.9568
76.0156
535.39
43.826
51.5846
432.932
564.19
72.6043
43.8772
1046.85
725.269
586.155
99.3521
281.857
523.514
569.709
79.8838
87.2215
108.151
64.5221
107.596
544.938
1367.98
64.1897
60.0962
58.7446
52.1722
47.32
81.5546
129.371
65.742
49.5561
48.5354
93.7106
358.275
1181.38
51.3071
227.491
104.065
72.4701
172.285
57.3791
90.2707
76.574
46.2071
198.531
53.4665
524.207
44.0215
790.981
469.265
618.583
202.755
101.581
62.6441
102.37
62.5241
219.833
1450.11
103.862
393.353
179.429
480.746
160.91
764.188
615.875
91.4456
65.0985
1635.67
88.3157
48.9085
73.6237
616.975
1095.81
79.7494
52.3652
479.238
76.8402
744.176
765.938
107.791
113.639
841.916
102.918
44.5579
611.615
51.7909
512.584
996.465
43.4178
69.9377
84.3434
56.582
122.827
101.826
42.5943
121.442
89.5943
117.59
57.6481
43.1154
197.502
220.157
592.075
51.3796
94.78
229.75
45.205
845.169
85.8697
112.326
151.276
485.429
86.6157
363.893
181.662
146.748
56.9394
524.974
224.269
284.293
87.362
163.17
62.6183
76.0317
72.3625
347.038
232.313
110.434
725.017
150.1
109.472
271.729
123.674
143.03
726.435
334.33
60.2193
156.249
83.8659
148.415
306.525
818.144
58.3583
45.555
62.3947
483.738
63.5138
298.452
58.4121
62.3073
47.6573
151.539
54.9208
206.109
311.085
53.9702
60.4761
91.9967
80.2219
977.211
415.925
116.864
753.588
349.148
121.981
242.214
64.2446
56.9537
999.169
56.8415
358.147
364.358
45.5101
58.8729
101.273
96.2743
56.2592
71.0522
149.907
73.3804
78.1232
66.4993
81.1022
237
66.802
191.01
154.657
211.317
56.032
732.191
440.053
54.2235
576.437
250.782
57.1112
106.156
634.433
217.104
46.3881
180.326
461.55
200.512
508.285
57.4222
580.852
115.851
54.8913
68.8915
108.116
186.624
121.576
65.5685
240.828
50.7804
230.151
106.698
1296.38
143.218
80.618
119.097
266.319
55.1307
286.7
109.449
108.631
603.937
79.0512
79.0305
1091.99
43.3746
103.033
371.058
62.3525
279.029
593.114
150.967
70.8894
83.4182
949.651
266.514
456.134
286.117
77.684
69.8515
99.724
686.264
699.237
306.633
88.4447
48.2488
86.2327
87.123
129.899
332.34
92.5902
55.5399
62.6218
61.357
44.8522
85.1233
44.0331
46.8241
120.37
80.8786
45.8951
128.27
233.169
61.0424
47.6001
130.381
64.3946
48.1065
54.9327
100.131
94.1042
49.8627
96.9026
550.505
87.7182
48.5009
54.5456
43.7692
248.49
67.0333
53.4738
666.164
601.552
288.201
47.9049
647.124
148.093
57.9862
986.066
91.9721
967.911
90.7982
66.6484
81.5987
66.7173
45.1847
82.3152
83.6848
91.6228
114.107
89.2254
103.54
163.817
80.2293
81.4927
429.433
86.5145
1392.6
70.4868
699.616
46.2262
118.266
178.252
52.2662
68.1894
189.879
42.8273
530.896
332.006
1198.8
50.8374
626.22
59.0596
109.245
173.688
58.1187
589.794
89.2828
293.09
70.606
748.706
699.329
79.5635
43.5611
459.174
68.6128
437.726
85.1992
95.5005
69.9733
72.4953
56.68
44.9783
88.746
281.914
74.6604
176.649
83.3723
86.9653
42.1722
154.935
455.996
89.6315
371.439
119.689
67.5732
119.907
78.7784
73.865
55.6996
150.484
131.058
48.5681
85.3684
83.1731
67.5069
93.3263
400.678
377.405
80.9009
89.602
317.558
87.3658
52.4896
64.4548
48.292
165.941
165.821
203.932
104.441
69.6919
74.5446
64.777
56.744
58.0691
58.827
483.488
130.076
665.898
515.792
632.024
57.9665
68.3746
72.5819
71.7732
48.0356
325.596
81.6922
46.8
78.4672
111.566
77.0683
313.099
75.5547
156.753
114.282
97.2797
49.9632
70.5225
88.987
87.6821
68.0678
112.517
97.9054
176.461
86.7774
68.9096
78.9943
149.886
169.264
65.1999
79.9171
134.213
96.724
169.458
45.8495
56.5475
135.671
68.7695
53.8191
75.7838
44.4654
47.3066
88.6788
74.3282
390.85
71.9906
88.7171
50.1397
70.1775
635.067
79.3507
84.7514
60.0693
60.9245
87.3673
85.64
938.047
107.15
451.556
51.2178
59.9271
70.8926
42.5579
48.7064
108.273
80.9487
48.1651
45.2534
304.596
106.951
513.331
119.479
254.072
104.562
78.6553
109.305
564.953
181.589
94.831
78.5814
940.347
64.396
79.9254
86.1571
82.3925
54.4875
941.804
67.0836
90.4216
46.7676
123.418
54.9063
907.711
1005.05
67.2592
53.3334
43.8057
90.5092
92.9644
60.4219
1171.9
770.127
64.6547
137.431
461.707
64.4491
165.062
122.498
43.7357
61.9651
46.5961
74.0318
208.986
85.3945
77.711
44.9076
55.9641
74.8312
48.6131
318.37
63.4575
141.075
167.275
444.768
326.319
101.78
134.642
75.9983
133.155
118.226
43.8031
602.375
332.599
131.227
91.8596
106.052
90.0326
87.4508
271.591
42.2573
45.3153
62.1876
65.0099
135.491
74.586
359.005
387.243
45.482
131.226
43.8461
43.0606
80.2629
61.728
63.6864
54.5731
42.5422
272.219
360.59
42.8937
55.0994
232.619
420.711
48.1618
42.5847
92.1844
176.084
924.812
93.5171
392.271
349.081
532.597
392.075
71.6664
49.1892
42.8623
58.4308
957.5
56.5575
85.6803
80.011
42.4321
693.385
1174.16
1151.04
197.597
313.55
50.4452
45.2929
53.2043
84.411
752.37
609.637
430.704
536.258
406.642
54.8656
48.2511
853.679
47.8094
907.71
95.2426
904.231
79.4587
147.797
95.1171
186.085
169.166
169.717
139.067
63.0022
88.7252
71.9767
65.4894
72.1021
66.07
1265.74
800.854
91.2031
345.413
683.59
332.817
67.6371
46.1039
635.68
504.17
507.85
43.8291
792.787
49.9731
993.393
603.713
719.693
285.141
54.0327
61.592
46.6707
71.2578
86.1237
168.84
69.9067
84.8395
65.9097
94.2718
78.3856
45.162
48.1335
121.38
45.6289
51.9658
78.3423
97.0918
95.3414
87.0064
152.629
90.5327
59.9693
121.681
98.4725
90.2354
93.5021
142.571
1042.26
59.1623
336.479
69.2877
90.1288
480.769
64.9085
56.6996
47.0481
109.721
95.3381
54.5454
109.067
101.242
83.7727
46.4439
67.3024
65.548
70.9549
104.599
73.0268
98.2187
279.845
90.1721
80.4037
75.76
111.42
78.335
349.99
44.2487
68.215
105.688
311.203
270.234
88.7901
101.808
939.792
231.087
186.133
90.3375
71.9282
109.021
87.9905
53.5102
130.643
78.2923
87.4491
427.877
51.1039
164.953
128.399
109.735
106.185
201.008
78.0569
57.6092
44.0712
53.1187
99.7586
80.2603
458.126
62.7021
91.6634
127.913
103.538
885.897
56.3408
99.6217
105.422
272.621
389.777
145.426
44.2023
135.634
65.6482
45.8218
42.9469
562.735
100.026
58.3432
422.966
122.801
68.5297
148.737
759.397
1135.34
177.744
71.2913
834.294
81.2825
224.207
136.328
587.716
279.996
111.934
94.5955
524.891
91.3997
64.4376
81.7278
99.7032
54.0028
62.7083
347.528
44.6724
101.26
565.604
154.164
568.052
87.2302
441.461
49.2686
1145.29
105.892
106.079
635.702
237.063
296.706
546.667
423.939
266.603
61.9403
64.1796
422.619
55.4762
85.5184
315.682
67.2452
57.9011
78.1909
158.475
70.7974
50.1821
738.828
483.763
180.446
303.165
167.789
93.0177
81.4762
80.9767
115.105
72.0204
57.3856
86.1259
62.6676
296.797
305.876
131.714
54.2211
102.111
80.4265
124.595
105.677
97.8662
79.0639
298.935
58.5497
66.1437
302.426
131.776
582.534
201.817
99.0833
747.226
137.882
112.189
394.473
134.338
128.526
49.9682
543.354
43.1422
56.8239
50.907
85.9108
67.4094
100.88
219.173
104.867
121.083
81.1234
110.615
99.5555
42.9968
377.015
152.114
582.44
1072.91
109.044
396.589
135.1
70.0194
499.841
68.7048
61.0905
99.7039
119.279
693.624
456.207
53.6642
314.683
367.459
90.2068
1929.99
406.163
139.038
369.718
61.8494
88.4376
242.586
339.423
145.711
742.397
53.6932
52.0996
154.467
51.1304
48.1345
106.158
322.399
572.815
47.0486
138.581
43.6616
144.378
63.0963
143.79
314.826
92.5098
301.382
59.6349
63.3974
786.704
44.6088
53.8359
106.213
53.4559
123.989
256.257
46.3443
949.262
555.028
881.617
465.231
119.396
66.7486
53.4729
62.0941
85.2264
47.0438
85.9363
148.953
62.5618
70.7713
661.542
45.718
167.554
44.45
135.284
71.5079
730.853
128.099
109.346
45.2576
130.507
151.091
48.8097
60.3073
98.7042
42.8516
199.478
97.2647
104.845
54.8637
45.2101
102.168
46.575
127.621
420.55
44.6838
75.6419
49.8172
63.1981
330.444
219.295
123.954
455.067
852.316
333.122
82.3438
479.599
360.879
672.836
73.6372
207.729
327.919
339.737
302.783
859.325
54.6693
44.9138
205.021
790.871
53.4637
436.468
117.741
457.083
79.4992
66.3531
638.927
573.631
314.164
57.0357
286.227
130.807
391.306
44.6053
203.208
64.292
57.0031
94.7549
96.1117
292.094
106.207
63.6075
161.17
79.9833
268.039
388.13
43.9348
74.4569
53.9543
887.097
92.0946
131.234
203.854
137.567
71.4204
43.9116
91.1693
76.1953
473.794
43.2475
104.406
315.067
64.9688
49.8626
77.6562
74.0919
691.697
138.406
210.147
95.8477
73.8687
1002.57
632.07
60.13
143.846
60.29
48.4138
409.748
88.1911
535.388
56.5814
50.9919
95.6317
56.9064
47.1
61.1216
71.091
136.242
246.517
280.633
400.195
70.0279
72.7817
47.0595
170.869
609.195
941.11
67.7223
443.789
179.832
678.406
77.0208
355.882
110.271
168.556
129.755
82.0372
259.118
76.0942
190.096
113.178
59.5431
1029.67
107.579
512.609
107.394
77.0913
109.048
150.842
68.9093
68.3414
351.681
105.62
121.878
57.668
123.143
518.561
126.972
79.2112
158.619
46.4842
63.1311
45.2677
74.6734
78.0781
147.781
70.5478
94.2491
95.4244
74.3835
76.4717
64.2445
74.1891
60.0266
390.811
49.3387
107.328
48.8684
67.7634
123.355
74.6476
54.2085
78.5891
99.6279
87.3111
126.334
352.808
47.7278
175.826
460.72
158.582
156.246
51.2873
156.802
92.1635
315.783
64.9687
44.9126
53.0371
165.822
56.0123
66.4236
875.03
218.319
367.108
44.6209
50.9915
187.839
81.1308
55.6369
135.228
49.1072
80.0295
54.134
392.767
45.4628
155.775
45.7411
44.6724
76.2529
67.269
132.5
106.083
42.879
299.025
64.8021
67.3392
89.5943
804.581
65.5068
61.7967
126.246
62.0514
57.419
122.958
60.2305
51.8044
107.57
212.112
125.268
83.2214
409.829
109.123
240.949
48.504
182.4
64.422
94.7529
232.794
49.7756
113.003
66.098
82.1142
155.501
70.9358
577.39
109.658
45.6022
521.071
131.392
1007.19
303.427
208.996
86.6758
93.8343
122.129
361.153
60.1364
444.72
92.3203
349.296
65.4831
402.671
63.9686
253.792
219.983
122.889
335.399
544.677
381.831
1130.58
536.654
422.575
462.871
467.651
325.591
43.1856
95.3579
330.164
69.3762
641.205
58.5151
502.505
624.607
118.649
99.7598
76.1079
44.0228
114.183
47.6843
250.907
131.118
83.306
187.597
84.9345
154.124
72.5711
54.2029
111.468
49.0249
218.914
47.6313
68.9146
708.744
65.5448
43.191
104.712
63.7619
787.105
292.317
73.3083
68.3076
173.372
50.3993
85.3355
49.74
51.2008
105.097
76.5079
55.7322
62.7184
309.785
88.4752
54.7131
43.787
44.1825
46.1179
204.086
72.0212
95.6927
53.8771
81.2603
98.1946
55.4614
230.48
72.1818
47.9039
59.6607
82.6081
137.209
110.987
99.0417
50.3218
119.41
84.6891
52.2187
51.4931
76.3881
84.8877
102.024
68.5295
123.156
66.0704
89.0363
115.845
300.529
768.175
1116.33
122.303
60.7017
505.345
169.792
183.529
45.2502
51.1318
43.8557
90.2966
73.031
43.6967
45.0506
45.4984
111.251
42.7248
48.2119
43.2689
59.9786
186.575
52.7995
113.768
52.4738
97.6208
241.178
60.1592
54.1124
63.3984
1077.66
878.719
99.8162
67.1177
68.6031
59.213
98.4437
474.593
63.9168
67.8726
90.4064
43.2057
95.0717
50.941
87.8538
111.774
91.6246
62.6018
203.575
262.568
64.158
2075.15
256.006
199.309
61.4949
85.1217
99.811
114.613
54.576
75.4514
301.276
45.6557
191.955
622.564
105.22
123.788
641.817
64.4179
79.8641
91.6705
42.947
117.496
410.465
91.8331
91.3143
466.673
220.842
1065.18
626.048
100.003
48.7961
140.68
68.5344
186.216
149.962
566.685
49.8488
45.7213
644.288
52.9806
193.179
77.9573
103.511
661.184
821.76
50.9937
43.5306
927.849
50.498
54.1517
66.1178
48.1859
81.1762
155.844
270.394
61.5383
579.475
104.548
51.8766
85.2576
720.686
79.8114
605.841
65.7051
61.7326
86.3136
84.675
59.8925
114.776
65.0811
565.502
115.058
118.148
525.808
122.921
53.6331
687.846
112.517
105.721
83.3502
167.001
107.854
79.1785
44.9143
264.481
73.1352
72.4951
64.5194
122.807
83.8802
58.8997
46.3857
67.1442
146.732
71.9773
66.3837
80.3892
470.989
72.7314
71.2651
69.0702
93.6607
46.6512
63.9748
63.6311
131.963
104.36
141.444
148.42
89.7597
477.636
63.4098
56.7741
450.324
410.989
492.302
89.4285
337.752
52.555
576.011
94.7581
314.693
95.6585
44.2922
114.882
199.252
93.2593
69.8359
43.5539
63.7751
420.867
64.0129
50.0495
54.0374
1460.24
317.637
44.9945
1481.03
574.787
329.314
231.478
778.403
283.217
76.1969
297.639
88.4911
93.2652
399.728
972.349
62.7181
44.7726
54.9568
489.219
45.7414
972.296
129.875
128.628
138.367
124.936
334.721
42.8235
115.163
122.725
55.8497
104.754
53.5586
120.977
2014.33
1877.81
818.565
97.7978
680.535
43.8077
49.4142
62.8325
100.499
44.3714
55.5897
43.738
74.0689
90.0847
47.2621
54.6953
76.5051
46.5847
101.198
120.747
43.7958
114.934
121.485
44.213
53.942
878.25
56.2919
841.735
601.234
125.786
132.39
83.869
122.55
68.5644
52.7722
581.632
58.7028
58.0295
47.8077
51.0857
78.5323
139.822
127.613
175.759
112.831
47.4777
563.776
61.0071
323.463
373.25
63.6797
508.119
81.112
54.1344
60.8882
57.4096
63.2476
47.3158
129.439
50.8542
341.847
220.549
358.515
57.0357
56.7817
83.4574
312.702
486.816
92.8052
146.938
64.6827
298.552
64.4105
169.174
451.918
84.5221
56.3689
91.6194
968.342
63.2938
59.2286
119.904
47.6262
136.964
125.87
133.792
84.4827
298.021
170.04
479.765
71.4444
279.707
416.579
316.091
53.7401
175.04
91.4307
102.432
53.8322
64.9212
63.3283
492.567
85.6371
99.285
267.998
82.6168
62.9033
96.9957
45.5661
143.151
48.2484
64.0756
164.528
103.563
79.3046
166.04
98.0674
93.4617
80.6699
126.045
44.9954
315.471
252.93
106.802
103.655
45.2562
300.984
60.0403
44.8144
85.2329
47.218
107.57
89.0377
50.3094
55.3179
98.5836
290.107
232.229
49.6423
816.9
45.0125
97.5289
95.5148
48.1618
773.317
148.013
668.187
49.8918
68.2034
539.793
680.512
87.7033
102.084
186.935
127.983
49.6132
99.7873
63.3967
145.557
81.7273
133.818
49.8535
135.324
100.658
106.537
61.4832
88.0696
43.6566
60.4705
586.974
383.643
106.723
103.314
100.863
86.2558
85.9392
163.074
43.9874
50.1357
59.6448
86.3248
80.8054
66.3947
111.776
52.1412
58.1861
51.9654
72.5531
58.0095
69.6209
191.563
85.4963
67.9963
990.637
78.0416
64.9524
78.3308
44.3432
82.9859
207.039
46.3027
75.6212
81.0163
491.814
64.3894
63.2742
94.6239
1472.19
95.1923
156.967
119.515
65.2595
67.6405
77.7715
62.4712
850.96
94.2401
68.3199
63.8209
43.6946
282.471
46.2149
395.674
435.037
112.119
73.1258
59.3149
116.613
88.4613
57.1672
440.11
119.189
297.929
43.4808
138.202
556.451
119.187
49.37
99.5428
54.2431
578.389
57.2016
53.9969
89.9621
43.2666
60.629
87.7755
52.1449
389.84
43.2933
375.351
46.3579
73.0877
66.7432
147.937
86.8995
126.094
113.16
563.326
110.042
118.877
75.197
44.9507
103.93
58.7442
53.2526
80.7753
76.3985
63.2645
123.235
47.0593
66.0872
47.3467
292.593
87.0844
616.246
546.125
316.689
157.133
67.869
70.3828
61.1478
193.859
90.1652
44.4512
42.6207
112.515
146.116
46.4182
71.5887
1043.94
124.827
66.5633
75.1769
552.364
844.177
59.387
554.453
548.076
200.447
372.773
162.526
542.646
72.0116
219.641
739.968
74.9952
42.666
61.8848
108.67
314.996
43.5349
44.3414
70.6229
143.54
152.978
937.399
109.049
1044.96
118.898
69.7019
84.4294
76.8997
76.2711
533.225
204.185
353.529
464.327
66.7008
381.321
1142.46
65.9691
165.487
116.388
407.98
150.57
128.753
699.891
1048.27
108.092
622.363
125.534
426.653
81.3505
44.4522
152.518
789.666
685.989
62.8071
102.12
146.911
98.7904
254.631
48.7159
72.257
959.919
379.737
361.602
62.0281
351.532
66.7046
360.422
56.1922
115.123
187.329
303.833
87.1029
121.986
287.32
105.198
904.742
71.5491
59.5752
386.917
46.6264
145.332
45.2604
54.9119
43.5507
81.5575
436.779
442.82
324.533
58.8854
63.2495
307.491
57.0365
541.789
72.423
53.5
80.6618
215.902
153.844
645.454
50.8356
72.7473
63.83
272.763
99.8496
578.872
908.953
428.332
104.579
60.865
429.786
340.812
152.323
47.1193
61.5071
42.7686
692.877
276.748
458.415
1202.36
240.714
94.7917
79.5913
775.232
410.039
63.0879
87.5374
101.801
338.247
60.7483
47.5352
88.2391
81.459
778.224
284.096
223.756
239.157
327.699
327.941
162.168
90.1201
836.049
437.839
716.68
201.17
338.08
660.7
150.208
57.5632
107.516
58.1491
59.2894
78.7215
76.8751
135.641
302.577
84.7019
178.765
182.029
146.815
113.181
191.461
113.947
102.705
128.436
759.756
1128.22
438.162
69.4948
118.348
82.5976
258.203
578.98
156.573
604.635
80.6864
493.911
430.506
175.274
47.3566
43.7369
70.1211
63.7695
702.166
95.4373
58.3229
484.716
72.4363
873.95
457.621
107.925
459.557
63.5777
45.7671
46.3172
43.0123
97.3171
61.4496
90.9148
130.139
73.3752
45.7195
143.307
664.497
537.614
44.0863
106.217
48.9556
62.4209
56.7424
678.946
48.6029
54.7354
52.8802
104.113
45.9534
54.3758
99.1838
56.4442
58.346
52.8944
239.727
44.1338
57.3335
134.195
410.429
309.983
63.4846
527.9
716.056
54.0496
52.6429
165.052
78.8998
319.668
73.1839
91.0866
82.3346
270.901
68.0186
91.4742
1030.67
499.498
86.0532
631.379
46.2816
46.2291
61.559
45.8383
47.3969
70.4787
53.6024
80.35
214.076
88.9813
353.495
253.106
214.223
81.2958
43.5559
570.41
130.765
83.2086
547.088
101.703
687.935
62.2757
424.591
44.57
182.605
86.5552
225.382
47.1099
85.6114
77.3755
645.437
49.0445
43.191
188.271
81.2743
135.93
60.8208
72.9471
91.5375
47.4366
141.646
48.5216
63.6433
147.145
93.9952
315.731
68.72
45.5999
61.2721
45.0025
51.9438
297.379
43.1094
95.9455
43.5919
220.145
115.24
50.0106
111.315
111.771
56.7528
71.873
76.0964
128.552
148.797
51.3061
48.3802
91.0324
67.3682
284.259
618.898
508.904
60.2232
45.4272
58.3374
65.2277
89.9739
927.921
237.527
63.4975
53.0619
77.9476
46.4846
48.3515
76.8026
153.632
198.496
512.795
369.029
56.8853
77.4444
73.7355
43.2877
223.011
72.4528
114.901
113.059
49.5896
992.117
77.0875
57.8336
70.6178
72.9815
159.188
623.246
44.9206
469.667
54.5147
737.857
124.092
531.831
70.0356
44.0454
60.4835
104.677
48.829
48.5085
124.99
44.713
44.0512
54.6532
60.907
237.861
53.0482
757.249
70.8349
60.1812
156.999
171.477
48.3931
410.861
964.053
746.656
504.936
439.364
55.2638
380.167
290.574
73.0726
57.2922
53.1431
668.009
90.4377
95.8873
48.5457
78.3262
298.053
769.811
160.504
86.1936
45.5572
65.6057
225.322
45.7502
56.0019
612.286
451.51
245.559
772.831
74.3896
46.7557
69.4931
81.6272
1140.5
50.5693
45.9926
43.4222
270.476
46.828
50.1979
91.2899
100.698
44.7791
113.195
46.0047
144.474
86.2287
141.575
50.6412
238.119
87.4282
111.816
163.717
110.613
232.323
48.7094
624.673
94.2223
300.289
314.768
345.163
85.8152
126.654
206.826
66.0325
44.8414
51.0101
53.9065
86.3017
571.914
116.029
46.2456
82.6038
64.9801
48.7212
120.377
62.1864
134.325
102.482
46.7019
98.1393
48.7116
78.8629
292.914
583.562
71.6605
99.7057
80.3654
103.51
524.147
312.724
444.354
846.431
141.604
46.5315
48.1038
43.9022
104.777
831.421
79.6482
765.083
117.853
44.7789
117.211
456.184
45.9667
46.3009
55.6512
74.8404
59.9984
273.581
76.0667
91.0009
315.031
51.9341
96.7524
65.908
128.714
172.897
51.0705
686.975
81.9362
110.009
55.2251
123.561
45.9735
131.922
123.23
93.6684
91.395
80.4316
66.5383
69.835
50.1109
226.072
62.1169
50.189
115.192
197.739
229.992
157.036
98.5662
111.416
192.971
71.313
280.786
125.602
133.72
100.988
102.756
141.871
74.3799
140.879
414.178
99.2294
53.5359
48.8493
294.327
89.6622
101.512
49.6576
100.559
87.3542
48.1591
93.8645
412.212
96.15
72.0144
85.8711
668.178
76.1983
90.4016
147.726
58.4741
155.299
47.5391
772.741
85.655
78.757
82.6482
55.0321
113.446
55.039
507.913
43.5953
76.6969
660.192
59.6589
109.567
198.266
99.7551
49.058
588.255
59.3305
44.9787
102.193
130.418
60.9035
333.765
44.9587
348.634
98.6921
43.8042
70.2814
116.605
733.254
183.571
72.1378
44.221
131.386
408.414
286.284
116.53
123.457
984.948
213.821
293.629
127.648
81.6561
102.446
59.7944
518.339
1057.07
152.996
161.672
100.198
1062.47
465.508
552.172
404.228
185.308
64.4164
50.8027
152.802
73.7494
553.081
309.48
76.0183
877.635
106.796
108.755
71.5679
50.6309
105.37
87.5438
90.8366
80.7372
149.173
184.326
882.763
57.3931
119.109
643.933
618.372
182.268
176.901
61.859
623.987
47.5828
65.8894
344.84
148.443
43.8325
333.651
430.211
72.5001
123.711
48.3587
93.9416
55.6319
80.9264
173.385
81.5208
615.072
43.8571
50.4214
86.7535
478.99
172.615
123.103
163.2
326.291
121.505
78.5202
435.063
108.138
69.2634
228.336
799.122
251.453
59.6539
364.776
160.407
93.5126
65.9111
128.556
47.0483
114.936
79.9931
73.6783
64.6281
60.082
86.1685
43.7654
43.6498
49.4743
100.245
49.7761
160.566
390.861
737.313
95.7051
87.0096
59.4409
49.0226
102.922
648.845
51.9631
143.013
71.7932
230.89
67.473
133.266
225.375
428.418
47.7879
57.3698
276.039
53.0072
70.2431
133.584
94.0847
400.726
87.0336
253.461
467.259
215.488
645.987
197.046
379.841
95.4908
159.452
146.999
53.7307
485.536
135.91
84.8411
173.512
99.7106
90.74
43.8668
52.2816
49.648
45.0989
87.7675
344.174
43.0034
953.01
110.94
348.08
114.33
376.363
1133.7
54.7732
250.788
838.709
146.986
347.379
77.0143
69.8208
774.81
1005.05
287.275
169.009
52.2622
451.441
103.558
624.344
53.1689
53.7623
242.974
1022.66
60.8864
83.8082
50.9645
237.294
531.425
47.869
467.624
202.25
540.657
721.309
49.623
340.004
74.2765
680.663
326.463
200.027
411.944
278.091
519.52
343.375
230.24
82.3922
78.262
74.7643
48.9095
53.7754
1414.93
74.0117
110.153
78.6421
82.3213
135.295
1156.89
147.825
230.219
296.969
153.299
269.019
125.118
44.3193
79.0921
1043.31
639.16
316.377
193.76
248.007
88.2924
486.945
61.6726
258.023
332.719
57.9413
547.418
93.1176
300.225
315.178
166.796
239.598
243.112
154.335
50.491
136.058
60.992
552.866
72.6574
196.679
83.3819
265.49
55.2525
67.1527
330.113
120.681
291.107
44.9025
1361.23
46.1398
59.2592
57.3977
54.857
96.8579
520.62
175.785
97.5989
661.736
74.3775
49.3977
57.1664
876.309
83.0268
98.6458
851.561
359.571
911.81
550.371
170.608
233.532
157.47
185.906
738.756
65.7357
445.955
136.619
66.3475
180.398
64.7061
152.313
76.1415
635.997
460.811
565.463
364.98
278.96
312.096
52.739