/*--------------------------------*- C++ -*----------------------------------*\
| =========                 |                                                 |
| \\      /  F ield         | OpenFOAM: The Open Source CFD Toolbox           |
|  \\    /   O peration     | Version:  2506                                  |
|   \\  /    A nd           | Website:  www.openfoam.com                      |
|    \\/     M anipulation  |                                                 |
\*---------------------------------------------------------------------------*/
FoamFile
{
    version     2.0;
    format      ascii;
    arch        "LSB;label=32;scalar=64";
    class       volScalarField;
    location    "0.0657856";
    object      p;
}
// * * * * * * * * * * * * * * * * * * * * * * * * * * * * * * * * * * * * * //

dimensions      [0 2 -2 0 0 0 0];

internalField   nonuniform List<scalar> 
47425
(
1.03921
1.28418
0.00335925
-6.84523
-23.447
0.0643089
-21.3105
0.0501823
12.5142
-39.4962
0.0088028
12.9841
-16.6542
-0.00777935
-2.7273
11.6054
0.0227222
23.4573
-117.633
-39.5867
1.95826
15.1347
-0.0271469
1.02372
13.8936
1.00367
0.102175
-48.3075
0.00989949
0.185325
15.0378
11.8572
13.1678
0.401794
-0.0278099
0.0165032
15.848
12.9399
6.14939
1.16483
1.41955
-1.92325
2.20409
12.8575
-40.8667
1.15778
0.152758
12.7505
1.06325
0.538701
43.6452
-0.626071
0.208262
-34.8783
0.938228
7.97748
1.10457
0.0116203
-10.5941
0.0623138
-36.6443
-35.5645
-61.9829
20.2944
12.3638
2.35673
13.249
-2.99315
-47.7801
22.3932
2.98115
0.797946
0.402255
1.90674
-52.5142
12.1922
-60.7046
0.201127
-75.9901
-23.4835
-54.5207
9.83361
20.2353
12.079
1.95116
0.942495
0.281355
1.35375
-5.51588
-29.289
14.3291
1.36548
0.510348
0.902555
0.961165
1.05352
0.446497
0.951926
1.16838
11.0261
11.9521
20.0367
8.70558
45.0297
8.7145
0.0802604
1.39161
1.04373
1.76791
13.224
-35.6504
12.8514
-0.362467
0.872163
-1.60572
33.364
-1.20454
44.696
7.41927
-4.21009
0.913042
13.1907
12.721
-10.2454
10.6732
-1.65888
0.958493
12.255
1.02505
0.602616
21.1923
0.167248
54.104
7.4975
-1.10518
-13.119
1.96122
-1.6129
10.7
-1.4014
13.2324
-5.03632
5.41679
-1.33914
10.6732
12.3137
-22.1075
12.4864
5.41963
13.1163
-0.768251
35.604
12.5558
-10.311
20.6775
1.17282
0.0250084
-127.818
1.01567
0.328135
-3.03532
1.01349
0.708828
10.3512
-53.5632
-94.7856
12.5439
-52.9335
0.768916
-49.741
-53.3911
0.540351
12.3078
17.8411
1.02951
12.88
25.7001
0.0522007
0.0593653
0.364522
19.1423
1.22577
0.0753674
0.0819699
0.229333
11.9435
9.76258
48.8921
0.402287
1.19678
13.0753
0.470607
-12.9099
13.2986
0.367
-2.45971
13.2823
0.90796
-3.17626
1.06955
0.314321
0.501339
1.95426
-2.1291
8.14866
1.31181
0.0229002
-1.67458
11.821
12.2018
1.01974
-2.63702
12.2719
0.984061
0.597755
-3.58996
1.21683
-27.0734
20.7752
13.0755
-25.8853
-4.82828
3.1671
0.983584
1.63584
-23.7155
0.475355
-3.34447
-5.47054
-10.0418
1.63074
0.164187
0.602022
12.9092
0.13808
11.9729
-28.7398
0.577927
-25.9347
0.150765
0.138579
0.41876
0.560216
-7.15059
7.6053
12.2019
1.02682
12.0993
0.817479
0.0280136
1.07854
-21.6373
0.0567256
13.259
0.252231
0.205545
14.4364
0.335695
6.94988
12.1334
0.256521
12.7902
9.31022
9.20855
-12.1532
0.748755
0.0556645
-12.0541
0.256275
9.29434
9.84193
-26.0422
-28.6012
9.77633
-23.6041
9.91371
-24.7653
32.9052
-27.0018
31.4386
-33.8233
1.25184
-39.0785
0.66979
0.668713
-4.16874
0.633904
-0.00294158
1.53297
-1.41374
54.4612
19.2019
12.3867
0.0226448
0.113978
11.225
-5.67321
10.0658
12.6124
-10.49
1.19941
0.904882
0.21509
0.174268
-50.3088
-64.0336
33.9825
0.432262
0.891545
10.868
10.1708
46.4804
-0.00417629
0.0369542
-17.4806
1.087
0.514086
0.402592
0.158425
-34.8459
-16.8327
11.4866
11.1498
0.079791
0.82478
0.100771
11.3985
1.09499
0.694193
0.210031
-7.00944
-57.3191
4.36709
0.0944204
13.1143
0.0686685
-56.3696
12.8224
0.733827
0.80858
11.4441
11.2053
1.21638
13.0722
0.63362
0.0140125
0.138712
15.5157
-0.0487642
0.15145
11.7113
6.92944
11.8367
12.695
12.1672
-2.90025
0.434856
19.8106
12.5032
12.4832
18.7487
-4.89359
1.00423
0.147658
8.06352
0.354826
0.149928
12.5338
12.8029
9.40051
0.181108
-42.5858
0.262429
10.51
12.3261
10.3457
-3.41229
11.8352
12.1955
15.4529
12.1166
10.3026
0.914753
12.6793
1.03702
12.7111
0.0807322
9.70934
13.1634
0.0822901
5.74256
7.11671
-0.021435
6.54191
0.506179
6.32621
13.1532
0.0391782
-13.9009
0.332976
-30.8606
0.496201
-36.3242
0.20429
2.08007
0.305291
0.257129
0.0589593
0.118745
0.220791
7.15283
-58.6593
56.7026
0.919772
6.62132
3.97555
2.44455
0.892538
0.0227167
0.533164
0.138598
0.722076
1.33628
2.38007
0.0519013
0.096006
-7.70738
-5.57272
-2.15656
15.8624
-57.1997
0.343887
26.0289
-56.4635
1.5776
-59.0565
-33.6887
0.770907
-0.561562
0.436393
-3.5972
-61.0412
0.988687
0.845923
0.540237
-4.15859
-1.84421
1.0277
1.17381
-26.0544
-58.7238
-27.7984
12.9997
18.496
-2.89372
0.991187
0.372935
-13.5011
0.600366
12.9705
13.2375
13.2543
6.7208
13.1751
0.81065
10.378
0.186954
-1.45524
0.569036
0.521507
13.0364
13.158
12.0355
7.86855
11.1305
0.963064
-0.545517
-26.0266
12.1075
-13.8241
13.199
-1.73949
-6.48939
12.6785
0.873089
11.1106
12.5269
12.1209
9.03478
0.575276
-0.515523
11.2676
1.19485
7.05135
20.6957
0.882328
13.6684
12.029
15.1851
1.16635
0.336392
0.971051
0.16214
3.24736
0.0400828
0.163126
0.964328
1.22477
-0.706971
0.107105
0.0722017
23.4712
0.0254079
1.55795
1.32161
0.992254
0.0138616
0.17822
11.2067
7.37678
12.2878
12.2863
43.9277
0.0520191
0.0208689
12.5299
12.745
-21.0618
-24.8372
0.368709
1.32477
1.25077
-10.3531
11.8629
-27.8785
13.1657
-30.1178
26.7106
19.7588
0.0960346
-21.8599
0.240549
1.14305
0.409552
1.97336
0.162555
0.798445
-58.0944
0.266605
-0.00568861
0.325539
-19.5048
0.890795
0.0919607
-19.7763
-15.9361
0.187751
0.235991
-28.972
0.361997
-0.54853
0.145463
0.40889
0.286682
-11.3409
-11.9511
19.4515
1.57031
1.16931
0.0681262
-28.3382
18.3726
1.68495
-28.7622
0.0618938
0.247988
-29.0936
-41.1361
13.8338
-28.7444
-28.6636
0.246058
13.1118
0.114402
16.957
12.0963
0.122689
-45.3265
11.5346
0.0635163
0.716694
-17.3078
-10.6049
13.1587
6.46221
-52.8904
-26.9372
1.82916
0.618108
0.657377
2.40938
0.593927
0.533715
12.0964
8.15945
13.1537
-1.85383
12.296
-28.6412
5.63569
3.94908
-30.3995
10.8237
0.569399
7.41348
10.249
0.59825
12.5546
-2.47953
29.3276
12.3154
-0.986508
1.41733
-81.6523
9.19969
-11.9281
-42.6873
-43.7615
0.207816
1.323
-45.6199
0.0404433
3.83566
-26.3582
12.6084
-39.7779
0.227122
0.195081
12.4162
-37.0055
13.262
13.3337
0.365525
0.151256
0.890804
-0.0101242
0.777321
0.99734
0.742936
-32.821
-29.2218
2.02611
14.0404
0.263783
18.0845
11.6044
13.2441
13.2427
13.3027
13.2308
19.4759
2.942
13.1688
9.69529
-5.85219
0.131401
-62.0316
-30.0021
-0.0114881
18.5824
4.69182
0.186987
-63.6128
-0.0219491
-54.1035
0.324882
-13.7913
-14.5325
0.744065
13.5967
9.63767
26.0257
0.38832
0.618793
0.685399
-17.5152
13.0985
-17.3869
0.732202
-61.3686
-12.8062
0.656755
-15.3779
13.1936
0.976604
5.91367
0.753967
-16.6527
13.0552
11.7518
-15.9945
0.292346
0.664711
0.146612
0.820609
28.4134
26.8942
16.2423
15.3193
0.145663
0.000202383
2.16628
0.859535
-0.91437
0.165353
1.108
0.0858684
1.10623
30.4641
-11.2293
0.0594719
11.9942
1.02951
0.910242
1.19413
0.0320611
-3.34571
-24.9875
1.08332
0.22135
0.117442
1.0079
15.1575
0.0667944
0.422696
0.766254
0.765263
1.10982
18.3849
35.3459
0.913961
-28.0254
-9.80052
-34.0682
-27.9722
0.719426
-3.17694
4.62082
0.343613
42.2317
-28.7799
54.6132
-11.1098
1.18907
-19.9152
0.436933
56.8355
1.88329
0.464867
1.23634
0.188711
-11.4335
1.44426
1.04191
0.963084
-29.6372
25.5691
12.4724
12.7411
44.5944
40.8936
-16.9847
-50.312
-26.1117
46.0202
42.9342
12.6286
0.597468
18.1379
0.381033
6.57203
-28.8103
1.16925
5.74905
7.07558
0.290972
-29.6069
-29.454
0.13549
5.8707
0.718564
0.395155
7.09425
0.3235
16.2723
0.0876907
0.634598
31.7029
0.224769
0.0331175
0.15569
0.414073
0.263243
51.7173
-20.2976
0.0558219
4.9955
0.668926
15.9648
16.4201
-16.3401
0.429517
-27.7432
-17.6372
6.28282
2.43756
23.8358
-46.1062
0.0842905
0.122033
-7.54589
1.05411
12.8036
4.21989
-0.0267069
13.332
-32.5394
-18.4076
-47.3355
13.3032
26.3926
0.180148
-11.5152
17.7137
-17.0023
0.0517488
19.2342
-36.4439
-9.24633
-18.6338
-29.3062
-16.7982
0.612795
0.0942427
-13.0589
0.0963067
-18.3431
-27.1652
0.0327163
-20.9956
1.02302
1.01056
-39.2572
1.01466
0.972481
15.8824
16.0212
12.2549
-24.6571
-6.2276
1.07321
-12.3054
47.8477
-0.31159
14.2991
1.30444
-0.050962
1.04589
1.0277
-30.7453
-59.9574
-10.3769
0.26353
-18.7304
-18.5323
-28.0892
5.67547
1.08947
12.8671
13.0571
1.22026
-13.2934
16.8135
23.958
12.9213
-27.9679
-17.8545
3.00428
1.02919
0.465959
0.901832
32.9449
12.6519
-18.3672
0.318854
3.03199
12.7581
12.7419
12.6407
12.4467
12.9646
-21.1058
-3.69092
23.7635
26.8159
17.5272
7.28146
-1.63853
35.2682
0.427393
-8.65866
-0.157902
-16.7856
-9.36038
-8.97208
-0.490292
12.9689
15.4848
12.7766
0.938292
-38.0943
-31.6939
-44.3539
10.7235
-9.66941
5.75948
-22.0355
1.09106
-40.0205
0.995787
0.892869
-9.11399
9.95462
1.05662
9.92477
0.380086
5.07917
-10.4398
0.890463
-3.21213
-26.6353
-6.54351
-1.20522
17.3376
50.0167
-55.5657
40.3856
-28.3061
-60.1361
0.235954
0.961757
23.8242
0.494227
51.8845
0.524901
0.383569
-59.8538
15.0458
2.3212
0.294209
12.5481
22.1357
11.0707
0.900153
13.4712
-20.1106
9.92537
13.46
13.6692
13.196
0.906693
-14.7583
-7.77349
29.0609
14.5278
0.961759
10.6939
0.592517
0.601112
8.12741
-10.8191
-3.47877
-11.2398
-11.4226
10.5616
-42.4684
0.739554
0.64823
0.709785
-52.005
-53.9493
-24.3633
-28.2612
0.476395
-0.882319
-39.9964
-29.4913
-6.06538
11.3782
0.778451
0.858097
-41.9186
4.11266
-1.72334
0.911295
9.19139
0.862182
31.7275
-113.67
-16.7649
-31.5106
0.916757
54.8003
-57.3113
1.52824
11.0417
2.48385
-34.2216
11.0769
-5.69282
17.7944
-27.6058
1.48097
-29.4158
2.35572
-11.706
0.872174
7.25152
-29.4059
-28.94
10.3249
18.7962
-12.2497
-47.7462
9.69778
1.18082
-30.6261
-39.6262
11.8348
9.01014
-60.9803
-56.7766
-42.6363
10.5045
-9.23634
-21.9742
-42.7218
9.96258
25.6709
-22.104
-9.59023
-7.58645
-27.0003
-40.9022
-6.28481
7.91866
12.4071
12.5667
13.7183
10.3383
-3.48523
13.1571
13.121
13.983
0.772808
-29.312
-37.6179
10.9413
41.8897
-20.6
11.4686
-17.15
5.88774
10.3754
-9.98083
-3.07223
10.5281
9.39158
-53.8827
13.5236
-36.0059
-59.9736
-37.2099
10.0441
-12.3608
12.0434
1.5117
1.7947
-19.359
-40.658
0.839214
-29.278
-21.3493
60.1104
-23.1778
-49.8003
-29.9268
0.0456237
1.13068
-43.9721
-0.00277963
14.8347
0.111133
-46.4585
-41.4664
0.0227627
0.300335
-34.9811
-14.1705
-44.4962
45.3287
0.430476
-5.99616
-50.5335
-0.313858
22.6186
-31.7774
14.9733
-62.8612
-19.9035
11.0892
0.346092
0.397669
0.656474
0.433966
0.934318
-0.351647
0.417446
7.43583
34.3984
15.0844
24.9577
-21.5532
-12.3993
28.6328
-4.00017
4.38872
-12.4837
13.255
-71.9194
0.829503
0.812845
0.947789
-39.3314
0.846077
-63.8665
0.921378
6.6072
7.37185
-58.8135
50.7688
-29.7288
-24.9914
34.4226
-4.76749
12.6393
-9.84378
-26.2576
-26.8968
-28.8302
43.8137
12.4956
-19.0102
-31.4557
-6.52712
-6.46744
-39.7697
-30.7158
2.5477
-15.8094
12.3667
12.6463
-25.332
-49.9683
-1.62842
10.1092
12.5267
-57.8792
12.6742
-12.5811
-13.4127
12.6565
12.9115
-22.3832
3.53193
50.2929
-20.5727
3.78961
29.8116
26.4547
9.88116
-90.5832
-42.3856
-16.5527
-118.601
61.5235
12.9783
-22.5967
12.9817
23.5701
-64.0115
2.67381
-60.444
-33.8936
-3.63558
20.9486
-7.77255
12.8292
12.8805
15.318
-22.4124
3.98392
0.147716
26.2508
0.31292
-9.0296
13.3172
-14.1987
-1.2493
-23.6722
15.9594
-62.0868
-43.3975
5.59303
-38.4312
-28.9916
0.162531
48.7847
-39.0765
-4.71407
29.6168
-11.1214
-17.2097
-24.7861
-32.7666
7.48611
-46.3498
-22.8251
5.99012
-2.69558
0.522268
-25.0601
-4.80253
24.9547
-15.4419
1.03052
24.997
0.712052
-61.3594
0.24318
0.244253
-7.96075
-24.4133
21.2405
-6.89057
-13.891
-8.72781
-62.1508
0.134401
-14.2077
-65.9466
0.98318
-9.52753
57.7538
-7.53476
-28.7839
-55.8359
0.231692
10.5481
-0.0318137
-129.88
-29.6542
-28.8405
-29.2888
19.3037
-6.56026
-1.64898
-41.5263
-54.0529
-15.293
0.475574
12.702
1.28335
0.510296
2.36277
53.5805
13.1107
12.4098
-8.91437
0.56974
15.8096
13.2725
22.157
12.8558
0.498096
22.4804
13.6853
10.4967
-17.148
1.48822
12.0886
9.99548
-11.4575
12.22
0.528052
1.17426
10.7109
12.9364
12.9815
-59.5887
12.1961
17.724
1.04055
0.273056
-27.1856
13.8854
13.3808
-56.4722
-53.0965
59.1047
14.7495
-58.3361
23.0418
1.44952
-53.4374
9.27173
-55.9876
0.960062
0.994933
12.7285
18.9243
10.8609
1.00844
0.900787
1.36183
6.30401
9.03619
0.883672
-19.9812
0.855896
-13.5193
57.9695
12.2094
-47.0227
-12.9925
-73.7357
1.0152
10.9538
0.141998
13.6118
1.25321
12.2784
1.25725
-43.9988
-25.5174
-39.5873
-4.27889
-10.4131
1.32693
2.26808
-33.4485
1.59191
-54.3939
-1.50238
-48.8715
1.68979
-60.6418
-89.989
0.338325
0.101199
-39.27
0.256721
-39.6607
11.9578
1.2955
0.946672
0.572407
-0.646264
-1.11158
-13.2951
-32.1524
-8.10057
11.987
1.26145
12.0558
0.855268
11.9462
-40.6179
9.77867
-38.2174
1.23315
1.33743
9.50197
0.561403
9.75376
9.01488
0.201183
1.14601
12.8056
1.05377
-4.07888
1.06372
1.06911
-28.7981
-36.6449
-2.89573
0.632485
-26.3948
0.905959
0.609731
0.473246
0.449824
0.112636
0.991112
12.1459
11.8633
0.971771
0.761131
41.4236
1.08701
1.01577
1.31866
-48.8669
0.511844
-55.5514
-39.9486
-49.573
9.12519
0.273579
0.625795
0.146829
1.03525
-45.8353
-12.4606
0.854945
0.856098
0.617716
0.648132
-27.8522
0.643636
-0.0214366
-17.2179
0.704795
0.515654
0.322467
0.508471
0.271342
0.378723
0.563973
-12.5963
-17.3463
-0.0156158
12.038
-3.38723
-10.8086
-9.50553
0.656215
1.00606
-12.3703
1.17811
0.110262
1.4258
0.951824
-11.6491
0.0284824
1.35689
0.692855
0.633949
1.48866
-6.78904
0.0270225
-46.6319
0.695565
-16.9404
0.909913
0.014818
-48.8114
0.0356864
0.263563
0.0423358
0.828685
0.862885
0.267182
50.3596
0.529299
-36.4477
0.868929
0.262008
1.54537
0.807063
0.581527
0.591631
0.488896
0.80782
0.27029
-15.8301
-11.1347
-40.4355
10.5121
-14.1621
0.614793
1.04743
0.513595
-30.7759
0.186092
0.230818
0.156455
-58.1048
0.112575
1.07142
-0.000697486
0.255007
1.49088
-147.948
0.103638
1.371
12.1646
-0.00491533
-7.88337
28.9408
25.1684
0.0321438
7.12611
0.130461
1.00767
0.554059
0.23513
-56.7337
-53.729
0.0554719
0.926345
-46.2143
-0.0816488
-7.56019
-23.641
0.0771511
0.905482
4.96672
-0.045196
-8.8566
0.0469724
0.93299
19.4822
2.01391
0.055503
12.1798
-25.8157
12.2272
-29.8203
-26.161
-29.5921
-25.3864
0.51321
12.1538
-19.4175
12.2986
-0.0483062
16.303
-37.4252
-27.0793
12.611
-11.3066
12.5906
0.672366
1.24441
-28.7515
0.878135
0.503449
12.427
12.4437
40.6254
43.7948
62.2968
-16.4288
27.8912
12.6262
14.6571
22.6495
12.4914
0.625341
0.185532
0.476568
-0.0761818
-28.725
-28.3873
0.674572
2.248
-3.92204
-57.3024
-2.47687
1.0193
-0.412768
-25.0399
-57.9667
0.762671
-42.7747
-7.4733
-31.7425
-43.3321
-14.4453
0.262642
0.703167
13.1037
-59.427
0.23724
13.2084
0.583434
0.176035
-52.9417
-52.4526
-55.7535
0.0106346
-37.3659
16.0887
9.65274
1.40981
-16.8074
-59.2815
-58.1962
-27.9788
59.9109
-28.3062
33.7099
12.0808
-43.518
12.7538
-62.2431
12.144
-58.0903
12.0389
-27.9846
2.72386
-23.1162
12.6376
12.5674
1.87571
12.4256
12.305
33.3067
2.51354
12.5427
12.3173
-70.9064
-46.3898
-15.7022
-26.0715
-47.6993
-25.8994
1.12509
14.719
-39.974
-31.3535
-38.6156
13.6713
-54.4201
5.81963
-55.4843
-58.6053
-39.832
-20.2989
14.9464
2.99319
9.19974
12.4758
1.81973
-33.0177
-1.86533
-0.272318
1.64856
0.153952
0.144796
1.22536
0.355665
-26.9476
0.290519
0.13322
0.537631
1.32329
-21.9684
1.13579
0.0606893
0.212693
1.70365
-12.8969
-8.72113
0.661711
13.0528
-32.2837
-57.9051
-2.64947
-48.2623
-12.8672
-3.22962
-23.4661
36.9043
9.02112
8.31887
-8.63948
-0.0195437
0.164307
-4.08144
-0.0358841
-0.0809967
-1.26385
-0.0219271
1.74162
1.82959
11.817
-6.2148
1.0186
42.4235
-0.070393
12.4181
0.129669
-0.00149172
43.0962
-47.6094
24.0193
-0.0769849
0.597523
-26.9774
-27.4672
-1.37179
1.12311
11.3135
-13.3336
0.206898
0.170126
-14.5899
12.3509
0.126918
13.0499
54.4616
0.75176
0.251469
-16.7489
-2.041
0.788207
0.724453
0.160382
12.2852
12.2778
10.7903
12.4137
12.7226
4.07661
2.99878
-5.47441
-55.09
4.85349
-7.25003
12.33
12.2287
61.48
2.96942
0.44239
0.550617
-23.1348
-39.2964
5.18705
15.991
0.335974
28.7713
-5.84395
14.8495
-35.507
47.4627
29.5725
-19.4179
4.12743
4.17931
-22.4148
-56.6668
-83.7316
0.925753
-12.1701
-58.0329
2.15884
-15.6217
-8.13282
-40.3879
-27.1091
2.39348
15.7554
-59.9357
10.3859
-8.24737
2.4368
10.6951
-1.56765
15.8786
1.54698
14.3462
9.79023
-38.5077
3.43028
57.475
-20.749
55.3573
32.1641
-74.8781
13.3173
13.3607
-61.0589
-14.3236
-1.96086
-32.1415
-26.0198
-0.858246
2.32321
1.98475
-32.7377
-3.63709
6.74708
57.8447
-9.11896
13.1386
-7.33606
-20.2415
7.58755
7.65355
-36.4152
-31.2653
-29.1025
-28.766
0.571097
-18.1415
0.767888
-18.9784
-11.4918
1.63988
0.496173
-17.0598
-5.29653
-28.6474
-28.4242
-2.27393
6.7852
0.20569
-12.9351
-23.4018
9.07923
8.78295
-17.7866
-28.1565
9.12705
-8.70033
-28.1348
1.2338
-40.1702
-0.994885
-5.32665
-49.7569
1.39099
52.2392
-9.49206
0.516711
0.541728
-0.509698
-58.6752
0.860435
0.896203
-4.38746
0.338892
11.0631
0.726767
-32.025
11.3718
36.2079
11.6263
11.5515
11.3193
0.921978
-17.2188
-8.26052
-10.3691
-56.1897
-2.19679
-43.145
-12.0834
-0.0353296
-58.9701
0.0317693
0.761228
-0.0829624
-9.2538
-57.1367
-27.06
10.9699
37.7917
-13.7346
1.42457
-35.6098
-44.1272
-11.8855
-46.4623
33.5873
12.1602
-12.711
42.4638
12.1878
-70.882
19.9015
10.9407
48.6682
34.1411
11.9713
12.3533
60.2916
-42.2576
1.11242
53.9411
7.19147
12.3175
-10.6526
12.2017
-32.2002
7.78815
59.6785
12.4068
12.5594
36.6612
10.5582
18.2586
-5.31906
-2.97429
15.3239
-30.4498
23.9426
-23.4342
-57.2563
-73.2372
-26.0319
12.6448
36.4569
14.1307
4.524
7.15097
11.8468
11.9105
0.974518
1.00601
40.5426
-44.0688
12.7241
-29.5797
1.62516
7.06172
-19.0596
-71.436
1.10597
-16.6891
13.4337
5.81134
0.880353
10.3538
-8.94269
1.15472
1.19977
-26.1913
2.40696
0.877206
-7.94656
10.5074
0.808952
22.2017
0.806417
-20.1815
27.5778
1.81007
15.7715
36.8965
-27.2043
56.7995
41.3737
-32.2596
-64.2786
-27.4804
-28.2399
-27.2831
-27.3866
-29.2187
-24.5213
-35.2208
-27.6829
58.8026
-2.91603
-51.4355
11.3019
-0.506136
-39.4988
-52.4446
-4.95784
-28.5971
-17.4527
-27.5498
-15.5222
41.5655
-46.7082
-40.2309
-27.0655
23.903
-26.895
1.06696
-55.9145
23.0496
5.88004
1.04993
-1.86817
45.4619
9.12606
-21.4554
-8.64644
13.0207
0.963968
-7.93177
-26.7992
-32.2006
-1.96716
-5.36897
18.621
-28.7616
-8.40141
1.0619
-23.6868
46.4644
-2.62435
5.44719
1.14687
2.2957
-39.2995
10.3493
8.11065
0.38241
1.20023
4.95502
-2.85275
-3.46656
62.5783
3.12176
-17.6793
-7.08246
1.96666
-58.1272
-56.9399
9.08484
9.32474
8.49517
11.3904
-24.6046
-10.441
56.4638
-8.69217
11.1655
-17.7406
-3.78264
-5.65386
8.90349
-13.0107
8.90653
-21.4036
-27.6224
-44.1543
31.3815
-14.3071
17.753
9.17333
-57.7768
-70.8462
33.0567
-55.6485
9.66906
-62.8913
32.7772
-2.43958
18.7035
-19.5371
0.396565
0.376064
-8.07697
-14.1532
-40.8869
0.215582
8.5827
-95.9991
13.1636
-37.5369
13.0154
-1.92645
10.5248
1.35331
-0.834329
0.234443
-7.80781
8.01566
1.53341
15.6212
-0.0100969
-51.609
34.7168
11.4962
40.9239
12.4352
-0.744255
11.4253
13.2185
30.8838
-0.0757918
30.7904
1.21238
0.0143043
-21.2151
0.87823
0.31106
-15.872
-9.15063
-30.5699
-4.28124
33.1785
6.86628
27.4282
0.87079
19.1782
15.0385
0.986287
0.924785
0.432733
0.994578
56.9575
0.398058
-10.7918
-29.0866
12.5029
12.8617
14.9137
12.712
-23.5345
-34.4355
-0.99534
-4.2483
-4.22578
-15.3841
34.0247
0.201041
-61.4528
-9.31314
-35.8895
-0.117385
8.94701
-23.9676
12.5972
12.7531
-21.09
12.8504
0.902463
6.80816
-44.8783
17.6676
54.9865
0.0688472
-0.337803
34.0463
6.44608
0.798727
34.3331
8.07907
-15.0064
37.1789
-11.9966
39.0034
-48.6977
1.70219
13.246
-0.541357
-8.36941
-0.694421
0.980992
-1.30542
0.250222
13.2473
-36.15
4.73145
1.06342
-39.6723
0.55961
8.9743
12.6963
12.8255
24.8061
4.18682
0.474468
-6.26888
-0.642599
-13.287
12.4938
1.15219
-21.8011
59.5184
-21.2484
0.70971
58.0847
12.7296
-55.4381
54.028
-2.76437
5.34512
35.6155
12.8598
-27.7431
38.4076
-27.9647
-6.41973
-27.7594
-14.7587
-38.5651
33.6604
-6.76163
60.4063
0.866265
-27.898
-27.6893
-60.4037
-53.4058
-36.6895
-61.2007
-41.6278
-31.5888
56.9763
9.86154
10.6228
49.8577
23.7769
-48.0707
7.1788
-50.3889
44.2824
1.05103
11.005
0.0595148
1.05645
0.864896
0.816513
58.4559
0.866448
0.879371
10.9498
1.032
0.956693
11.1465
-5.99477
0.961602
-7.72897
0.916128
7.26745
26.2362
-48.4352
-0.0808734
1.98752
-6.66525
-0.0796108
-40.7771
-25.1232
-23.4817
-0.0583022
38.0963
13.9257
-2.34595
-5.32029
7.913
4.25194
1.01912
11.9263
11.379
-27.3202
0.988128
18.8794
-3.09941
2.87597
11.9961
-0.836743
8.21424
11.9617
11.7595
-13.7918
11.5033
8.80262
51.8448
24.8615
13.2633
22.3368
11.1448
-1.30005
11.5991
1.12822
-3.67503
1.06514
5.44373
-0.0327996
23.2988
11.146
-17.3435
22.7752
0.207197
9.99121
27.7808
-14.5912
33.6142
-26.5822
-53.1779
-41.7637
-0.0350157
0.0222106
-26.1154
35.3965
-9.82251
-2.23453
9.16679
1.67903
0.276829
0.059629
9.74739
13.091
29.2224
8.98826
1.52016
11.9398
11.6894
0.0568488
-36.3345
35.208
-0.0735152
7.94352
-12.353
42.137
13.0308
10.4231
-10.1997
-48.4415
-54.2884
12.1736
12.1087
-4.36158
-8.41705
-9.38443
-30.1891
31.9122
1.19875
0.687222
-1.18113
0.521468
19.0466
-17.6538
0.481026
0.378071
30.1165
0.413605
-8.47611
26.0664
-35.4966
-25.9002
0.60889
-11.3363
13.9472
0.0154988
0.729028
12.628
9.39137
-2.8648
20.7409
3.94807
-47.5777
0.821154
0.718043
-35.4717
-3.73533
13.7635
0.713394
8.05201
12.2408
59.8396
0.724164
-10.8255
-38.4269
-40.4903
-92.9366
-61.0576
0.748852
16.5096
46.3165
-0.0168455
7.51167
9.61287
-40.9836
13.3565
6.40286
-39.9626
13.1644
23.6203
-17.3121
9.46442
-40.1076
-59.7561
14.7766
18.8454
-45.779
15.0811
11.0291
2.69956
14.4157
12.6118
1.25794
-35.7366
-6.75339
6.18105
14.1749
11.7153
13.0002
1.36737
0.0472053
34.2526
0.058537
-8.68121
0.307278
36.2666
12.7437
-12.4969
4.72261
57.4886
-24.3342
-29.4563
-43.6579
3.26052
-5.55919
-55.0575
-19.1865
14.4361
-15.7701
-7.33162
0.0204224
-9.5429
12.0292
5.04729
2.94987
0.127353
0.312755
-19.6288
-4.95804
-11.8053
0.981455
0.186411
0.274928
-0.103096
-6.00824
13.3058
-44.3331
13.6762
-0.241106
-0.229829
11.4451
11.4173
12.4501
1.4641
-0.191663
-9.89377
4.02066
-0.0772776
-0.468342
-27.0451
3.71164
-7.89716
-41.7739
-28.568
-31.3201
14.3534
-28.744
18.1596
-29.901
1.05057
-27.8394
0.86336
2.76928
-0.107814
-5.14051
1.0185
3.72141
-2.00123
11.9189
8.35507
13.397
-5.0139
-6.3421
-53.0782
-27.8384
23.3967
35.762
-36.5347
-27.3099
-30.6202
-55.7366
-27.518
-8.79771
-27.7592
1.25218
1.13377
-50.2291
-59.9848
-5.78188
-0.283338
11.8393
52.4869
-3.34209
-59.5112
-0.370253
4.91068
-3.26801
-0.239452
-29.6884
0.756712
0.934728
0.814131
2.26022
7.0245
0.40563
1.04987
-47.916
-49.2648
-41.6624
21.8464
-36.3979
12.7479
0.889051
14.5654
6.48119
4.28231
21.2114
12.1167
22.2311
0.964906
3.75851
5.33392
0.630433
2.09455
-12.8013
8.97116
13.5651
8.94835
42.5097
1.52548
23.4492
-57.3079
-4.96589
-47.7842
40.4437
10.6254
9.42899
6.47665
-16.355
-9.17784
12.0168
-36.4533
7.59023
8.35291
-4.6376
17.8747
9.67661
-5.35919
-16.1817
-16.2035
13.2378
-1.80786
-58.2247
-0.0992809
-45.8715
-31.8698
13.121
-60.4471
-6.88683
33.8225
-1.53275
13.0898
14.5848
17.3117
-6.5435
12.3465
-27.6643
-15.346
-27.5123
-4.62799
-8.04318
16.3745
-27.0684
-23.4377
1.60009
0.721982
15.4155
-27.4321
6.60001
-3.30555
-46.0408
0.688782
0.57249
11.7846
-56.4737
-5.67364
-2.39121
0.796164
-1.64511
11.4438
11.1121
-1.11187
11.4998
-25.4089
11.4904
-60.8535
11.776
-32.3291
-30.8831
-7.54678
11.1052
-8.48616
1.22251
11.114
-2.52385
0.277093
-8.45715
51.6189
0.145939
33.8936
-9.40361
0.0923822
-3.36211
0.246805
12.66
11.3017
12.4356
-9.18202
0.146611
12.0051
-1.01561
0.0661927
0.738454
-24.9461
1.64571
0.331109
12.7538
-28.4465
-30.6068
0.145282
-4.77909
0.704007
-30.1297
0.452709
0.343972
0.744223
0.295762
0.904344
0.791889
0.0329962
0.674771
11.3989
-24.1712
-17.8183
12.7405
44.7289
15.9929
12.4929
-0.0508597
13.1886
37.0093
0.0763263
32.8651
0.494951
0.202785
-1.17942
24.6482
0.861103
0.089135
54.6069
13.268
27.6761
-9.95218
-13.925
0.186787
-3.56162
-0.0197007
0.956252
2.06232
0.622272
49.3326
1.00558
0.594113
0.616295
11.9787
-41.7211
-23.0002
-4.67315
3.11372
0.553181
0.483957
15.1823
-30.2868
25.5728
16.5453
3.00458
0.484925
42.0786
-14.2117
39.9067
31.7695
11.9393
12.6012
0.35048
-6.01964
1.56604
-14.1241
-12.692
12.6021
-54.3266
0.945307
1.10012
0.93688
10.9224
1.00856
47.4145
-4.45235
45.4912
1.05813
-59.5588
-9.77865
-14.264
0.893923
-44.9466
0.96392
27.874
12.1904
31.7584
1.26826
-17.9738
4.18256
-47.0284
30.0192
12.1412
11.7463
-0.895528
-24.8425
11.7164
-62.4157
-31.5121
12.2021
33.4063
12.0652
-22.7862
42.9883
6.94309
-5.82043
42.8018
37.0378
1.2638
2.86252
-58.3202
42.7615
9.87129
39.2983
-5.22717
-56.3649
29.3289
-2.48832
-0.0455823
0.296188
-0.0259775
0.608742
13.9308
-37.8348
-0.406698
-35.7327
16.3398
38.0315
-11.2858
36.2419
-0.0373338
-0.0451398
-14.4632
57.0293
-18.8305
47.238
16.2504
4.22994
24.302
4.33025
16.7337
0.0483595
-0.0400386
0.011756
-0.0151339
8.86401
-15.1129
13.2922
-32.5184
2.79191
-40.5424
9.4902
-22.6327
44.1777
-3.08735
-2.23585
0.179154
37.8701
0.0609415
22.7359
-1.91961
8.7491
-9.08048
0.291967
31.4109
35.4847
-14.4016
0.134564
0.19716
-42.9172
-62.1166
-8.0805
51.2557
26.8029
54.5167
57.9195
43.6061
-40.4219
-1.49621
43.3464
-44.0978
-0.013894
5.43983
0.0536607
-28.3652
-16.1803
-1.50371
1.57101
-9.00446
-0.00337025
11.5042
-36.8044
41.4403
-45.0329
11.4501
-1.95066
9.98233
1.29317
-6.15096
-62.765
1.48518
-36.4703
-15.6097
11.8146
-62.1799
-50.502
11.826
-12.1928
-13.7576
21.9941
11.8642
-13.9857
26.208
-58.9067
-31.9367
-43.7763
39.481
-38.0967
4.87103
25.4257
4.28021
-57.1899
-47.7207
-0.205954
-0.288924
48.9194
-2.99696
-37.9899
-2.23828
-17.0508
-64.5192
-28.1633
-28.6434
1.97717
-28.8312
0.340657
-28.6833
14.3952
-22.3079
49.1462
-27.3255
20.3528
-32.0595
-26.9683
-20.6749
-45.5141
33.1742
30.9476
-36.4954
10.882
24.9041
17.051
6.09438
13.6176
-2.57021
-31.0454
-78.2623
-30.3742
15.601
19.4469
-41.035
23.4164
-30.2459
-15.8352
6.13181
5.91703
-32.5402
12.8266
-29.8658
14.1709
30.3461
32.4417
60.0347
29.2731
-29.4844
-58.8808
42.9201
12.8068
36.8223
-49.6239
-28.417
50.9562
30.4205
-3.94601
22.1125
23.6034
-44.3823
-31.2574
-51.9526
15.4006
11.1276
35.672
-57.6819
43.9374
28.5033
13.1403
36.8885
-30.2619
1.8844
2.52453
13.0911
-12.8194
-56.8643
-27.3715
45.0569
-6.27293
-21.5546
-48.0954
42.0153
46.4627
38.0673
-36.4077
-97.5993
44.76
-32.6086
-57.6351
46.1372
-1.58902
-9.83711
12.6585
0.848329
0.717579
-8.38271
43.7549
-26.7683
1.30339
1.08272
0.748806
1.29133
-0.0655008
4.33312
-33.8681
-5.48525
0.636708
-55.3225
-73.9518
-27.2131
-19.8567
-0.88031
-17.857
-30.0735
-43.5547
0.665276
-35.6778
-2.0684
-34.7156
-28.4973
42.9438
19.1015
26.5038
-0.0169024
4.59579
-71.6333
-25.5453
-9.56362
-49.5138
0.0177378
-61.1178
-43.667
-26.3223
-43.3759
-5.02166
16.2187
12.0753
15.406
11.3082
42.9544
0.0868609
-0.0264998
0.132421
14.9759
-10.7059
-53.0319
-55.0602
16.4743
37.2351
24.6418
29.3649
-0.191003
-53.6066
-5.48191
12.6292
4.05093
-0.862229
19.2129
7.44739
-14.8054
14.959
-11.0726
-9.39428
-7.41867
17.6847
36.2587
-31.9151
52.506
-26.9801
19.2653
-63.2197
-49.1334
-10.1407
15.271
33.6394
-9.29169
-37.1519
7.43058
14.6912
-18.3544
-27.8004
15.9895
46.8324
58.7811
-44.9034
-0.707689
-58.6234
14.8193
1.21617
-9.75046
11.2018
7.49764
-16.0639
3.62243
8.26328
-43.071
-9.16959
-26.9731
-15.5509
-27.9841
0.126052
12.3897
-63.053
-17.7807
0.0205914
59.9212
13.0371
45.6202
11.7062
-21.0404
17.1825
0.174938
33.5351
55.2026
15.7024
33.6481
-0.0750749
-47.1782
12.8883
12.7132
-4.73552
6.07748
-37.689
-4.71299
-8.71205
13.0467
3.9534
-22.9826
5.27238
9.8624
-7.24044
-13.1575
-27.2476
-0.0420351
14.2691
-0.00265436
14.6569
-0.0267792
-20.7557
12.7456
-23.8227
12.116
-29.794
-0.0477279
33.7849
-8.98081
35.0605
-0.0118573
8.74701
-0.0132368
-0.0237324
-4.52798
7.75386
17.2788
33.4833
30.5108
-29.1216
-53.6556
41.2954
23.9879
21.6751
4.95434
0.0101155
0.179391
-75.9323
42.8373
18.3569
14.2958
0.0957166
18.7393
0.149907
0.0951502
-22.3383
-24.3767
-38.8773
-34.646
6.75952
1.9947
-5.04425
12.6271
42.7607
11.0813
-16.5491
11.0019
-6.79558
-78.4143
-16.1543
0.329011
3.61782
-9.74015
-6.84322
-36.5911
13.0528
-35.4568
23.0797
-76.5743
-32.1477
-29.2027
0.279533
21.876
2.29933
12.9538
34.7375
13.0115
-11.4632
11.0259
11.8898
8.46444
12.909
-40.8393
18.5373
3.21916
42.6148
12.3198
-23.4762
13.1042
13.0231
-29.0402
-78.3597
-30.484
-28.226
-29.0611
9.51813
58.1283
-27.7133
-3.63255
11.3791
19.1572
-29.0791
0.624213
0.584842
11.0119
-23.9289
-28.3146
-48.7151
30.6701
-2.57112
1.13007
2.42071
-28.4198
27.7754
9.83326
-56.799
-26.1383
-27.3205
59.2775
14.1322
10.6923
1.68354
14.2313
-55.3518
16.7222
11.2461
18.9638
-1.70235
17.3704
22.4188
43.861
35.5226
10.6423
-17.7133
22.0279
-10.262
0.672296
0.586175
30.985
-32.2027
-13.609
0.566091
54.7809
0.589558
-28.5004
30.416
19.6204
38.382
-27.3371
-20.4135
-28.1097
30.9256
-12.7433
-32.8653
-6.6387
11.4551
1.73911
14.0968
0.573824
13.7782
0.309386
11.4747
0.427341
-12.9413
0.317392
34.0617
2.12591
4.24105
-26.866
8.89518
1.0908
10.2659
-6.73784
-35.02
-47.9881
-21.42
4.55513
36.2042
1.1937
57.6622
-36.0109
58.0165
51.393
1.09625
4.41481
6.25481
0.964362
1.11403
-91.7927
10.0143
-27.5316
-11.0231
4.67862
0.802948
-27.6072
6.67523
6.62354
9.29463
6.69184
1.01078
-33.4486
-4.60766
0.990549
-18.4885
1.4283
0.712967
1.17401
0.923421
-9.90121
7.48579
-57.466
0.660186
0.958343
-11.978
-10.2549
22.9584
-18.8439
12.2922
12.1795
-0.053196
0.253131
-10.7327
-17.5208
9.27847
0.209383
-2.94936
10.2549
0.122333
56.2568
0.101709
1.52003
0.158725
0.00445462
-30.4252
0.0113458
-27.4403
-8.61111
52.0696
4.53973
-1.02163
-3.05364
0.35853
-7.79924
-40.0416
1.77344
0.128912
7.27248
-27.6026
0.111247
8.07507
27.6612
41.7974
-11.41
9.52482
8.89252
-43.4045
-25.2853
0.0241013
47.1394
-60.2708
-22.6841
-8.40179
48.8098
-10.1534
-11.187
31.5506
-66.9136
-3.3641
0.140399
0.0440255
-0.0371924
0.00970256
-3.30699e-05
-29.5015
17.31
-0.00232362
-54.3759
-0.608007
0.0975791
-10.4414
3.0739
14.9501
-47.3234
5.6417
15.6179
-27.4208
1.5359
15.4304
58.4482
14.822
-45.3571
40.5172
17.3259
32.3422
0.378649
42.5261
0.548548
4.98959