/*--------------------------------*- C++ -*----------------------------------*\
| =========                 |                                                 |
| \\      /  F ield         | OpenFOAM: The Open Source CFD Toolbox           |
|  \\    /   O peration     | Version:  2506                                  |
|   \\  /    A nd           | Website:  www.openfoam.com                      |
|    \\/     M anipulation  |                                                 |
\*---------------------------------------------------------------------------*/
FoamFile
{
    version     2.0;
    format      ascii;
    arch        "LSB;label=32;scalar=64";
    class       surfaceScalarField;
    location    "0.0657856";
    object      phi;
}
// * * * * * * * * * * * * * * * * * * * * * * * * * * * * * * * * * * * * * //

dimensions      [0 3 -1 0 0 0 0];

oriented        oriented;

internalField   nonuniform List<scalar> 
92401
(
0.148008
-0.0971135
-0.00694618
-0.0439483
-0.0631185
0.0604408
0.038888
-0.0362103
0.0222423
-0.0397508
0.0430161
-0.0255075
0.00657404
-0.0130929
0.0129196
-0.00640077
0.00133967
-0.000521758
-0.00590448
0.00508658
0.0194392
0.00972955
-0.025324
-0.00384472
0.00584224
-0.0048136
0.000311025
0.0323011
-0.0255813
0.0127194
0.0480787
-0.0386426
0.0324575
-0.0418936
0.000347464
-0.000762407
8.10142e-05
0.000333929
0.00469445
-0.0416256
0.0385869
0.0242035
0.0243785
-0.0871688
-0.0173427
0.0110068
-0.00018168
0.00651764
-0.0344491
-0.0400972
-0.0167533
-0.0193331
0.059523
-0.0234365
0.00216672
-0.0667424
0.0645757
-0.00247726
-0.00775279
0.00205182
0.0034714
0.00222957
-0.000964145
0.00154387
0.000225782
-0.00080551
-0.00493487
0.0108294
2.3747e-06
-0.00589694
0.0164412
-0.00578179
-0.00498851
-0.00567086
-0.040844
0.00838523
0.0370065
-0.00454773
-0.0393366
0.0109048
-0.0547523
-0.0541518
-0.00275091
0.055026
0.00187675
0.0907556
-0.089389
0.0220194
-0.023386
0.0502354
0.0601375
-0.0713691
-0.0390038
-0.0325964
0.051148
-0.0578882
-0.00273868
-0.00102496
0.00401553
-0.000251897
0.0314858
-0.0635671
-0.00051515
0.061251
-0.0602534
-0.032439
0.0314414
0.0125598
-0.0173542
0.00131489
0.00347957
-0.0359875
0.106595
0.0617741
-0.132382
-0.0846925
0.107526
0.00897292
-0.0318065
-0.131099
0.0323243
0.0296132
0.0691617
0.0148755
-0.0620779
0.0373321
0.00987026
0.0602041
0.00927876
-0.0546073
-0.0443235
0.0101533
0.00249933
0.0316708
-0.0504141
-0.0411771
0.0654842
0.026107
-0.0332345
0.0405703
-0.0138539
0.00651809
-0.020174
-0.102205
0.0655192
0.0568595
-0.0858897
0.0863484
-0.000458677
0.0348859
-0.00684635
-0.0773866
0.049347
0.00292399
0.0257281
-0.020954
-0.00769813
0.026885
-0.0503984
0.0235133
0.000168418
-1.3806e-05
-0.000113408
-4.12044e-05
0.00074685
-0.05844
0.0576932
-0.0685759
0.0429158
0.0623892
-0.0367292
0.0901256
-0.0254265
-0.012804
-0.0518951
-0.00032443
0.0705745
0.000573435
-0.0708235
-0.0477209
0.0731299
0.0398804
-0.0652895
0.000550804
0.00110981
-0.000379666
-0.00128095
-0.00218967
-0.00349252
0.000223137
0.00545905
-0.0382419
0.0839286
-0.0462381
0.000551389
0.000336616
-0.000807114
-0.000586265
0.00105676
-0.0547022
0.054234
0.000468267
0.0755817
-0.00789927
-0.0185484
-0.049134
-0.0987809
0.0913664
0.00477693
0.00263764
-0.0549928
0.0274028
0.0111077
0.0164823
-0.00290537
-0.0151018
0.00767645
0.0103307
-0.0125874
0.0259228
0.0374426
-0.050778
0.000936179
-0.000365778
-0.000233785
9.95714e-05
-6.31366e-05
0.000763546
-0.00079998
0.000610648
0.000191305
-0.000507263
-0.000294691
0.00416776
-0.00922306
0.00507725
-2.19475e-05
0.0679082
0.00506122
-0.0171991
-0.0557703
-0.0150862
-0.00472241
0.0106191
0.00918943
-0.0409752
-0.0528908
-0.0547667
0.148633
0.00334365
-0.0342516
-0.00344507
0.034353
-0.000347524
0.000548978
0.000499212
-0.000700666
0.0043833
0.00448356
-0.0280543
0.0191875
0.0188004
-0.00654838
-0.00957964
-0.00267238
0.0417078
-0.0765066
-0.0274351
0.062234
-0.029151
-0.00315982
0.0103138
0.021997
0.0122845
0.00820497
0.0130709
-0.0335604
-0.00043563
-0.000339264
2.04807e-05
0.000754414
0.0252309
-0.00973247
0.0365642
-0.000706512
0.000421942
-0.000793977
0.00107855
0.0441829
-0.0330921
-0.0682055
0.0571147
0.000477364
-0.000282755
-0.000194609
-0.00111593
3.84952e-06
0.000566669
0.000545407
0.000696248
-0.000198288
0.000364061
-0.000862021
0.022696
-0.02298
-0.062389
0.062673
0.00109857
-0.0126912
0.00284902
0.00874356
0.0430121
0.0585867
0.0185103
-0.120109
-0.113961
0.0265675
0.125949
-0.0385553
-0.00547109
-0.0445004
0.00375189
0.0462196
0.0546439
-0.0299371
0.0259782
-0.050685
0.0257886
-0.00333933
-0.152783
0.130334
0.00826977
0.0165975
-0.0285589
0.00369166
0.000689836
-0.000211221
-0.000741957
0.000263342
0.0380846
0.012428
-0.00136712
-0.0491454
-0.00257205
0.0841585
-0.0856131
0.0040266
-0.0181681
0.0496865
-0.116079
0.084561
0.0424316
0.00530574
-0.0532084
0.0425675
-0.000135901
-0.00233175
-0.029192
0.0416281
-0.0101044
0.0709093
0.0171267
-0.0315308
-0.0565051
0.130594
-0.144127
-0.0293561
0.0428892
-0.015164
-0.0455364
0.0583687
-0.082477
-0.000606256
0.0830833
0.00109601
-0.0978607
0.163146
-0.066381
-0.00253739
0.00339788
-0.000623816
-0.000236676
0.0896404
-0.148898
0.0305569
0.0287009
0.0015427
-0.000419521
0.000897364
-0.00202054
-0.0871875
0.142857
-0.104009
0.0483396
0.0307911
0.00292689
-0.0411185
0.00740047
0.0862894
-0.0152174
-0.0821663
0.0110943
0.00573638
0.0316273
-0.0525277
0.0259117
0.0271601
-0.121894
0.068822
0.0871468
0.113135
-0.0800641
-0.120218
0.00119321
-8.4363e-05
-0.00140437
0.000295523
-0.0936857
-0.0288286
0.110985
0.0115293
0.00119649
-0.00600618
0.0160597
-0.01125
-0.0140445
-0.0339402
0.0581081
-0.0101234
-0.00560471
0.0172939
-0.0145069
0.00281775
0.00039959
-0.000683155
-0.000601329
0.000884894
0.0220366
-0.026234
-0.00140729
-0.00188675
-0.00070099
0.00154654
0.0010412
-0.0577338
0.0603759
-0.00264212
-0.00258713
-0.00630838
-0.00209404
0.0109896
-0.0367611
0.0282542
-0.00553764
0.0183381
-0.0472343
-0.0557963
-0.0513173
0.0415742
0.0983411
-0.088598
-0.00762892
-0.00178609
0.00508718
0.00432784
0.0469047
0.0109956
0.00231948
-0.0602199
0.000496899
-0.00950416
0.00696943
0.00203783
-0.0399957
-0.0538556
0.0115558
0.0822955
0.0647069
-0.0388768
0.0266302
-0.0524603
-0.00967898
0.0598546
-0.0587794
0.00860373
-0.0588792
-0.0339443
0.00779316
0.0850304
0.0162178
0.0049808
-0.0329847
0.0117862
0.0619818
-0.0626363
0.000654518
0.00185624
0.00177997
-0.00155646
-0.00207974
0.0405884
-0.0437054
0.00311704
-0.0586002
-0.0355622
0.107238
-0.0130756
0.000845649
-0.00992953
0.00982188
-0.000738003
0.00281536
0.00593814
0.00271473
-0.0114682
0.00177093
0.00657421
-0.00784825
-0.0246019
-0.0579808
-0.008897
0.0914797
0.0258873
-0.00789838
0.0182792
-0.0362682
-0.0839983
0.0925531
-0.101271
0.0927164
0.0787316
-0.0511005
-0.0276311
0.00158085
-0.0346257
-0.0101533
0.0431982
0.00824471
-0.00562549
-0.00951071
0.00689148
0.0465902
-0.0703097
-0.0622012
0.0859208
0.0740245
-0.0647093
0.0293653
-0.0386806
-0.0136771
-0.0085779
0.0328187
-0.0105637
-0.0581716
-0.0867705
0.057252
0.08769
-0.0416128
0.0543422
-0.0111486
0.0976975
-0.0482789
-0.0494186
-0.00463358
0.0154357
-0.00255737
0.00101225
0.000686148
-0.000715863
-0.00098253
0.04734
-0.0157953
-0.00524591
-0.0262989
0.00366904
-0.00190437
-0.000466607
-0.00129807
0.00540329
-0.0102129
0.00875043
-0.00394078
0.0723335
-0.0423358
0.0258377
-0.0558354
0.00887204
-0.000400393
-0.00687885
-0.0015928
0.00166964
-0.000606629
-0.00106301
-0.0655815
0.065047
0.000534481
0.0120745
0.00549953
-0.0967205
0.0791464
-0.0117611
0.0143166
-0.0102895
0.00773394
-0.0728305
0.016184
0.0834469
-0.0268003
0.0184291
-0.097413
0.0755789
0.003405
-0.0526806
0.0430345
-0.00836306
0.0180092
0.00883338
-0.00182195
-0.0030051
-0.00400633
8.63761e-05
-0.000826841
0.000740465
0.0283958
0.170754
-0.245558
0.0464085
0.00031331
-5.26913e-05
-0.0248163
0.060318
-0.052786
0.0172844
-1.84464e-05
0.00524901
-0.00447451
-0.00075606
0.00010892
0.00150033
-0.00180754
-0.0709232
0.000660347
0.0702628
-0.0323759
0.113767
-0.0477417
-0.0336494
0.000519698
0.000507076
0.00949573
-0.0105225
0.000572316
0.0912854
-0.0918577
0.00240371
-0.00163528
-0.00122015
0.000451725
0.00138043
0.000700912
-0.000712544
-0.0013688
-0.036696
-0.00156241
0.0324218
0.0188024
-0.0638116
-0.0724304
-0.0162946
0.00660786
0.0821171
-0.000625841
0.00200627
-0.100355
-0.0420364
0.11288
0.0295113
0.0272117
0.170266
-0.0849276
-0.0577849
-0.0275534
-0.0182373
0.119121
-0.0434781
-0.0574059
0.0397341
0.0299313
0.038602
-0.108267
0.104697
-0.248925
0.109477
0.0347514
0.00164459
-0.00146529
-0.00138676
0.00120746
-0.0122804
-0.03545
0.0555666
-0.00783629
0.0259848
0.0403737
-0.026255
-0.0401036
-0.035358
-0.0257995
-0.0197674
0.0809249
-0.0533701
-0.0139481
0.0550378
0.00113403
-0.0120929
0.00914547
0.00181341
0.0553714
-0.0284434
-0.0508464
0.0239184
-0.0894457
0.105408
-0.0501693
0.0342073
0.0166734
-0.0233486
0.00690631
-0.000231098
0.0517853
-0.0600537
0.0636399
-0.0571344
-0.00348428
-0.013785
0.0744037
-0.00535376
-0.0131524
0.00247437
0.0160318
0.000247658
0.0586977
-0.0581256
-0.000819745
0.135184
-0.0537741
-0.00249952
-0.0789108
0.0596405
-0.00751231
-0.0487199
-0.00340821
0.0511674
-0.0216917
-0.0714265
0.0419508
-0.00996558
-0.00178726
0.0150432
-0.00329037
0.00540263
-0.00167739
-0.00478435
0.00105911
0.00258038
-0.044063
0.0406456
0.000836979
-0.000792722
-0.086229
0.00344576
0.0196363
-0.0129285
-0.06316
0.0465613
0.0165987
-0.0595493
-0.0170398
0.0109794
0.0656097
-0.10033
-0.000767406
0.103863
-0.00276612
0.00370583
0.0237011
-0.0127867
-0.0146203
-0.0713153
0.149768
-0.0659915
-0.0124608
-0.00474034
0.0133021
0.0225474
-0.0311091
-0.0519764
0.0998717
0.0390231
-0.0869184
0.0291203
0.00158726
-0.0145453
-0.0161623
-0.0362784
0.0379328
0.000925992
-0.00492547
0.0074713
-0.0101125
0.00756667
-0.000280046
-0.0045628
0.0102461
0.0359721
0.0378758
-0.0738479
0.00109275
-0.00190435
4.31196e-05
0.000768483
0.0198551
0.00832152
-0.0191129
-0.0090637
0.0224792
0.0111572
-0.00197889
-0.0316575
-0.0524358
-0.00181998
0.00699023
0.0472656
-0.000177801
-0.0438852
-0.00098349
0.000549298
0.00152694
-0.0518052
0.0369374
0.0519954
-0.0371276
-0.0449217
0.0302902
0.0179066
-0.00327513
0.00135677
-0.00353423
-0.00990881
0.0120863
-0.00964073
-0.00508411
-0.00309951
0.0178243
-0.0435965
-0.00486419
0.0121822
0.0724633
0.0396792
-0.0720878
-0.0400548
-0.0451635
-0.00032897
0.0454924
0.0861916
-0.0486808
0.0595895
0.00365989
-0.00766467
-0.0372229
0.0412277
0.0359895
0.0113365
-0.00535459
-0.0419714
-0.000479692
0.000335469
0.00101892
-0.000874701
-0.0168302
-0.0449971
0.0618273
-0.00023241
-0.00136321
-0.00413966
0.030794
-0.0229944
0.00616944
0.0278611
-0.0416952
0.0978877
-0.0906615
-0.00202454
-0.00520164
-0.021477
0.101393
-0.0185862
-0.0613298
-0.0321886
0.00681314
0.0141399
0.0112356
-0.039206
0.0359912
0.0139847
-0.01077
0.0325702
-0.0251261
0.00134311
-0.00878719
0.0191286
0.0722754
-0.122306
0.0309023
0.0762983
-0.0752735
-0.0243145
0.0232896
-0.143404
0.00209264
0.00365396
0.137658
0.0305759
0.0123729
-0.0412723
-0.0016765
0.0398668
-0.0577499
0.0203991
-0.00251607
0.00214104
-0.00122557
0.0002475
-0.00116298
-0.0146167
-0.0011294
0.0733982
-0.0416421
0.0188072
-0.0505632
-0.0118926
0.0477561
0.000411241
-0.0362747
0.00518453
0.0957151
-0.0931092
-0.00779041
0.0494618
-0.0989621
0.058014
-0.00851367
-0.0483348
-0.000372442
0.0368146
0.0150971
-0.00351162
0.00865404
-0.0202395
-0.0234219
0.0477923
-0.0133109
-0.0110595
-0.0483135
-2.1367e-05
-0.00554986
-0.122869
0.17588
-0.0474617
0.0101294
0.00977694
-0.0635832
0.0436769
0.0494787
0.00548781
-0.0448371
-0.012962
0.00674367
-0.00363128
0.00984963
-0.0570967
-0.000857086
0.0579538
0.110478
0.0444293
-0.136796
-0.0181114
-0.0093043
0.000299004
-0.00395672
0.0185499
-0.1162
-0.0225189
0.120169
0.0126662
0.0665997
-0.069489
0.00282848
-0.0558361
-0.0105756
0.000525767
0.00192016
-0.00267834
0.00204381
-0.00178744
0.000269394
-0.0507026
0.0261015
0.0737814
-0.0491803
-0.00193683
0.000974688
0.00096599
-0.0342187
-0.00772743
0.0447746
0.000289544
-0.000306214
0.000354374
-0.00090377
0.000122938
0.000426458
0.000225047
0.00210831
-0.00180777
0.00145112
0.000135855
0.000220797
0.000373835
-0.000188262
0.000750605
0.10592
0.121963
-0.0798748
0.000142656
-0.000775841
0.00100702
-0.0528651
0.0527336
0.000131532
-0.0105918
0.076075
-0.0713993
0.00591612
0.00172269
-0.019654
0.005264
0.0126673
-0.0603395
-0.00311742
-0.0172491
0.00401016
0.0475266
-0.0342876
-0.0632249
-0.00275777
0.0659827
-0.00687695
-0.0166752
-0.0127674
0.0363195
0.000332963
-0.000387323
-0.000538631
0.000592991
-0.00392767
-0.00742724
0.00910469
0.00225022
0.0549848
0.043906
-0.0175078
0.0482946
0.0895411
-0.0380542
-0.0997815
-0.0127126
-0.0442874
-0.0191572
0.0186855
-0.0541195
0.0545911
-0.0110932
0.0289432
-0.0060379
-0.0118121
-0.0150777
-0.0135006
0.0134643
0.0151141
0.0968326
-0.0948364
0.0188852
-0.0208813
0.00118974
-0.00438535
-0.000432279
0.00362789
0.00118403
-0.0666546
0.0654706
-0.0724632
0.0033762
0.0666422
0.00244479
0.0389282
0.0383369
-0.077265
0.019106
-0.0600176
0.028199
0.00201487
-0.00114703
0.00049307
-0.0013609
0.000230614
-0.000218722
0.00117561
-0.0011875
-8.58385e-05
0.000438228
-0.00101343
0.000661045
0.0638471
0.0565997
-0.0391
-0.0813468
0.00588835
-0.0869913
0.0824127
-0.00130974
-0.0137368
0.000618804
0.0265388
-0.0134208
0.053549
-0.0526832
0.0190464
-0.0199122
-0.00053031
0.00139344
-0.000697756
-0.000165376
0.0203199
0.0478918
-0.0491057
-0.0469518
-0.00172046
0.000990412
0.0015102
-0.000780147
0.00128428
0.0805197
-0.081804
-0.0499769
-0.0151441
-0.0222254
0.0873463
-0.0499954
1.85123e-05
0.0116537
0.0167582
0.0167273
-0.0451392
0.00054195
-0.00275771
0.000418701
0.00179706
-0.00176932
-0.000551494
0.00060035
-0.106081
-0.00921852
-0.0429871
0.158287
-0.00968847
0.00719503
0.137096
-0.134603
-0.0386382
0.0419178
-0.0646745
0.0613949
-0.0794936
0.0792289
0.000264692
0.00127068
-0.0499888
-0.0305429
0.0671952
0.0193037
-0.00600531
-0.0804936
0.0506462
0.0948133
-0.15705
0.0115909
0.0415722
0.0159008
0.0332055
-0.0906786
0.104043
-0.108472
0.0433572
-0.00360641
0.0132561
-0.0120313
0.00238156
-0.00153283
-0.000109823
-0.000600325
0.00224297
-0.00288696
-0.00565444
0.00172518
0.00681622
0.0607393
-0.00613446
-0.018304
-0.0363008
-0.056745
0.028216
0.028529
-0.0928245
-0.00771857
0.0120336
0.000651943
-0.000551702
-0.00163307
-0.118077
0.0265654
0.00516102
0.0863509
0.00131425
-0.0534507
-0.010228
0.0623645
0.0455406
0.0292503
-0.101482
0.0266906
0.0383629
-0.0434349
-0.0190413
0.0241133
0.0482853
-0.0600634
0.0501409
0.0314805
-0.0562131
0.0496073
-0.0248746
0.034698
-0.0360249
0.000236292
0.00109058
0.0161509
-0.142105
0.0912323
0.034722
0.0014338
-0.0617385
-0.00386703
0.052196
0.000319213
-0.107508
-0.0339035
-0.00871164
0.0068436
0.0357715
-0.0486285
0.0443888
0.0500403
-0.0458006
-0.0424303
0.0821825
-0.0397522
0.0104016
-0.101937
0.0481004
-0.0170197
0.00749201
0.0245993
-0.0150716
-0.0882718
0.0937589
0.0363027
-0.0417898
0.0586328
0.032827
-0.0827972
-0.00866261
-0.0461449
0.14152
0.00413324
-0.0995082
-0.000546112
0.00293851
0.00363837
-0.00603077
0.0536545
-0.0719678
0.0829445
-0.0646311
0.00790522
-0.039082
-0.00828142
0.0394582
-0.0433512
0.0313675
0.103241
-0.0912571
-0.0499886
-0.0264429
0.0528643
0.0235672
-0.00961348
-0.000426601
0.00620302
0.00383706
-0.0109876
0.0234688
-0.0183573
0.00587608
-2.53551e-06
0.074051
-0.0740485
0.0149035
-0.044042
-0.01949
0.0481265
-0.03425
-0.00067225
-0.0132043
0.00154475
-0.0263964
-0.020809
0.0456606
0.0345912
-0.0345281
-6.30972e-05
0.0611796
-0.0417167
0.0643093
-0.0837722
-0.0992198
0.0974388
0.0986136
3.85846e-05
-0.0108725
-0.00176582
0.0125997
0.0494946
-0.000224623
1.73451e-05
0.000217908
-1.06297e-05
-0.000468022
0.048378
-0.111563
0.0636534
-0.00858433
-0.000637479
0.00498688
0.00423493
0.0268862
0.00996057
-0.0368468
0.00121159
-0.000933863
-0.00886206
-0.0331843
-0.0373984
0.0119825
0.0572456
0.00101056
-0.0582562
0.0728442
-0.0441348
-0.0511889
0.0224796
0.00162339
-0.0252185
-0.0207284
0.0693861
0.0430314
-0.0395733
-0.00805657
0.00930675
0.133549
-0.119513
0.0366158
-0.0506517
-0.0450177
0.036488
0.0218887
-0.013359
-0.0525025
0.0524693
3.32601e-05
-0.0477773
0.0296447
0.0107414
-0.0468451
-0.0108499
0.0469535
-0.00222128
0.161121
-0.161013
0.0021129
0.107655
0.0159369
-0.0160654
0.050764
0.00858767
-0.0512223
-0.00812937
-0.0145237
0.00470175
0.0107168
-0.00089486
-0.00956638
-0.00539667
0.00471454
0.0102485
0.0659339
-0.037642
-0.0525861
0.0242942
0.029572
-0.0153929
0.0240345
-0.0382136
0.0267001
-0.0935221
0.0895366
-0.0227147
-0.00589972
0.00046242
-0.00908641
-0.0943541
0.106961
-0.0229693
0.0103626
-0.0114448
0.0480541
0.0140053
-0.0506146
-0.0041434
-0.000611093
0.00323618
0.00151831
0.0840023
-0.00470676
0.0507502
-0.130046
4.11156e-05
-0.000688076
-3.37012e-05
0.000680662
-0.067001
0.0588326
0.0741825
-0.0660142
0.00330018
0.000816941
-0.00225522
-0.0018619
-0.0777954
0.0755682
0.00222726
0.0632134
-0.0599197
-0.0032937
0.0605524
-0.000766095
-0.0597863
-0.0107121
0.123543
-0.000606801
-0.112225
0.00989562
-0.0311274
0.0328855
-0.0238088
-1.27458e-06
-0.0562111
-0.0675457
0.0115621
0.066428
-0.0104443
-0.0133167
-0.00214942
0.00015589
-0.000460601
-2.95548e-05
0.000334266
0.0012222
-9.51473e-05
-0.000264163
-0.000862887
-0.0634732
0.0078023
-0.00148353
0.0571544
0.000373355
-0.00547694
0.0019347
0.00316889
0.0122384
-0.0147072
-4.11918e-05
0.00251001
0.00821658
-0.0067411
0.0107629
0.0557382
-0.00952506
-0.0226919
-0.0235212
0.0361201
-0.00531594
-0.036359
0.00555482
9.31038e-05
0.0669053
-0.000302873
-0.0666955
0.00761508
-0.0714776
0.0191865
0.044676
-0.0432016
-0.0316957
0.0416162
0.0332812
-0.035293
0.0214807
-0.0909601
0.104772
-0.000960174
0.0152843
-0.00784121
-0.00648291
0.0490239
-0.0588411
0.0473166
-0.0374995
-0.0625926
-0.00678608
-0.00806695
0.000934854
-0.000294025
0.0043584
-0.00499923
-0.0121211
-0.00275922
0.00175745
0.0131229
-0.00819019
-0.00932994
0.010856
0.00666412
-0.000141949
-0.00223692
0.0014524
0.000926463
-0.000311249
0.000390199
-7.89493e-05
0.00176192
-0.0737291
-0.027431
0.0993982
-0.000148845
-2.82858e-05
-0.00145913
0.00163626
0.00010385
-0.000315874
-9.92255e-05
0.00244524
-0.0656702
-6.85305e-05
-8.53273e-05
0.000544057
0.000604213
0.000170958
-0.000383991
-0.00039118
-0.028227
0.0633391
0.0784199
-0.113532
-0.00920031
-0.00221714
0.00726961
0.00414784
-0.0146261
-0.00032243
0.00574819
-0.00533425
0.00550269
0.0132371
-0.0134055
-0.000407201
0.00060345
-0.000264779
-0.0663732
0.0670873
-0.000714123
0.0304126
0.0471723
-0.0600647
-0.0175203
0.0114323
-0.075404
-0.0212846
0.0852562
-0.0136003
0.00274648
0.00551959
-0.00456134
-0.00643634
-0.00260264
-0.0166126
0.0585277
0.0128906
-0.0548057
0.0691389
0.00483376
-0.0538859
-0.0200867
0.000223341
0.000417191
-0.000738029
9.7497e-05
-8.02754e-05
-0.000223076
-0.00267261
-0.0011758
-0.00136799
0.0052164
0.0650928
-0.0459293
0.0120494
-0.0312129
-0.000844978
-0.00268827
0.00139034
0.0021429
-0.0169067
0.0101259
-0.00296689
0.00974768
0.00142226
-0.101467
0.10125
-0.00120541
0.00314984
0.000792589
-0.0106141
0.00667169
0.0103228
-0.0108194
0.00156354
-0.00106687
0.00991781
0.00401601
-0.010784
0.0367766
0.0562744
-0.0279582
-0.027276
0.054804
0.0281908
-0.0557188
0.0277549
-0.0550309
-0.000755468
0.000547048
-0.033026
0.0124733
-0.0100475
0.079217
0.0234144
0.00750738
0.0696194
-0.0542432
0.0979468
-0.113323
0.00484666
0.0926405
-0.0974871
-0.00696249
-0.00719881
0.0135694
0.000591914
-0.0342918
-0.0868776
0.0275795
0.0935899
0.0218642
0.06163
-0.0242687
-0.0592255
-0.0235271
0.113242
-0.0529382
-0.0418493
0.0448978
0.0517555
-0.0558157
0.0558138
1.91269e-06
-0.03908
0.0367316
0.00234841
0.0396398
-0.0780345
0.0727138
-0.034319
0.067503
-0.0841155
-0.00993749
-0.00811969
0.0110947
0.000791885
0.000632606
-0.000526485
-0.000898006
-0.00578893
-0.0426418
-0.00738497
0.00123961
0.00148089
-0.00261349
-0.000107008
-0.0574095
0.0518766
0.0855286
-0.0799957
0.0361674
-0.0335835
-0.0025839
0.0127868
0.01816
-0.01284
-0.0181067
0.00421049
-0.000415291
0.00219292
-0.00598812
-0.0644158
-0.000687886
0.0200929
0.0450109
-0.00294358
0.00667802
0.000476053
0.0389868
-0.109389
0.104723
-0.0343204
0.0460463
0.0134119
-0.0593709
-8.73582e-05
-0.00364901
0.00697121
0.00169275
-0.00501494
0.000133634
0.0606047
-0.0607383
0.0380817
0.00651804
0.0151198
-0.0597196
0.00430194
-0.00733344
0.00261621
-0.183714
0.0281143
0.163068
-0.00746755
0.0398148
-0.0109733
-0.0288414
-0.0012604
-0.00152211
-0.0011657
0.00394822
-0.0419986
0.0459966
0.124913
-0.128911
-0.00190807
0.000688599
-0.00193785
0.00315732
0.0915207
-0.00222424
-0.0432502
0.000500495
-0.00125155
0.00204903
-0.00129797
-0.0189578
-0.116518
0.0162011
0.119274
0.0037255
0.0524136
-0.00409731
-0.0520418
0.0487161
-0.0704101
0.0605601
-0.0388662
0.0319483
-0.0365357
0.0486532
-0.0440658
0.00836045
-0.00155638
0.00568184
-0.0124859
0.00129332
-0.0443936
0.0533382
-0.0537082
-0.0361656
0.0972325
0.0177562
-0.024454
-0.0905347
0.0467586
0.0185245
-0.133939
0.0686559
-0.00185767
-0.00865181
0.00632772
0.00418176
0.0278098
-0.0498878
-0.00324597
0.0288764
-0.0266478
0.0073716
-0.00587301
4.01378e-05
-0.00153872
-0.0862574
0.00267243
-7.11689e-05
0.0716704
-0.149605
0.0780062
-0.0274526
-0.0874944
0.0411359
0.0738112
-0.07277
0.0204276
0.0031154
0.049227
-0.0432552
0.0290551
0.0103554
-0.0827314
0.0956472
-0.0129158
-0.0210325
-0.00947819
0.117824
-0.0873133
-0.00363064
-0.00383555
0.00610569
0.0013605
-0.0258025
0.0591806
0.0406464
-0.0721683
0.0280335
-0.000812009
-0.00041584
-0.00103694
0.00226479
0.0466582
-0.0491199
0.0546578
-0.0376983
-0.00716869
-0.044951
-0.123624
0.0477541
0.0758698
-0.0429207
-0.0325212
0.0276645
0.00305681
-0.00221124
0.000833628
-0.00167919
0.00287083
-0.000431957
0.000617939
-0.0864094
0.00358305
0.0828263
0.0614268
0.0127549
-0.122603
0.0484208
-0.071017
0.000457641
0.0705593
0.00134729
-0.00168261
0.00843259
-0.00809727
0.0485428
0.15644
-0.22644
0.0214565
0.00186673
-0.00233206
0.00140047
-0.000935141
-0.0916435
0.0649418
0.0265314
0.000170351
-0.000829297
-0.000253139
0.00225351
-0.00117107
-0.000620587
0.00836097
-0.00850849
0.000768104
0.00769311
0.00789996
-0.0148314
-0.000761628
0.0408287
0.0124968
0.00304484
-0.00278191
0.0016038
-0.0985259
0.105192
0.00736448
-0.0140304
0.0122431
-0.0670696
-0.0232581
0.0780846
0.00207182
-0.00472637
0.087792
-0.0851374
-0.0402827
-0.0366906
0.0863058
-0.00933241
-0.0407152
0.0245699
0.0405974
-0.0244522
0.0535772
0.0206439
-0.0721059
-0.0021152
-0.00130689
0.000171426
0.00148474
-0.000349284
-0.12358
-0.0431904
0.0395662
0.127204
0.0484203
-0.0376789
-0.0319064
-0.0376102
-0.0309685
0.100485
-0.00184702
0.0042723
0.000437201
-0.00286248
-0.0310229
-0.080382
0.0286079
0.0827971
-0.0297036
-0.0285788
0.0205842
-0.000745939
-0.00331233
-0.00164445
0.00314807
-0.00380202
0.0022984
-0.00577415
0.00558723
0.0253943
-0.0773547
-0.0853305
0.137291
-0.000526742
-0.000146629
0.000339188
0.000334184
0.0572503
-0.0603536
0.0480752
-0.0449719
-0.0150028
0.044438
-0.00775595
-0.0216792
0.0868822
-0.0862458
-0.0187665
0.0181301
0.0265418
0.0223978
-0.0635631
0.0146235
-0.127317
0.0738947
0.0183951
0.0350275
-0.00531713
0.00319671
8.69923e-05
0.00203343
-0.00812354
0.00962728
-0.000156454
-0.0134726
-0.0037248
0.0180154
-0.000818031
-0.0620203
-0.00497458
0.0142274
0.0527675
-0.00832685
0.103034
-0.00512493
-0.089582
0.00902475
-0.0473135
0.0806896
-0.0424009
-0.00149613
0.00418628
-0.00152443
-0.00116572
-0.0151841
0.000336784
-0.00210519
0.0169525
-0.106098
0.00420869
0.0132644
0.0886249
-3.93005e-05
-0.00030839
0.000554226
-0.000206536
0.0373369
0.0079962
0.0271302
-0.00501984
0.0463444
0.0527308
-0.0940553
-0.00020419
0.000438125
-0.000273236
-0.000524232
0.00218979
-0.0014878
-0.000177765
0.0173605
0.111221
-0.0479219
-0.0806595
-0.000252707
-5.56833e-05
0.00014558
-0.000398286
0.0617971
0.0169669
-0.0921457
0.0133817
-0.157167
0.0860239
0.0771982
-0.00605479
-0.0180857
0.000181691
-0.0516156
0.0695196
0.0248942
-0.0145823
0.0167521
-0.027064
-0.0664603
-0.0231142
0.0895745
-0.0780275
0.0386416
0.039386
-0.00189009
-0.000379269
0.000687911
0.00158145
-0.0379187
0.0409966
0.00775019
-0.0108281
0.0465136
-0.0544806
0.00796695
-0.0605819
0.0336928
0.0450347
-0.0181456
0.00453009
-0.00274935
-0.00161806
-0.000162669
-0.00326066
-0.00248466
0.000428188
-0.0422098
-0.0417885
0.0468766
0.0141529
0.00263422
-0.0636638
0.00213613
1.4402e-05
-0.001818
-0.000332527
0.00399714
0.00485283
0.00195318
-0.0108032
0.00709052
0.0227051
-0.0407634
0.0109678
-0.0190312
-0.0154956
-0.00924269
0.0437695
-0.0751084
-0.00975069
0.0291476
0.0557115
-0.00181886
0.0151563
-0.00830554
-0.00503193
-0.0529568
0.00059091
0.0333347
-0.000223167
0.0253282
-0.135751
0.126315
-0.0158925
0.0285814
-0.0345558
-0.0517593
-0.0271116
0.0548665
-0.000262951
0.040407
0.00357091
-0.043715
-0.0551367
-0.0599619
0.115099
-0.00321122
-0.00102372
-0.00177364
0.00600859
0.0031696
-0.00477771
0.00170594
-9.78312e-05
0.0368063
-0.00632604
-0.0281376
-0.00234266
-0.00326738
-0.00230242
0.00235857
0.00359561
-0.0108842
0.0660122
-0.0587235
0.0761145
-0.000262662
0.0273581
0.00973832
-0.0068271
-0.0302693
0.0586292
-0.000819835
-0.0578094
-0.053068
0.113687
-0.0284239
0.0596874
0.0200937
-0.0513572
-0.016629
-0.0256386
0.0177071
0.0245605
0.0030962
0.00377157
0.000855553
-0.00772332
-0.0342178
-0.037968
0.099339
-0.0271532
0.0450117
-0.0365513
-0.000506595
-0.00795387
-0.0497674
0.115876
-0.0512099
-0.0148991
-0.00135777
0.00163275
-9.43359e-05
-0.000180646
-0.000586394
0.0215023
-0.00482586
-0.01609
0.00304944
0.00375432
0.000251126
-0.00705488
-0.000285629
-4.08023e-05
1.66496e-05
0.000309782
3.86111e-05
4.20606e-06
-0.000328447
-0.00921893
0.02308
0.0703
-0.084161
0.0799764
-0.0807898
0.000813438
0.000294903
-0.000298131
3.22826e-06
-0.0127492
0.000978243
0.00230709
-0.00133463
-0.00195071
-0.00856713
-0.00595908
0.00657293
0.00795328
-0.0557575
0.0273335
0.000286459
0.00023716
-0.000792752
0.000269133
0.0335696
0.0550648
-0.0351654
-0.0534689
0.0118302
0.159315
-0.179811
0.00866537
0.0582966
0.0633
-0.0619092
0.00196134
-0.0136085
-0.00182953
0.0134767
-0.033404
-0.0301128
0.0635168
0.0311186
-0.0645226
-0.0543541
-0.0449082
-0.06548
0.164742
0.049822
-0.0556471
0.00582507
-0.0727583
0.134616
-0.0713826
0.0329677
-0.0300488
0.085963
-0.00356279
-0.0689945
-0.0134058
0.0698071
-0.0702304
0.0115385
-0.0111152
0.000113352
-0.00623754
0.00722066
-0.00109647
0.000876061
-0.00470302
0.00677113
-0.00294417
-0.00023431
0.000212159
0.000666025
-0.000643875
0.0222627
0.0232858
-0.0338433
-0.0117051
-0.00539051
-0.00495945
0.00623064
0.00411933
-0.0108468
0.0321178
-0.0428925
0.0216215
0.0011299
-0.00859526
0.0107416
-0.00327626
0.0485324
-0.00415233
-0.04438
0.0380484
0.0357365
-0.126564
0.0527795
-0.0978993
0.0599827
0.075965
0.0329811
-0.0997618
-0.0469227
0.107885
-0.0370731
-0.0238894
0.00164971
0.00917676
-0.0124423
0.00161582
0.0274345
-0.00243211
-0.0250024
-0.0305182
0.0435783
-0.00384722
0.0202448
-0.0314753
0.000964892
-0.000191641
0.00109754
-0.00187079
0.0117441
-0.038392
-0.000680935
0.000183762
0.000385246
0.000111927
0.00278788
-0.000396702
0.0010663
-0.00345748
-0.000777155
-0.00247517
-0.0782814
-0.0127518
0.00149298
-0.0119097
0.0231686
0.0201019
-0.0904247
0.020795
0.0495278
-0.00338585
0.0580668
-0.0818207
0.0271398
0.000793507
-0.000498173
0.000444382
-0.000739716
0.0792318
0.0125748
0.00229298
-0.0940996
-0.000460472
-0.000796299
0.00142601
-0.000169236
0.00493836
-0.00087159
-0.0691031
0.0650363
0.00668009
-0.00111694
-0.00500188
-0.00056126
0.00646518
0.00461484
-0.00366131
-0.0074187
-0.110387
0.096393
-0.0875267
0.101521
-0.0541789
0.109407
-0.0552277
0.00227855
-0.0437065
0.00872252
0.0327055
0.00371708
-0.00352624
0.000695663
-0.000886508
0.0493549
-0.00283427
0.00123545
-0.12955
0.00250218
0.07398
-0.0340081
6.79055e-05
0.00105538
0.0321964
-0.0258378
-0.00741398
0.078182
-0.0307733
0.0342084
0.00413531
-0.00508958
0.000113485
0.000840781
0.0342125
0.0237049
-0.0756313
0.0177139
5.06405e-07
-4.40871e-05
-1.99501e-05
6.35307e-05
-0.000465292
0.0015063
0.00542417
0.000204394
-0.00804564
0.00652356
0.00565739
0.0746253
0.040746
-0.0370558
-0.0783155
-0.130999
0.141579
-0.00915731
-0.00142214
0.0315441
-0.0326386
0.00109445
-0.0366767
-1.6528e-05
0.000349356
-0.00320622
-0.00223271
0.0146676
0.206754
-0.158931
-0.0624905
0.0293382
-0.0610538
-0.0180085
0.0497241
-0.00308145
0.0390096
-0.00103722
-0.0852803
0.0473079
-0.0231429
0.0101712
-0.038062
0.0476409
0.0462558
-0.0558347
-0.0667823
0.0892306
-0.151679
0.129231
-0.000199054
4.50209e-05
-0.00145348
0.00160751
0.000182542
0.00231481
-0.000626141
-0.00187121
0.0433759
-0.0145829
0.0381076
-0.0669006
-0.00356419
0.00033146
0.00344196
-0.000209225
-0.0118457
0.0105329
-0.0367492
0.012136
-0.0462834
0.00593167
-0.00324262
0.0185237
-0.0212128
-0.136827
0.0186727
0.128903
-0.0107482
0.0319591
-0.0220027
-0.0146888
0.0047324
0.0345256
-0.0529445
0.00657316
0.00450308
0.00760605
0.0519824
-0.0640915
0.0247052
-0.00707062
-0.0251348
0.0075002
-0.0793493
-0.00853717
0.015056
0.00124913
-0.00111941
5.28151e-05
7.9011e-05
0.00268309
0.00167382
-0.00443592
0.0184206
-0.0320818
0.0383664
0.0179831
-0.143336
-0.0229873
0.14834
-0.113214
-0.0150248
0.0259223
0.102316
0.0571855
-0.0352085
0.0287597
-0.0507366
0.111394
-0.00608893
0.00325387
-0.108559
-0.0169738
-0.0370523
-0.00419155
-0.0163064
0.00818081
0.0123172
-0.0013307
0.000470277
2.57948e-05
0.000834631
0.0152721
-0.0775963
0.0623242
0.108766
-0.00713643
-0.112341
-0.0264053
0.0558433
-0.0464117
0.0398285
-0.122213
0.0149717
0.067413
-0.00394922
-0.012256
-0.0269446
0.0431499
0.00386098
0.049948
0.085628
-0.133685
-0.00189058
0.0492265
-0.0829555
0.0890275
-0.0552985
-0.0959938
0.095889
-0.00732922
0.00743401
0.00234768
0.00454546
-0.0947469
0.0878538
-0.00176099
0.00362534
0.0061079
-0.00797225
0.000250396
-0.000966433
-0.00028773
0.00100377
0.0890166
0.00077417
-0.0175091
-0.0722817
-0.000817947
0.000764863
1.31711e-05
3.99126e-05
0.00078434
0.00331603
-0.00232577
-0.00177459
-0.00182587
-0.000675713