/*--------------------------------*- C++ -*----------------------------------*\
| =========                 |                                                 |
| \\      /  F ield         | OpenFOAM: The Open Source CFD Toolbox           |
|  \\    /   O peration     | Version:  2506                                  |
|   \\  /    A nd           | Website:  www.openfoam.com                      |
|    \\/     M anipulation  |                                                 |
\*---------------------------------------------------------------------------*/
FoamFile
{
    version     2.0;
    format      ascii;
    arch        "LSB;label=32;scalar=64";
    class       volVectorField;
    location    "0.0657856";
    object      U;
}
// * * * * * * * * * * * * * * * * * * * * * * * * * * * * * * * * * * * * * //

dimensions      [0 1 -1 0 0 0 0];

internalField   nonuniform List<vector> 
47425
(
(10.2143 0.18603 0.00401846)
(10.0714 -0.193896 -0.00459215)
(10.0144 -0.00819132 -0.012828)
(11.5596 -0.531349 -0.232573)
(12.556 0.370317 0.744861)
(10.0461 0.012438 0.00389765)
(12.4534 0.215655 0.729623)
(10.0392 0.0151141 0.00292575)
(10.0047 0.00865325 0.00580936)
(1.94967 4.36713 -1.45239)
(10.0188 0.0158242 0.00108882)
(9.98259 0.060524 -0.00464892)
(12.2437 0.342177 0.269826)
(10.0229 -0.000454477 -0.006107)
(11.1385 0.192974 -0.141609)
(10.127 -0.214671 -0.0185647)
(10.0349 0.00145931 -0.00756036)
(8.78183 -0.541709 -1.50102)
(8.70984 1.32807 -5.09378)
(13.6325 -0.485508 -1.06872)
(10.9189 -0.712217 -0.613064)
(9.80656 -0.0420327 -0.030312)
(9.95963 0.0250845 -0.000639726)
(9.97224 0.0120309 0.0104251)
(9.90653 -0.0849889 -0.0107804)
(10.0051 0.027168 -0.00875239)
(9.99015 0.0272098 -0.00159648)
(11.5289 -0.372935 -8.90674)
(10.0004 0.0275768 -0.00094671)
(10.0271 0.017553 0.01476)
(9.71986 0.733128 0.0274493)
(10.0387 0.0980506 -0.00102416)
(10.0017 0.00672782 0.00604293)
(9.99667 -0.000512667 0.00860717)
(9.99769 0.00772803 0.00340766)
(9.95688 -0.00763693 0.0121304)
(9.75068 -0.0174805 -0.0825687)
(10.0017 0.0166584 0.00768074)
(10.5521 0.413935 -0.00193872)
(10.0644 0.0565452 0.0076412)
(9.86267 0.130159 -0.00375759)
(9.49821 0.242289 -1.07166)
(5.9518 -2.61381 -1.15125)
(9.98339 0.0133721 0.00526685)
(-0.12242 -1.63103 0.512502)
(9.97676 0.0735328 0.0107636)
(9.97048 -0.00627178 -0.0177423)
(9.99553 0.029564 0.005756)
(10.0896 -0.0534948 -0.00402685)
(10.0652 0.0225654 -0.00380979)
(2.15697 -0.582504 -5.8935)
(9.01076 1.14462 1.44258)
(10.0407 -0.0097325 0.00594018)
(6.77914 -5.29236 2.07415)
(9.992 0.0367046 -0.00889193)
(10.2103 0.0120699 0.0431241)
(10.2338 -0.154603 0.0341104)
(10.0312 0.00485815 0.0254719)
(12.0945 1.36918 1.59771)
(9.99251 0.024111 0.0158748)
(5.51826 -5.24867 1.51996)
(5.237 -0.575124 2.36814)
(4.31452 -3.10776 0.657756)
(9.08222 -1.18177 -0.0796107)
(10.0074 0.0106961 -0.00688148)
(10.8283 -0.341555 0.0138698)
(9.98766 -0.0121018 -0.00651252)
(10.6963 0.155199 0.563249)
(8.20349 -4.48164 2.30523)
(9.01403 0.55159 0.32059)
(10.8149 -0.604623 0.150057)
(10.0578 0.00685818 0.0059721)
(10.9823 -0.137463 -0.0175881)
(10.854 0.266588 -0.63331)
(4.04738 1.77134 0.413319)
(9.99893 -0.00377308 0.000656372)
(4.50053 -2.8199 1.38286)
(9.98361 -0.0198115 0.00609869)
(6.98622 -3.07213 1.62235)
(11.9237 -0.0189368 1.57908)
(4.38563 1.23433 0.519822)
(10.2236 0.331362 -0.0136172)
(9.18555 0.130167 -0.312178)
(10.0132 0.012982 -0.00664923)
(9.73617 -0.00192816 0.125682)
(10.2761 -0.0720489 0.0178355)
(10.782 -0.139839 -0.0385024)
(10.1536 0.105266 -0.014331)
(11.1098 0.237684 -1.67377)
(11.0314 -0.591322 2.18703)
(9.76987 0.43469 -0.0459798)
(10.6628 -0.00285171 -0.0339532)
(10.0532 0.00921958 0.0111942)
(10.163 -0.0613865 0.0071763)
(10.1116 -0.060145 0.0154373)
(10.0531 -0.0069756 0.00717018)
(10.0467 -0.0220022 -0.0140314)
(10.3205 -0.299147 -0.00434908)
(10.1918 -0.0300327 0.0135493)
(10.0367 0.0176159 0.0330366)
(10.0244 0.0365158 6.18412e-05)
(8.76154 0.114186 -4.12435)
(10.2924 0.188027 0.00823568)
(5.31722 1.97121 -0.743093)
(10.3038 0.15213 -0.0344875)
(10.6671 -0.774771 0.0994671)
(10.1226 0.235758 0.0572833)
(10.1573 -0.0596252 0.0105891)
(9.02088 -0.104537 -0.239088)
(9.94864 0.0707012 0.00314195)
(-0.874543 -1.70164 -0.469782)
(10.0188 -0.0854631 0.0114738)
(10.6111 -0.963727 0.173563)
(10.2941 -0.0215831 0.00506228)
(10.9413 -0.458172 0.0560672)
(1.80407 -4.19176 -5.89436)
(10.939 -0.416478 0.04094)
(4.0841 0.031166 -4.42496)
(10.3768 0.162403 -0.00309209)
(11.1359 0.374751 0.454857)
(10.375 -0.0547446 0.00419199)
(10.0002 0.00386953 0.00568896)
(10.0005 0.0520834 -0.00375544)
(11.8091 0.766558 -0.698213)
(10.0831 -0.0581151 -0.000300342)
(10.886 -0.843651 0.125667)
(10.2126 -0.0951621 0.00373239)
(10.0073 0.00390441 -0.0069299)
(9.94777 -0.00610745 0.0026218)
(9.99802 0.0305418 -0.0132249)
(9.21143 -0.318461 0.322884)
(10.5376 0.459006 -0.0388066)
(4.29043 0.0504942 0.498655)
(10.3509 -0.491308 0.0321565)
(9.97469 -0.250988 -1.10462)
(12.1077 -0.521678 -0.91248)
(10.9394 0.844282 0.271083)
(10.9062 -0.867566 0.262674)
(10.1485 -0.0982856 0.00212767)
(11.1316 0.025459 -0.0489932)
(9.98211 0.00649659 0.0027198)
(12.2108 0.226313 0.286718)
(10.5131 0.0434221 -0.0436336)
(10.6542 -1.23101 0.237237)
(10.2078 0.225397 0.00180758)
(10.0047 0.00522004 0.00582887)
(12.245 0.14688 0.955246)
(10.014 -0.0284342 0.00430393)
(10.4739 0.0240454 -0.0212955)
(9.97575 -0.0170949 0.00660544)
(10.5737 -1.26874 0.10135)
(2.9405 -0.378765 -6.92655)
(10.0072 0.0147899 -0.0100958)
(5.65929 0.0880056 -11.5139)
(8.99866 -1.1753 -0.751157)
(9.96772 0.0743832 0.007443)
(10.9866 0.441742 -1.68628)
(7.45452 -3.92188 -2.65127)
(10.109 -0.0581287 0.0199627)
(9.99566 -0.0269339 -0.00574747)
(11.212 -0.294978 0.0261171)
(10.0109 0.0415449 -0.000583105)
(10.0069 0.0091174 0.026683)
(10.1606 0.297784 0.013176)
(12.1813 0.174606 -0.424151)
(-0.0960719 -1.774 -2.08809)
(10.0124 -0.0278734 0.00246479)
(4.43097 1.6061 0.378474)
(9.95259 -0.0140985 0.0226088)
(12.22 0.712969 -4.3128)
(5.47388 1.23372 0.127497)
(9.98912 -0.000850929 0.00588112)
(10.0009 0.0235267 -0.00336478)
(9.46784 -0.984098 -0.658281)
(10.2539 -0.0298915 0.0372493)
(9.31991 -3.05006 -1.35367)
(2.779 0.982178 -7.68872)
(10.0038 0.0274207 -0.00040052)
(10.0242 0.0211647 0.00345125)
(10.0472 0.0130667 1.78897e-06)
(2.61766 0.439939 -11.0285)
(10.0556 -0.115387 0.0152489)
(10.0091 0.022737 -0.00486251)
(10.0112 0.0112187 0.0132554)
(10.0401 -0.00743144 -0.00199225)
(10.0267 0.0218397 0.00391538)
(10.2152 0.0855567 -0.0102955)
(5.66588 -0.50693 -0.66755)
(9.83992 0.00345062 -0.00964228)
(10.1253 0.159311 0.0510327)
(10.0008 -0.0100674 -0.00365752)
(9.97819 0.000346612 0.002741)
(12.2622 -0.604966 -0.735333)
(9.99694 0.00163354 0.00370664)
(10.0146 0.00897743 0.0298408)
(11.1548 -0.0296431 -0.0267346)
(10.0018 0.00104524 0.00748763)
(10.0003 -0.00349048 0.00646859)
(11.3224 0.035856 -0.0250228)
(10.324 -0.2514 0.0695444)
(9.97436 0.00690195 0.00930581)
(10.3657 -0.040779 0.0127915)
(9.45744 0.224608 -0.0192238)
(11.1077 -0.183536 -0.0262198)
(10.3046 -1.48154 -0.930861)
(10.6338 -0.0150333 -0.0456562)
(10.002 -0.00739518 0.0122896)
(11.0896 -0.0836432 -0.0285003)
(10.0037 0.0940952 -0.01253)
(10.0026 0.0131034 -0.00318921)
(10.283 -0.159537 0.0126336)
(11.0886 0.109689 -0.0125235)
(10.0066 0.0257921 -0.00101735)
(9.9736 -0.00897881 0.0245095)
(10.6972 -0.0635625 0.0372284)
(11.3553 0.0559331 -0.173853)
(10.7855 0.0191529 -0.0624002)
(11.0915 0.201521 1.7765)
(8.73519 -1.28914 -0.671002)
(9.94754 -0.033364 0.0101109)
(11.8121 -0.428472 1.64465)
(11.1364 0.16777 0.184897)
(10.0219 -1.42961 -0.963969)
(10.8637 0.139696 -0.0166224)
(10.6314 -0.00906958 -0.0323741)
(11.8953 -0.677154 1.56293)
(10.0343 0.0126103 0.00422453)
(11.2711 0.0688967 -0.0701114)
(11.4462 0.270786 0.13078)
(11.9669 0.101777 -0.29734)
(10.7912 0.0199563 -0.0648424)
(10.0206 -0.0274736 -0.00829521)
(10.4697 -0.0968216 -0.00934907)
(10.0011 -0.00438649 -0.000457841)
(9.77373 -0.00679248 0.00263149)
(10.0267 0.253399 0.00532741)
(11.7375 0.0516626 1.63)
(9.98289 0.0410014 -0.00273753)
(12.0568 0.0955206 1.45257)
(9.75565 -0.000875498 -0.0361116)
(9.8529 -0.0137025 0.00350461)
(10.0052 0.0134853 0.0146887)
(10.058 -0.0185408 0.009663)
(11.8207 0.706208 0.0491396)
(10.4263 0.422418 0.0307851)
(10.0076 -0.00274348 0.0119408)
(10.323 -0.0693855 0.00717563)
(10.0107 -0.000247653 0.00306126)
(10.0299 -0.0163409 0.0049434)
(9.97755 0.0024923 -0.0108712)
(10.0021 0.0479571 0.0050792)
(11.901 -0.336027 1.60788)
(9.95213 -0.0109735 0.00719575)
(10.0032 0.0042428 0.00572996)
(9.92329 -0.00760325 0.0115038)
(9.9548 -0.00538423 -0.00476003)
(9.85083 0.0810896 -0.0246822)
(9.73688 0.00651845 0.00966174)
(10.4317 -0.649402 0.131031)
(10.0099 0.0010811 -0.00693712)
(9.73943 0.0141664 0.00355117)
(9.99847 0.024865 -0.000575615)
(10.2351 0.0594767 -0.0148287)
(10.1325 0.0159403 0.00971533)
(11.8101 0.0782149 0.825168)
(10.2454 -0.513528 -0.114913)
(10.0247 0.00402519 -0.0210021)
(11.8904 0.0948169 0.657216)
(10.016 -0.00203255 -0.00874301)
(10.2605 0.0778353 -0.0170176)
(10.2037 0.0579768 -0.00384818)
(12.1361 0.216152 1.20022)
(11.6102 0.207245 1.43277)
(10.1586 -0.165238 -0.0190855)
(11.9907 -0.0850662 1.56807)
(10.0649 0.00502163 0.00976302)
(12.0625 0.0756704 1.39661)
(6.67827 3.37574 2.24239)
(11.5795 0.0905119 1.51349)
(5.91539 1.28142 -5.21787)
(4.72049 -5.34265 1.38665)
(10.207 0.162874 0.00154878)
(3.91501 -5.19712 0.686257)
(9.87598 -0.005477 0.0165795)
(9.99113 0.00587113 0.00932571)
(11.3029 -0.16004 0.038098)
(9.89294 -0.00442901 0.0221988)
(9.97528 -0.006795 -0.016003)
(9.8251 -0.179639 0.00617857)
(10.9717 -0.563524 -0.0716806)
(1.39897 1.74151 -3.63007)
(9.23964 0.798841 0.0126282)
(10.0029 -0.00158963 -0.00212328)
(10.0066 -0.00409091 -0.01653)
(10.012 -0.00896972 -0.0191683)
(10.2606 0.370248 0.437389)
(11.7681 0.812167 0.232825)
(10.2058 -0.689815 0.121851)
(10.0316 -0.14375 0.0199326)
(11.8672 -0.133845 0.176687)
(10.0897 0.157306 0.0241477)
(10.0688 0.0258716 0.0208499)
(9.96097 -0.00755507 -0.00255731)
(10.0262 -0.0134448 -0.011499)
(10.4959 4.09831 -0.489412)
(6.11702 1.80002 -0.246475)
(1.5026 1.19567 -6.3028)
(10.012 0.00520416 -0.0133122)
(10.0804 -0.0465156 0.0183758)
(10.0588 -0.635481 -0.0389981)
(10.1658 -0.516837 -0.158891)
(1.25249 -0.72773 -5.87394)
(9.98564 -0.00323447 -0.018872)
(9.95853 -0.00668203 -0.0258038)
(10.8759 2.41819 0.986434)
(10.2055 -0.137732 0.0180054)
(9.86483 -0.0033092 0.0063835)
(9.81925 -0.00788219 0.0175443)
(9.91265 -0.000307854 0.0187445)
(12.6684 2.32443 -0.929212)
(11.2421 2.11592 0.882861)
(10.0096 0.182529 -0.00152592)
(10.1112 0.146107 -0.0115117)
(10.0175 -0.00289768 -0.00334649)
(10.2551 -0.029182 0.0114523)
(10.0491 0.0047325 -0.00160278)
(10.0903 0.250332 -0.00612728)
(10.1113 0.0513795 0.00473598)
(10.0464 -0.00886767 -0.0118579)
(9.99484 -0.00903885 0.00791543)
(11.4176 -0.0486538 0.267264)
(9.8152 0.00279841 -0.085136)
(10.5921 -0.736398 -1.37521)
(9.99011 0.0210073 -0.0103833)
(9.96587 -0.00728952 0.00746246)
(10.0177 0.0165049 0.0244857)
(9.85894 0.424889 -0.0972858)
(9.96652 0.108834 0.00463632)
(10.0398 0.00929947 0.0145597)
(10.0179 -0.00712169 -0.0146094)
(9.99582 0.254404 -0.0332728)
(10.0056 0.285694 -0.0303025)
(10.1122 0.0768482 0.0101342)
(9.93598 0.278827 -0.025232)
(10.0394 -0.0194258 -0.000616807)
(10.028 0.0114046 -0.00203086)
(10.0195 0.0080479 0.0173021)
(9.65516 0.447767 -0.189971)
(9.96023 -0.00554688 -0.00909523)
(9.97577 -0.0237476 -0.00305537)
(9.98453 0.236078 -0.0338421)
(10.4237 -0.459431 -0.0606918)
(10.0975 0.247536 -0.00851754)
(9.94195 0.211085 -0.0194972)
(9.99074 0.18818 -0.0343328)
(11.1976 -1.33806 -0.170474)
(9.94603 0.00760123 0.00636731)
(9.20622 0.244415 0.0761853)
(9.96733 0.151848 -0.0208805)
(9.99572 0.0219792 -0.007954)
(9.53294 0.311357 1.97718)
(11.4939 -0.144671 -0.511145)
(10.0857 -0.0210704 -0.000186542)
(9.9525 -0.00700789 -0.00819729)
(10.3557 -0.42583 0.0115014)
(10.6716 0.493895 -0.0483368)
(9.80889 -0.00247803 -0.00918133)
(10.0112 -0.00641309 -0.00833754)
(10.0207 -0.143983 0.0171305)
(10.2557 0.733861 -0.108298)
(9.8453 -0.0114644 -0.0102545)
(-1.02336 -1.44122 -0.209155)
(10.6956 -0.0965804 0.026678)
(10.0795 0.968746 -0.0838309)
(9.97932 -0.00172963 0.00748619)
(10.0732 0.854945 -0.0586975)
(10.8101 -0.0692877 -0.919997)
(10.0124 -0.00527839 -0.00195079)
(10.0033 0.00579654 0.00424958)
(9.78133 -0.0116013 -0.0671146)
(10.0114 0.00317974 0.00458619)
(10.084 0.865237 -0.111905)
(10.121 -0.082558 -0.019837)
(10.0059 0.0237935 0.00622611)
(9.94114 -0.0184516 0.00396133)
(10.0022 0.0182086 0.00598529)
(10.0107 -0.0111822 0.00956903)
(10.2258 0.181565 0.0043641)
(10.0007 0.00653893 0.00855054)
(9.97836 0.0234208 0.00801098)
(10.5439 0.907417 -0.3383)
(10.3564 1.11448 -0.385867)
(9.95904 -0.00396617 0.00570692)
(10.5028 -0.509155 0.0375331)
(9.97123 -0.0191061 0.0197167)
(10.4716 0.85115 -0.296465)
(9.96624 -0.069031 0.0102198)
(9.96153 0.00542049 0.00269163)
(12.2415 0.405195 -0.535953)
(10.0239 0.00595271 -0.0174731)
(10.6196 -0.252954 1.36755)
(10.0491 -0.00368825 -0.0060737)
(10.133 1.20631 -2.58658)
(9.95905 -0.00413752 -0.011315)
(10.6739 0.12581 0.0134359)
(9.96688 -0.00543693 -0.0197126)
(10.0204 0.0249988 -0.0178586)
(9.83262 0.00921766 0.00820092)
(10.0354 0.00925854 0.012559)
(9.9786 0.00420476 -0.0106162)
(10.3545 0.995622 -0.295091)
(1.33828 -1.85424 1.09444)
(2.03877 -0.654906 -2.61327)
(10.0734 0.0618843 0.00916533)
(10.3638 1.5101 -0.926322)
(10.73 0.746694 -0.331548)
(10.8295 0.703753 -0.322197)
(9.99782 -0.0265087 0.0287022)
(9.98013 0.0111845 -5.29877e-05)
(9.97401 0.0197148 0.0120637)
(9.9025 -0.00469753 -0.0121054)
(9.95625 0.00350538 0.00294046)
(10.1397 -0.219352 0.00121327)
(10.8354 0.640866 -0.22202)
(9.96063 -0.0236753 0.00293113)
(10.0356 0.00320281 0.00755064)
(11.4649 -1.19783 0.204932)
(11.5373 0.519262 -0.212859)
(11.1607 0.574222 -0.178699)
(8.13406 -1.31981 -5.16751)
(-0.0384742 4.0189 0.65112)
(10.6169 -0.305939 0.0545572)
(7.47443 -0.969366 -5.71093)
(-0.0983894 3.80777 0.94706)
(9.81971 -0.191422 0.0031777)
(-0.149454 3.93242 0.825679)
(9.2033 -0.910134 1.18794)
(10.0182 -0.0459081 0.00743851)
(11.0734 0.653143 -0.341998)
(11.0209 0.708772 -0.370151)
(11.3118 0.61571 -0.331408)
(-1.11034 3.00437 1.12444)
(10.1668 0.12064 0.00648307)
(10.0142 0.0137029 -0.00470747)
(10.0026 0.000812345 -0.0143616)
(11.3868 0.652638 -0.437874)
(11.2586 0.693892 -0.504124)
(10.0797 0.0145722 0.0213949)
(10.0992 0.116287 0.0201472)
(9.81646 3.43761 2.39562)
(-1.00176 3.00522 1.13251)
(13.017 -0.487188 -3.11793)
(10.0065 -0.0144148 0.00817338)
(8.82285 -0.750245 -3.34571)
(10.1514 0.32486 1.21873)
(9.99735 -0.0527855 0.000414572)
(10.9914 0.457474 -0.0522514)
(12.0489 0.249096 0.280007)
(10.9757 0.36893 -0.0408019)
(9.99496 -0.0179825 0.00485407)
(9.9986 -0.00485381 0.00696389)
(9.9829 -0.00678194 0.000608341)
(10.4656 0.397172 -0.00161673)
(9.99926 0.00192641 -0.000392361)
(10.0023 -0.0300093 0.0355141)
(10.1583 0.0784524 -0.0252951)
(9.9652 -0.00343015 -0.00998262)
(11.1443 0.23096 -0.0609832)
(10.0231 -0.00107544 -0.0153782)
(9.98466 0.0482536 0.0111268)
(9.99643 -0.019367 0.00159165)
(10.0058 -0.00727427 0.00870142)
(9.9597 0.00419577 0.00553549)
(10.3951 0.332516 -0.0110524)
(10.1171 0.0557219 0.00693287)
(10.0791 0.00692123 0.0292748)
(11.064 0.243211 -0.0553063)
(8.99691 3.95764 1.93307)
(9.97181 -0.00041999 -8.99101e-05)
(12.0084 1.53342 -1.46315)
(9.99716 -0.00810645 -0.0023167)
(10.949 -0.10009 -0.0474357)
(6.83488 -0.907766 2.25649)
(9.76985 1.4335 -0.624372)
(10.0011 0.0348152 -0.00933635)
(9.84062 1.51367 -0.697702)
(10.0079 0.0260568 0.00583014)
(10.0386 -0.00877606 -0.00215896)
(10.0793 1.29511 -0.92503)
(9.97806 3.16322e-05 0.00982551)
(10.7401 -0.19972 0.0331574)
(9.95523 1.19169 -0.647208)
(10.2834 -0.0696492 0.0364759)
(10.629 0.0730363 -0.276673)
(8.24807 0.292992 -4.21461)
(10.0729 -0.0375604 0.0125077)
(9.6307 1.90259 -0.648038)
(10.0511 -0.00913821 0.0121849)
(9.03819 2.0348 -1.06937)
(10.1055 -0.114146 0.0318272)
(10.0118 -0.0150757 0.00826427)
(10.0022 0.0189003 -0.00050671)
(9.99125 0.0124137 -0.00437877)
(10.7654 1.07852 0.860979)
(9.96497 0.00908829 -0.00251298)
(9.99379 0.0177028 -0.00957021)
(10.03 -0.0336688 0.00888584)
(9.96186 0.068499 0.0295335)
(11.1621 0.653158 -0.0070604)
(10.0302 0.0115865 -0.00351773)
(10.0206 0.0187335 -0.000152535)
(8.63744 0.29491 -0.627262)
(9.9682 -0.00634457 0.017676)
(9.84871 0.113112 0.0139673)
(10.086 -0.157649 0.0444992)
(10.072 0.0226011 -0.00668482)
(10.0795 0.00915296 0.0127376)
(9.96061 0.0246555 0.00809151)
(10.1054 0.0357511 0.00218474)
(10.3577 1.3339 -1.0781)
(10.0036 0.00986436 0.00694581)
(9.98895 0.00454324 0.00283805)
(3.02785 -0.515327 -5.89424)
(10.0082 -0.00659579 0.0103795)
(10.0276 -0.00679416 0.00444966)
(9.99722 0.131621 -0.0293125)
(10.0043 0.0111141 0.00695855)
(12.6542 1.33424 -0.735339)
(12.7671 1.01645 -0.486739)
(9.96472 -0.0124188 -0.000554518)
(9.93252 -0.111254 0.0138571)
(9.89168 0.00655293 0.0195637)
(11.4489 0.0667944 1.27291)
(10.0503 0.0631034 -0.0165846)
(12.7652 1.26013 -0.614382)
(9.99938 0.00627873 -0.00336963)
(-1.54757 -0.649615 1.74616)
(8.17176 -0.553644 -0.7256)
(9.16301 -0.905673 1.81013)
(10.0171 0.0117798 0.0138697)
(12.7012 1.19413 -0.554415)
(10.0592 0.0310153 -0.0138259)
(10.1259 0.117907 0.022605)
(10.0041 0.00528847 -0.0477953)
(9.6754 0.117506 0.142638)
(10.0265 -0.000266439 0.00978274)
(10.0189 0.0332579 -0.0130802)
(6.47976 -1.27649 -0.587234)
(9.9986 -0.000410795 -0.0203493)
(9.94595 0.00933609 0.00658454)
(10.0074 0.0063874 0.0198433)
(12.538 1.44682 -0.663941)
(10.0518 0.0205699 0.0100252)
(10.0212 -0.0111681 -0.000785001)
(12.3744 1.39794 -0.706998)
(12.2989 0.861301 -0.274636)
(10.0111 -0.00845197 0.0137)
(10.0261 -0.0111101 -2.91952e-05)
(-0.193987 2.0067 0.570408)
(10.0495 0.0038084 0.00442372)
(10.6904 -0.365497 0.145474)
(10.0009 0.00186167 -0.0073937)
(10.06 0.0124994 0.0389162)
(10.0445 -0.0146215 0.00330125)
(11.9418 0.987878 -0.379686)
(11.2946 0.182806 1.44099)
(9.24059 0.717891 0.79095)
(9.91602 0.0994311 0.145707)
(10.0384 -0.0674374 0.0177793)
(10.0154 0.00455218 -0.01601)
(12.6468 -0.474717 0.0251217)
(9.31163 0.227186 -0.436948)
(9.75483 0.0662756 -0.0306518)
(-0.0789751 1.80371 0.369731)
(10.0228 -0.026438 -0.0116355)
(10.0337 0.0132089 -0.0121747)
(-0.441558 1.70315 0.557977)
(12.1351 1.76648 -1.20836)
(9.8895 0.0774229 0.00588499)
(0.0344525 1.92998 0.399026)
(0.0201505 1.96532 0.556891)
(9.99711 0.0200915 -0.00966596)
(9.99791 0.0141021 0.00157977)
(10.0301 0.00543145 -0.00679265)
(9.6084 -0.361576 0.00188965)
(9.99844 0.00475612 -0.00600479)
(9.97606 -0.0130851 -0.00568443)
(10.7989 0.275911 -0.218898)
(10.0027 0.263844 0.0168027)
(9.93773 0.0253918 -0.00180164)
(10.0447 0.00949922 0.0233147)
(12.597 1.15985 -0.289604)
(11.8552 1.27776 -0.379721)
(9.96929 0.010142 -0.000353377)
(10.4593 0.380206 -0.030915)
(-4.05469 -2.51587 -0.200886)
(-1.78788 -2.93156 1.07869)
(10.829 0.408686 -0.126492)
(9.94558 0.00118948 0.0133066)
(10.2762 -0.0923106 0.117189)
(11.0008 -0.10668 -0.769736)
(9.8624 0.000126346 0.00952339)
(9.86209 0.000851654 0.00904255)
(10.0498 -0.0276417 0.0129228)
(10.3434 0.139522 -0.00187857)
(9.97972 -0.0131906 0.00683735)
(10.8145 0.257012 0.312845)
(10.0004 0.00204354 0.00119712)
(13.0632 0.800613 -0.636598)
(10.337 1.51921 -1.17376)
(10.7337 0.388704 -0.0654666)
(13.0888 0.988336 -0.974007)
(10.0779 0.0400875 -0.00298268)
(9.99458 0.00606484 0.0122233)
(10.4223 0.772648 0.142346)
(10.1717 -0.107851 0.0282993)
(10.0146 0.0114799 0.00442456)
(10.0045 0.0070676 -0.00326009)
(11.1412 0.601058 -0.551068)
(7.96016 -0.788996 -1.50936)
(10.0184 -0.00618723 -0.00694748)
(10.9487 0.145753 0.00603217)
(9.97347 0.189364 0.0231674)
(11.4955 -5.3158 -2.35103)
(10.4643 -0.886578 0.871016)
(11.7036 -0.0120189 0.953601)
(6.50822 0.520518 0.290145)
(6.28327 0.485377 0.134559)
(10.0605 0.0163273 0.00221113)
(9.90443 0.236063 -0.0338782)
(4.62788 0.374122 -0.195284)
(9.99219 0.0133277 -0.000890392)
(10.0443 -1.74316 -3.56521)
(7.60509 0.413476 2.05229)
(9.98439 0.00134094 -0.0022901)
(10.0101 0.818561 0.479636)
(10.0096 -0.00506557 -0.00587143)
(10.0323 -0.00267347 0.0170325)
(10.0179 0.00120421 -0.000753021)
(13.3162 0.489238 -0.130644)
(9.97661 0.0104606 -0.00393401)
(9.98473 0.00443908 -0.00122148)
(10.0504 -0.0244542 0.000679817)
(9.83967 0.00109784 -0.0219222)
(10.045 -0.0166553 0.0257849)
(10.0062 -0.00354512 -0.00601092)
(10.0477 0.0163245 0.0147945)
(9.91506 -0.0369227 -0.0017261)
(11.058 1.13088 0.694778)
(9.52032 -0.508355 -2.70701)
(12.5838 3.64806 1.72752)
(10.7819 0.51233 0.0259639)
(9.67406 1.47522 1.32868)
(10.0288 0.00988858 -0.00140172)
(9.31454 -1.00112 0.0616781)
(9.97875 0.0146049 0.00140149)
(10.0004 0.00194275 -0.0103637)
(10.003 0.00379767 -0.0079689)
(9.99971 0.00130228 -0.00733312)
(9.98463 0.0180403 -0.00459733)
(9.18884 0.409421 -0.899541)
(11.2147 0.742141 0.222781)
(9.98622 0.0139441 -0.00519186)
(10.2146 -0.563281 0.079751)
(11.3227 1.61736 1.98953)
(9.9983 0.018535 0.00130689)
(2.89116 0.476311 1.23463)
(13.2799 -0.993331 -3.03364)
(9.96712 -0.00374477 -0.0088343)
(9.33378 -0.576028 0.0114725)
(10.4409 0.0237251 0.0350026)
(10.0192 -0.00506472 -0.0129116)
(3.50396 1.17349 0.954198)
(10.0082 -0.00810375 -0.00529957)
(6.75772 -2.37302 0.325291)
(9.98256 -0.00136957 0.00056897)
(11.6977 -0.0535172 1.15404)
(12.0894 0.409423 -0.00690242)
(9.9709 -0.0241025 0.000607679)
(9.93375 -0.0104761 -0.00993817)
(10.1724 0.591829 0.0450416)
(8.63658 -0.629676 -2.33587)
(9.93194 -0.00579161 0.0160891)
(10.0273 0.0144873 0.00824413)
(10.3024 0.00235656 0.00869413)
(12.1872 -0.0731573 0.776909)
(10.0013 0.00393183 0.00217805)
(12.3315 0.350292 0.285713)
(10.4458 -0.0181223 0.00720602)
(0.600576 -0.537327 0.0115649)
(12.035 0.335219 0.103748)
(10.3792 -0.00994246 0.00822088)
(12.1563 0.341468 0.220155)
(10.0006 -0.00341195 -0.00364289)
(10.116 -0.12772 -0.00538346)
(10.5317 0.40666 0.0214389)
(10.4167 -0.0488414 -0.000154562)
(12.3452 0.424923 0.106655)
(9.99876 -0.021098 -4.08388e-05)
(10.0704 -0.220881 -0.0116738)
(12.1884 0.404236 0.0580479)
(9.96878 -0.0346295 -0.00106536)
(10.4595 -0.0554248 0.00465661)
(9.99207 -0.00924176 -0.0109462)
(10.0279 -0.0116614 0.00751927)
(6.91084 0.351416 -5.24288)
(6.73458 -0.152498 -5.84567)
(9.69175 0.0925718 0.36734)
(8.85904 0.349947 -4.27216)
(9.99652 -0.0132058 -0.0143467)
(9.97509 -0.00804547 -0.00458434)
(10.8364 0.652787 -0.260928)
(10.4377 -0.167473 0.0258119)
(7.96998 0.1318 0.435543)
(10.0181 -0.0346526 -0.0146427)
(10.0536 0.0352411 -0.0148889)
(9.98041 -0.0254595 -0.00442811)
(10.0093 0.046815 -0.000115798)
(5.29318 0.226753 -6.51211)
(3.42049 -0.759622 1.57597)
(9.96997 -0.0245919 -0.00370376)
(10.0167 0.0420127 -0.00567757)
(10.0021 -0.0623068 -0.0131328)
(9.9239 -0.0215222 0.00613012)
(10.1655 -0.148368 0.038638)
(9.96496 -0.026675 -0.00330243)
(11.2613 -0.0443675 -0.0156243)
(11.7934 -1.3433 1.42543)
(10.1167 0.0128393 0.00822458)
(10.0435 0.0288169 -0.0231638)
(10.003 -0.0292607 -0.0121383)
(10.0117 0.033649 0.0010905)
(9.71571 0.214375 0.0301077)
(10.0171 -0.0266662 -0.0123344)
(10.6854 -0.181818 -0.0099666)
(9.95794 -0.0165724 -0.00761404)
(10.0118 0.0219944 -0.0151001)
(10.065 0.0425237 -0.00539927)
(9.27109 -0.883221 -1.29923)
(5.18126 0.697116 -4.91307)
(10.0576 -0.0736423 -0.00969898)
(-0.093866 -2.05564 0.398502)
(10.0745 -2.59549 0.929302)
(13.2284 -1.22477 -1.14902)
(-0.108581 -2.15709 0.339138)
(10.3471 0.051526 0.0181013)
(5.44721 -0.294793 1.79332)
(10.5557 -0.501076 -2.64391)
(10.9443 -1.58593 0.392534)
(5.69918 0.30471 -3.88204)
(-0.284065 1.83779 0.959207)
(1.51507 0.639538 -3.70122)
(11.4082 -0.0457344 0.636298)
(10.7605 -0.0147986 -0.0602266)
(11.2241 0.00549456 1.33613)
(9.91653 0.00614056 0.00700749)
(3.72752 -0.237215 -0.40014)
(10.8376 0.04462 -0.344059)
(10.6849 -0.0224971 0.0106551)
(9.98399 -0.0462593 0.0294876)
(10.0094 0.0209902 -0.043312)
(11.4729 0.0577693 1.21436)
(9.98709 0.11976 0.0586406)
(10.1866 -0.0405064 0.0163458)
(9.95124 0.0307095 -0.0042162)
(-0.768838 1.12819 0.247107)
(8.11988 0.259588 -2.55973)
(10.0148 -0.00695887 0.00740966)
(9.98442 -0.00479484 0.00438956)
(5.04148 0.288213 -2.50447)
(5.93983 0.140573 -3.16246)
(10.8298 -1.08611 -1.33506)
(-2.55394 -2.8922 -1.05534)
(4.7401 0.243689 1.99056)
(4.0589 -0.00802136 -4.00101)
(3.78941 -0.0691827 -4.86214)
(10.0055 -0.00407138 0.0100997)
(9.79979 0.00192101 0.00604611)
(9.46557 -0.0292847 0.0395847)
(10.0137 -0.00490859 -0.00683768)
(10.4152 0.0419354 -0.0228661)
(-0.346023 1.98012 0.521191)
(10.9754 -0.0550901 -0.262132)
(10.4684 0.036816 -0.0272961)
(10.3392 0.0401116 -0.0134347)
(10.0515 0.0212028 -0.00192001)
(-0.297152 1.92394 1.17982)
(-0.50178 2.06911 1.13328)
(10.0487 0.0202042 -0.0192046)
(10.4225 0.0044458 -0.0384822)
(9.93153 0.0196095 0.00491232)
(10.0264 0.00648866 -0.010216)
(10.3685 0.0193355 -0.0165757)
(10.0347 0.0122804 -0.0239471)
(9.69845 -0.00175067 -0.0653367)
(10.0238 0.00632277 -0.0143974)
(10.0195 -0.000176686 -0.0120124)
(6.99931 -0.740841 -3.22147)
(10.0457 0.00522954 0.00683402)
(10.0214 0.0147971 0.01904)
(10.0188 -0.00765176 -0.0176504)
(9.86325 0.00639009 0.00447123)
(9.87928 0.0113771 0.00469631)
(4.27685 -0.546296 -2.53735)
(12.6504 -1.27499 -0.63608)
(10.0204 0.000459172 0.0111141)
(10.8668 0.414603 -0.215557)
(10.0217 0.0327646 -0.0131249)
(9.69833 -0.341275 0.102738)
(9.67084 -0.42714 0.155488)
(12.2175 -0.0548295 -0.0589959)
(9.87292 -0.00332848 -0.0038299)
(-0.156937 -1.0795 1.39468)
(12.3041 -0.148397 -0.0822503)
(10.4814 0.114011 0.00146787)
(10.8234 0.377846 -0.0364659)
(8.13131 0.292828 -3.50772)
(11.1285 3.03515 1.36074)
(9.98071 -0.0166574 -0.00956472)
(9.98223 -0.0179314 -0.00441702)
(11.6107 1.72335 2.11594)
(10.0031 -0.0311644 -0.0131663)
(9.99969 0.0328222 0.00478593)
(10.9135 0.736327 0.348952)
(9.97044 -0.0189092 -0.00594452)
(9.98353 -0.00306323 0.00148745)
(-2.61201 0.638209 1.87725)
(12.5419 0.540043 -0.121262)
(10.787 3.45956 -0.383784)
(10.0018 0.000705309 0.00486187)
(7.71501 0.558408 -2.7252)
(10.0009 0.00527666 0.0018985)
(12.0376 -0.0733023 -0.30165)
(9.51535 -0.41515 0.254992)
(12.2715 -0.076777 -0.0381701)
(9.91034 0.00260772 0.0050598)
(9.3264 -0.448202 0.215619)
(-1.304 -0.202548 1.81603)
(11.6125 1.83819 2.59021)
(12.4948 -0.405977 -0.873235)
(-0.775178 1.50863 1.11005)
(12.2315 0.293568 0.251178)
(10.5215 0.195733 0.0471581)
(9.95418 -0.015536 0.0114745)
(12.2037 -0.049238 -0.243743)
(9.97695 0.0129967 0.00446667)
(12.4244 -0.0909047 0.110691)
(-0.131426 -1.28488 0.847438)
(9.98252 0.0164486 0.00549452)
(12.8627 0.0562428 -1.26515)
(9.90205 0.00132939 0.0126783)
(9.892 -0.000987081 0.00338825)
(11.3709 -1.47007 0.00636446)
(9.92446 -0.00561383 -0.000684497)
(10.2124 0.118603 -0.0108787)
(8.15137 -5.7977 0.0460306)
(9.52849 0.443175 0.0392651)
(9.98893 -0.243244 -0.0260688)
(12.7235 -0.665795 0.0338929)
(10.5702 1.50267 1.23486)
(10.0222 -0.0120026 0.0191579)
(11.8066 -2.60542 -0.964426)
(5.26228 -0.886236 -0.223299)
(10.73 0.0310767 0.0115438)
(9.63265 -0.733392 -0.905244)
(10.0161 0.117035 0.0224783)
(10.5274 0.20446 0.0170516)
(9.96481 -0.0119969 -0.00103893)
(9.98898 -0.0160468 -0.00405808)
(0.103025 1.30385 -0.231362)
(0.960824 -4.49709 1.89297)
(12.2853 -0.732065 0.244099)
(10.1704 -1.54725 -0.510941)
(12.3606 -1.09299 -0.4013)
(1.14028 4.64481 1.09128)
(-0.83715 0.619465 0.73598)
(9.37182 -3.61891 4.26189)
(9.99119 -0.0124998 -0.00574648)
(10.0026 0.0121843 -0.00961272)
(9.98899 0.0140975 -0.00392438)
(9.82205 -0.0418424 -0.0220328)
(3.11557 1.05676 -0.0524898)
(9.6266 -0.552821 0.156918)
(8.98495 -0.666695 1.03937)
(9.98751 0.0209063 -0.00905798)
(-0.297047 -1.64139 0.183664)
(12.3594 -0.0744077 -0.0204208)
(10.2882 0.181223 -0.302998)
(10.1165 0.0354066 0.0110003)
(10.0197 -0.0229455 0.00669668)
(10.1124 0.0313174 0.0111359)
(6.27727 -1.85517 -3.28727)
(10.0048 -0.00303793 -0.00697548)
(4.74502 4.68765 -0.371184)
(10.0299 0.0109858 -0.00322077)
(10.2973 -0.625311 -3.13489)
(9.98816 -0.00368088 -0.00291377)
(9.99896 -0.00614801 -0.00620445)
(10.0095 -0.00971031 -0.0070082)
(10.015 -0.00999331 -0.010712)
(9.9881 -0.0118696 0.00330954)
(12.7311 1.38984 0.42412)
(11.8023 0.310125 0.800998)
(8.95634 1.49413 2.40412)
(7.02161 4.08019 2.40483)
(9.37902 1.20373 0.455617)
(10.4285 0.543058 -0.0573896)
(11.2151 1.19401 0.0287355)
(6.64788 -0.43563 -2.99121)
(10.6269 -0.143525 0.0399728)
(12.5243 -0.318614 0.0533708)
(10.6259 -0.75997 0.094256)
(12.1348 0.0366637 -0.0470479)
(8.16533 -0.182939 4.42393)
(5.67914 -1.65926 2.28172)
(10.6361 -0.267794 0.191735)
(9.99943 -0.00945215 0.00506453)
(9.56767 0.926271 -0.325019)
(10.0043 -0.00539579 0.00992253)
(10.1811 -0.0150953 -0.00192994)
(13.061 -2.41097 2.95342)
(12.4455 -0.417069 0.781052)
(-1.46196 3.38608 0.0652274)
(10.1333 -0.941517 0.220759)
(11.8618 -1.01697 -0.494894)
(10.5218 -1.07355 -1.18664)
(9.99062 -0.370698 1.57286)
(10.2185 -0.0216948 0.0108013)
(-3.92394 -3.26108 1.23271)
(10.043 -0.00245834 0.00311624)
(10.1102 -0.0112093 -0.00183399)
(10.6365 -0.17178 1.14679)
(9.66534 -0.1096 4.70409)
(10.2459 -0.0337898 0.0156446)
(10.2966 0.544328 -0.429639)
(9.99365 -0.00430563 0.00265382)
(10.5616 -1.37686 0.598611)
(10.7875 0.0751703 1.36499)
(9.96488 -0.00762625 -0.00268214)
(11.127 -0.420594 -3.10993)
(9.92231 1.57504 -2.02774)
(12.1019 0.440919 1.50947)
(10.8842 0.466883 -0.14952)
(9.49957 0.129062 0.275092)
(3.1381 0.963317 -3.8753)
(0.395387 3.54456 3.04454)
(5.27762 3.2228 0.703352)
(13.2889 -0.830747 -2.88767)
(4.90196 -0.766592 -0.239727)
(9.7885 -0.00299907 -0.0283953)
(9.88712 -0.00686181 0.000734377)
(8.3271 1.75412 2.72273)
(9.95752 -0.00561177 1.16146e-05)
(4.52491 -0.808098 -0.307159)
(9.82954 -0.00291805 -0.015177)
(9.81541 -0.0128839 -0.0151764)
(-0.0957041 -1.49148 0.995769)
(9.55526 -1.31211 0.82183)
(10.8883 -0.562584 0.123656)
(9.98568 0.0044224 0.000980754)
(9.99959 0.0183566 0.00049447)
(8.33024 0.330927 -2.89078)
(10.0186 0.0151329 0.0142795)
(9.96023 4.09793e-05 -0.0005604)
(9.95812 1.00035 0.936666)
(12.4629 -0.72572 -2.96159)
(10.2279 0.370199 0.01714)