/*--------------------------------*- C++ -*----------------------------------*\
| =========                 |                                                 |
| \\      /  F ield         | OpenFOAM: The Open Source CFD Toolbox           |
|  \\    /   O peration     | Version:  2506                                  |
|   \\  /    A nd           | Website:  www.openfoam.com                      |
|    \\/     M anipulation  |                                                 |
\*---------------------------------------------------------------------------*/
FoamFile
{
    version     2.0;
    format      ascii;
    arch        "LSB;label=32;scalar=64";
    class       volScalarField;
    location    "0.0440925";
    object      k;
}
// * * * * * * * * * * * * * * * * * * * * * * * * * * * * * * * * * * * * * //

dimensions      [0 2 -2 0 0 0 0];

internalField   nonuniform List<scalar> 
3927
(
0.331207
0.365177
1.10042
0.552189
0.336301
0.868015
0.828121
0.361869
0.337343
0.36708
0.330855
0.343448
0.343638
0.453409
0.342893
0.832002
0.35044
0.358581
0.370955
0.876603
0.526537
0.664264
0.540343
0.428396
0.377588
0.368026
0.334771
0.332432
0.806389
0.372281
0.373432
0.331961
0.369891
0.335221
0.361656
0.361993
0.386756
0.346272
0.445285
0.376812
0.355353
0.578716
0.336634
0.382628
0.353779
0.580507
0.384367
0.592794
0.349006
0.378435
0.363128
0.461049
0.562636
0.329781
0.332225
0.334637
0.38558
0.484532
0.343273
0.357333
0.507893
0.363506
0.409473
0.376588
0.365721
0.357428
0.350444
0.374832
0.453069
0.680105
0.361918
0.35037
0.63152
0.427465
0.565274
0.511682
0.483196
0.40093
0.38996
0.378559
0.329904
0.694771
0.363948
0.356297
0.394993
0.350231
0.334938
0.76924
0.894301
0.577515
0.843946
0.506365
0.328164
0.35614
0.348141
0.655967
0.893894
0.376778
0.365364
0.506279
0.470302
1.35064
0.385943
0.923815
0.363968
0.357726
0.340639
0.343693
0.373684
0.352381
0.350414
0.743843
0.417579
0.331005
0.531942
0.885121
0.349075
0.368736
0.538838
0.330274
0.39336
0.335973
0.365398
0.752776
0.342059
0.344044
0.337873
0.337753
0.340965
0.325995
0.328828
0.69209
0.811728
0.817879
0.825063
0.508714
0.415828
0.451725
0.898761
0.360618
0.858605
0.890131
0.364118
0.399145
0.332993
0.934038
0.895021
0.886475
0.380235
0.382909
0.35329
0.355278
0.360793
0.345205
0.383871
0.330669
0.880039
0.368649
0.350725
0.355945
0.392858
0.3395
0.376815
0.347585
0.697691
0.490994
0.532261
0.797515
0.438462
0.771445
0.379777
1.04291
0.838926
0.900742
0.507818
0.894623
0.973758
0.723
0.976111
0.406502
0.339425
0.62994
0.391291
0.968703
0.555453
0.387455
0.371161
0.801121
0.551097
0.382451
0.380512
0.454198
0.759921
0.351905
0.360724
0.747208
0.360441
0.926122
0.844519
0.37639
0.421999
0.444875
0.333087
0.44122
0.54165
0.494444
0.386667
0.889819
0.332925
0.343076
0.416118
0.681142
0.510715
1.01301
0.447581
0.425484
0.553317
0.764652
0.552481
0.428372
0.852903
0.401087
0.473989
0.575684
0.819132
0.982819
0.447597
0.582723
0.442684
0.358523
0.383041
0.355255
0.376983
0.377751
0.361916
0.375755
0.567253
0.329977
0.361615
0.427006
0.394778
0.589516
0.853937
0.728385
0.365603
0.799946
0.336741
0.455447
0.370891
0.36177
0.597827
0.39135
0.356923
0.332002
0.329203
0.378372
0.354374
0.430601
0.395837
0.402006
0.37993
0.486059
0.37381
0.448385
0.403616
0.480022
0.639776
0.608777
0.551316
0.356617
0.540838
0.590969
0.366323
0.35115
0.344137
0.427548
0.357323
0.328767
0.374052
0.353763
0.711292
0.380711
0.350046
0.55857
0.42575
0.679619
0.425167
0.82164
0.651945
0.374093
0.835145
0.616518
0.396722
0.348652
0.361254
0.417605
0.639694
0.792001
0.566967
0.695038
0.399776
0.655547
0.701274
0.417385
0.376046
0.386451
0.463565
0.444735
0.819304
0.367845
0.374355
0.607289
0.406202
0.382996
0.333099
0.395967
0.581325
0.375294
0.329196
0.416324
0.56516
0.867992
0.381841
0.455919
0.427837
0.336978
0.536318
0.414353
0.609474
0.394743
0.439663
0.36349
1.0451
0.786761
0.813459
0.337007
0.797867
0.701985
0.329591
0.349831
0.838409
0.371101
0.739311
0.481426
0.341603
0.38233
0.379553
0.454928
0.584734
0.697279
0.373499
0.428646
1.19755
0.668993
0.381379
0.427174
0.33292
0.79385
0.822385
0.360867
0.450529
0.554665
0.734579
0.358486
0.469178
0.484191
0.384861
0.601007
0.955538
0.793074
0.66445
0.413239
0.337205
0.490523
0.371915
0.389718
0.422736
0.40467
0.749606
0.753347
0.421424
0.748159
0.8933
0.458872
0.376575
0.415538
0.432733
0.58176
0.333286
0.696441
0.441375
0.584363
0.426224
0.549576
0.791281
0.386992
0.730468
0.376699
0.452282
0.844558
0.494057
0.624297
0.793544
0.429416
0.573458
0.361363
0.570896
0.334455
0.417906
0.862896
0.447854
0.396643
0.33221
0.458231
0.329092
0.332109
1.15665
0.582841
0.798529
0.377633
0.540574
0.326868
0.441408
0.433372
0.339614
0.442013
0.769519
0.458576
0.395611
0.892636
0.484868
0.467156
0.581133
0.464572
0.452169
0.564494
0.700276
0.434407
0.339499
0.489907
0.333287
0.339824
0.691316
0.817919
0.336416
0.712054
0.335395
0.482374
0.346294
0.360089
0.716484
0.358473
0.475267
0.778877
0.515686
0.472054
0.365458
0.587219
0.379507
0.541575
0.819422
0.416205
0.645276
0.348127
0.691644
0.535635
0.410723
0.834663
0.993022
0.701674
0.614947
0.429091
0.928381
0.392008
0.555553
0.743075
0.67915
0.370684
0.385571
0.337268
0.346498
0.35439
0.33108
0.357173
0.364203
0.347249
0.819942
0.40362
0.489729
0.359331
0.686633
0.353357
0.345098
0.348679
0.394119
0.593317
0.646366
0.477272
0.679099
0.796594
0.485061
0.626567
0.855513
1.05308
0.395782
0.890458
0.714055
0.406826
0.413281
0.408016
0.473435
0.402254
0.478242
0.358482
0.373479
0.419738
0.718623
0.369354
0.347362
0.660087
0.949933
0.751002
0.481445
0.735203
0.372525
0.491207
0.861363
0.351976
0.526608
0.405735
0.389846
0.383533
0.530525
0.406646
0.437844
0.434086
0.350437
0.366691
0.423763
0.452296
0.481445
0.40877
0.519505
0.519239
0.643558
0.460941
0.495309
0.586832
0.520779
0.359938
0.507134
0.633792
0.665393
0.346998
0.368151
0.49998
0.570202
0.519539
0.477765
0.445513
0.715481
0.550769
0.781126
0.592403
0.4963
0.905906
0.864566
0.4416
0.538954
0.586826
0.387434
0.476767
0.330114
0.333457
0.334569
0.336456
0.334501
0.343069
0.334644
0.332471
0.348128
0.345857
0.336826
0.332936
0.33432
0.334483
0.333286
0.655872
0.931426
0.44286
0.345483
0.367253
0.326381
0.41641
0.323235
0.413457
0.382918
0.513979
0.672648
0.501533
0.606202
0.428755
0.644036
0.722431
0.513153
0.504991
0.587232
0.552485
0.550495
0.541833
0.811424
0.729944
0.349573
0.333731
0.330393
0.350082
0.34224
0.352871
0.33637
0.401342
0.504027
0.4195
0.400613
0.405744
0.414256
0.532146
0.510305
0.332699
0.545889
0.578957
0.572821
0.651143
0.663577
0.467328
0.401566
0.431827
0.380883
0.408764
0.393018
0.400705
0.351533
0.351048
0.346259
0.345631
0.350503
0.331058
0.359067
0.349464
0.334774
0.329619
0.555992
0.416621
0.763756
0.366561
0.356674
0.357962
0.550437
0.558139
0.769683
0.960038
0.351606
0.660614
0.497765
0.479275
0.492811
0.512187
0.78595
0.328081
0.359847
0.361559
0.321345
0.326692
0.32476
0.346955
0.337908
0.338821
0.3438
0.331568
0.333962
1.25766
1.2771
1.0558
1.20033
0.722295
0.567183
0.700549
0.543004
0.666734
0.583966
0.444716
0.484524
0.33891
0.354115
0.350549
0.442565
0.527515
0.43406
0.400784
0.407551
0.383212
0.374652
0.3799
0.508662
0.376869
0.411783
0.376288
0.338961
0.372008
0.384579
0.344872
0.354741
0.375251
0.367897
0.347191
0.381486
0.38572
0.365857
0.365241
0.373645
0.359426
0.370398
0.367598
0.335184
0.327742
0.328146
0.944114
0.747601
0.675259
1.00464
0.778522
0.550715
0.614672
0.353299
0.59874
0.465633
0.418276
0.434471
0.506035
0.484603
0.346574
0.663686
0.334781
0.986941
0.972621
0.804631
0.854711
0.696034
0.605351
0.562954
0.346986
0.819747
0.406621
1.05761
0.777488
0.70365
0.452818
0.390442
0.577286
0.544312
0.43523
1.10499
0.523281
0.608074
0.504205
0.422963
0.444919
0.912003
0.404533
0.411898
0.499266
0.782421
1.07394
0.627706
0.777163
0.446497
0.415615
0.366631
0.477731
0.351599
0.387427
0.36218
0.382749
0.742742
0.537341
0.508134
0.435877
0.551195
0.812479
0.998069
0.510665
0.490494
0.513066
1.13367
0.724165
0.389357
0.463489
0.651987
0.475317
0.578648
0.85156
0.977528
0.598368
0.337745
0.754914
0.671772
0.583458
1.20944
0.951233
0.340334
0.768358
0.584046
0.576532
0.802131
0.354211
0.749382
0.739157
0.77367
0.594007
0.40526
0.488636
0.368583
0.343239
0.328161
0.350703
0.350685
0.3417
0.370052
0.334669
0.333619
0.360028
0.765427
0.976606
0.355674
0.901803
0.400888
0.332966
0.376216
0.408505
0.397894
0.42469
0.40944
0.392318
0.924181
0.361297
0.329771
0.395895
0.430814
0.341726
0.766166
0.484977
0.796437
0.332215
0.566551
0.713951
0.541438
0.367223
0.540538
0.347412
0.497882
0.624721
0.57325
0.421161
0.427592
0.407997
0.384793
0.565438
0.392942
0.416981
0.46085
0.442854
0.344828
0.451667
0.960316
0.35873
0.454406
0.398093
0.538578
0.407612
0.471202
0.766583
0.617229
0.384702
0.32316
0.398608
0.337373
0.396013
0.514823
0.807252
0.829423
0.836303
0.505397
0.746519
0.518569
0.884804
0.57011
0.574268
0.33207
0.52912
0.367605
0.355825
0.74787
0.374551
0.369824
0.368024
0.673125
0.52439
0.337349
0.33708
0.449582
0.901848
0.335251
0.598575
0.577442
0.379306
0.394724
0.376976
0.927509
0.736214
0.35481
0.36986
0.396674
0.537615
0.333396
0.34934
0.507775
0.410159
0.382054
0.388997
0.494097
0.513578
0.354635
0.369461
0.366988
0.322787
0.688534
0.346766
0.511311
0.533521
0.710203
0.547278
0.421884
0.483174
0.522682
0.359801
0.330271
0.348908
0.611762
0.51973
0.619212
0.429002
0.640895
0.586087
0.760858
0.475539
0.334617
0.353875
0.364585
0.382458
0.976539
0.334487
0.394427
0.359905
0.357245
0.347322
0.497437
0.874185
0.336105
0.956321
0.331468
0.378824
0.352021
0.348716
0.418174
0.339655
0.414056
0.394484
0.353645
0.322964
0.840183
0.329082
0.979975
1.08057
0.367567
0.36142
0.437026
0.441093
0.52306
0.462426
0.355546
0.329331
0.346342
0.521093
0.490837
0.551319
0.43185
0.958953
0.596084
0.80972
0.858318
0.333151
0.974454
1.16364
0.773744
0.525191
0.34718
0.553088
0.369098
0.82786
0.518398
0.343112
0.442422
0.579722
0.463829
0.416118
0.495519
0.339706
0.46171
0.431809
0.950986
0.535063
0.450578
0.598402
0.359078
0.345182
0.351552
0.507743
0.342637
0.355275
0.681358
0.587929
0.440083
0.50081
0.40333
0.837666
0.389006
1.22535
0.787753
0.488123
0.36463
0.356171
0.348933
0.854277
0.479308
1.05054
0.500093
0.348065
1.04352
0.454828
0.798788
0.973656
0.318618
0.366693
0.374854
0.344927
0.540472
0.917778
0.36829
0.792536
0.510061
0.810189
0.54685
0.823638
0.384287
0.333168
0.526974
0.890764
0.761769
0.390313
0.614669
0.601815
0.350393
0.552578
0.802387
0.609202
0.333854
0.476473
0.791368
0.726533
0.437977
0.400861
0.343986
0.342718
0.867776
0.815073
1.19646
0.369354
0.613978
0.979538
0.353085
0.94028
0.719797
0.800117
0.387918
0.337212
0.338197
0.346666
0.965708
0.874423
0.834534
0.876315
0.475998
0.920329
0.348458
0.387812
0.352737
0.83666
1.15661
0.764368
0.569121
1.05953
0.336836
0.367753
0.363492
0.371505
0.672855
0.38821
0.355076
0.407422
0.534924
0.345381
0.388192
0.325516
0.416316
0.346147
0.491725
0.348146
0.393774
0.834934
0.583453
0.475616
0.795492
0.347982
0.742338
0.375751
1.02186
0.404338
0.327439
0.847755
0.538702
0.740982
0.326415
0.343165
0.642261
0.614991
0.512574
0.526942
0.681715
0.70869
0.530051
0.567656
0.370684
0.356184
0.415754
0.362436
0.448626
0.327602
0.357545
0.3658
0.382372
0.378321
0.359509
0.377653
0.583443
0.579657
0.354999
0.490999
0.502407
1.03041
0.86813
0.688063
0.594062
0.345599
0.702447
0.345574
0.36248
0.349748
0.471861
0.367782
0.373247
0.354471
0.475332
0.713806
0.68846
0.451579
0.382234
0.601636
0.40897
0.388669
0.334973
0.476804
0.393587
0.417877
0.661112
0.481929
0.673773
0.53348
0.761792
0.427533
0.359675
0.868642
0.351385
0.827024
0.375855
0.660556
0.551763
0.442423
0.38452
0.650783
0.848703
0.785599
0.388461
0.41296
0.35449
0.373737
0.360495
0.344668
0.368568
0.379266
0.534283
0.586176
0.670713
0.378303
0.476883
0.430456
0.367674
0.444913
0.377434
0.383053
0.500584
0.521394
0.573386
0.849416
0.590851
0.82326
0.402728
0.820766
0.559674
0.441789
0.792201
0.534034
0.494479
0.338146
0.399145
0.33672
0.337198
0.334064
0.333568
0.332769
0.38996
0.360953
0.7087
0.77792
0.753287
0.683405
0.447969
0.340316
0.644914
1.45003
0.369964
0.341911
0.438469
0.755483
0.465997
0.846356
0.376199
0.345356
0.335387
0.951663
0.486309
0.863621
0.392465
0.379465
0.400398
0.436568
0.447566
0.614731
0.406203
0.702759
0.647602
0.593187
0.33807
0.36185
0.521177
0.351787
0.343505
0.350578
0.347265
0.331958
0.425105
0.340268
0.346408
0.338755
0.446522
0.373535
0.406765
0.332761
0.644209
0.626703
0.772385
0.828331
1.03349
0.33835
0.434029
0.391149
0.418917
0.377003
0.546525
0.600665
0.378427
0.767413
0.766848
0.561011
0.337916
0.428358
0.54678
0.904284
0.731898
0.348062
0.362318
0.336595
0.384228
0.340652
0.342547
0.332459
0.336134
0.332716
0.335307
0.332315
0.347039
0.355777
0.390627
0.341926
0.346675
0.336505
0.396392
0.340615
0.358285
0.331541
0.346557
0.357687
0.338088
0.340717
0.340506
0.339274
0.409509
0.322506
0.338135
0.353752
0.356845
0.340795
0.329453
0.335106
0.333752
0.479711
0.364991
0.329857
0.391978
0.337036
0.332699
0.333715
0.419041
0.432049
0.340356
0.364084
0.332321
0.337762
0.3443
0.356602
0.333207
0.36695
0.742165
0.511943
0.551485
0.343865
0.347664
0.340736
0.354336
0.603088
0.375518
0.918546
0.851451
0.369795
0.334025
0.347411
0.747959
0.328798
0.369921
0.341728
0.377109
0.960028
0.708834
0.329679
0.463804
0.763437
1.16977
0.645708
0.825572
0.550081
0.989148
0.783432
0.594556
0.623202
0.534225
0.423322
0.877879
0.339193
0.988406
0.7637
0.738985
0.776756
0.849216
0.529756
1.01846
0.478628
0.390852
0.593862
0.893972
0.36827
0.798928
0.906928
0.544835
0.351265
0.448151
0.838441
0.737699
0.726097
0.766679
0.749381
0.671099
0.775232
0.711041
0.657231
0.639489
0.574742
0.602205
0.488446
0.861063
0.360137
0.868208
0.350709
0.350198
0.356236
0.785664
0.696914
0.838662
0.868275
0.450415
0.345942
0.338707
0.352127
0.318805
1.69222
0.578875
0.958558
1.19102
0.555746
0.916172
0.797621
0.908005
0.350973
0.345398
0.35841
0.77432
0.893034
0.332625
0.3278
0.620496
0.355279
0.399258
0.360857
0.466689
0.355862
0.772493
0.805735
0.507637
0.35254
0.828813
0.415041
0.48666
0.340669
0.343693
0.321241
0.927948
0.909744
0.926601
0.755999
0.326474
1.11505
0.746312
0.489004
1.03617
0.99011
0.813601
0.556818
0.847807
0.503481
0.596002
0.39975
0.366893
0.462705
0.503363
0.595645
0.415905
0.880458
0.402252
0.402558
0.353508
0.324787
0.343224
0.332826
0.323801
0.323376
0.367325
0.589109
0.693582
0.834229
0.750831
0.439975
0.35359
0.342051
0.336232
0.348145
0.392003
0.327078
0.409339
0.374375
0.32743
0.355174
0.677795
0.55107
0.467071
0.445768
0.486732
0.388757
0.426295
0.77349
0.395081
0.393508
0.430992
0.3609
0.388251
0.325628
0.635627
0.737321
0.328872
0.392725
0.336998
0.333379
0.361457
0.369646
0.363074
0.336947
0.330599
0.384568
0.380342
0.720252
0.33738
0.40468
0.335551
0.344818
0.339721
0.34099
0.332399
0.436455
0.669028
0.407292
0.372696
0.358996
0.462457
0.366296
0.352186
0.398187
0.690315
0.438521
0.432225
0.364085
0.382088
0.465353
0.654853
1.01881
0.387868
0.635527
0.636424
0.362636
0.391939
0.326458
0.787674
0.487734
0.558348
0.358275
0.352034
0.367131
0.901531
0.966196
0.979393
0.329654
0.330832
0.347935
0.625866
0.341392
0.498595
0.36672
0.50639
0.329205
0.573795
0.852173
0.851309
0.763529
0.363568
0.643074
0.738838
0.663344
0.393103
0.388695
0.355856
0.58713
0.383858
0.578691
0.498862
0.356572
0.348549
0.40178
0.356834
0.344813
0.390245
0.743771
0.385289
0.979158
0.840458
0.454682
0.838973
0.520462
0.899899
0.36687
0.421448
0.502747
0.831554
0.338494
0.79748
0.566966
0.460261
0.917949
0.90177
0.462395
0.667247
0.718516
0.900908
0.743623
0.414955
0.985393
0.350188
0.335366
0.702602
0.6099
0.784628
0.624323
0.575362
0.765986
1.01117
0.771512
0.905868
0.564885
1.04394
0.343353
0.366847
0.830557
0.482775
0.453827
1.02379
0.447049
0.328945
0.347362
0.354927
0.785771
0.394488
0.365469
0.401806
0.712465
0.908707
0.93808
0.90443
0.573553
0.36014
0.35216
0.412966
0.928857
0.396635
0.402122
0.338188
0.348757
0.461974
0.639351
0.410542
0.380691
0.926491
0.55694
0.330978
0.902485
0.560507
0.786673
0.466393
0.597396
0.338563
0.425828
0.530057
0.381245
0.332538
0.344448
0.378213
0.344383
0.379975
0.34285
0.482968
0.724143
0.731606
0.781048
0.861363
0.376181
0.337357
0.356667
0.390048
0.334672
0.403373
0.396732
0.875079
0.376205
0.396427
0.426492
0.684088
0.378664
0.380383
0.795795
0.874402
0.702688
0.896842
0.834073
0.737674
0.811133
0.806778
0.717368
0.796335
0.400371
1.12356
0.367523
0.754196
0.385229
0.399938
0.385501
0.369679
0.327452
0.336197
0.347285
0.343685
0.360189
0.76046
0.919009
0.845791
1.35639
0.634828
0.440385
0.432002
0.449496
0.616927
0.414659
0.563315
0.552718
0.6906
0.562368
0.501424
0.335442
0.725216
0.333812
0.339044
0.337499
0.453299
0.937888
0.898292
0.854194
0.432093
0.795032
0.657108
0.324421
0.321824
0.34898
0.924879
1.05923
0.68996
0.327211
0.455029
0.621941
0.440744
0.691694
0.776164
0.950765
0.771362
0.389712
0.361388
0.424137
0.363156
0.489649
0.498621
1.02306
0.387803
0.346725
0.327017
0.3634
0.407218
0.860227
0.942635
1.07896
0.648624
0.343068
0.356255
0.338136
0.415453
0.706148
0.835636
0.354951
0.346011
0.371011
0.329867
0.348691
0.336065
0.334792
0.361212
0.339187
0.345388
0.382337
0.387853
0.367879
0.413748
0.348332
0.352147
0.35748
0.344859
0.328851
0.470984
0.674826
0.747263
0.504144
0.411802
0.385406
0.695386
0.404077
0.457662
0.61489
0.378936
0.445771
0.50317
0.548522
0.556537
0.51335
0.940645
0.840949
0.528854
0.354384
0.336597
0.35861
0.37293
0.408323
0.467242
0.375989
0.465218
0.46465
0.40215
0.350258
0.475192
0.440197
0.390665
0.45604
0.421881
0.653083
0.427529
0.828412
0.991819
1.04401
1.15891
0.757018
0.85012
0.369317
0.341151
0.361377
0.382455
0.336208
0.333052
0.330917
0.430845
0.350329
0.685689
0.437532
0.414904
0.534618
0.764733
0.473015
0.471001
0.422103
0.565302
0.426617
0.66863
0.565396
0.383811
0.484202
0.482973
0.50045
0.378338
0.674908
0.532365
0.471593
0.48239
0.712044
0.370106
0.35651
0.381374
0.369909
0.365362
0.369321
0.36735
0.330832
0.368772
0.363836
0.36676
0.37657
0.357087
0.346067
0.558601
0.354217
0.386614
0.346417
0.390941
0.337035
0.358097
0.892904
0.341534
0.357718
0.3232
0.35378
0.359953
0.57231
0.651009
0.331485
0.369798
0.351313
0.88326
0.334349
0.336624
0.721329
0.352645
0.398312
0.763229
0.400992
0.567218
0.473605
0.419786
0.397618
0.378641
0.379202
0.327762
0.806104
0.367512
0.368874
0.348605
0.547987
0.335652
0.416456
0.372854
0.36193
0.575123
0.34052
0.327467
0.336896
0.351941
0.344545
0.671187
0.37408
0.343456
0.352183
0.361468
0.483614
0.32488
0.335259
0.337101
0.339096
0.366048
0.513257
0.612894
0.890734
0.844119
0.872167
0.867206
0.816092
0.545873
0.831933
0.667208
1.04397
1.32505
0.859069
0.426784
0.729138
0.866087
0.623093
0.709925
0.379109
0.57394
1.10985
1.03936
0.829343
0.762629
0.374711
0.807053
0.444921
0.520617
0.710942
0.981007
0.703808
0.9159
0.508944
0.952336
0.690204
0.706059
0.567979
0.596782
0.878109
0.504261
0.507585
0.522036
0.790677
0.775
0.377706
0.472819
0.652178
0.831255
0.47908
0.459389
0.438703
0.614039
0.465091
1.07472
0.404819
0.959066
0.919329
1.04433
0.918968
0.88329
0.721762
0.944343
0.456818
0.907764
0.444141
0.451552
0.474259
0.549378
0.9579
0.957739
0.945358
0.977575
0.449248
0.878233
0.978692
0.802609
0.848416
0.94996
0.854892
0.80624
0.606447
1.03125
0.338713
0.366473
0.363925
0.360295
0.347073
0.372386
0.336712
0.618888
0.519339
0.554921
0.397435
0.334956
0.555943
0.375826
0.334974
0.355438
0.332247
0.670126
0.338599
0.332052
0.510796
0.748646
0.901558
0.527268
0.552884
0.471255
0.611351
0.665734
0.771722
0.744301
0.705691
0.74566
0.896536
0.473012
0.758501
0.519038
0.347828
0.341655
0.370467
0.334931
0.623157
0.40142
0.351057
0.752292
0.334263
0.528454
0.455033
0.318528
0.345623
0.329962
0.357899
0.340746
0.782013
0.354867
0.349622
0.550582
0.367405
0.397535
0.437426
0.329443
0.493253
0.338892
0.330026
0.372175
0.365372
0.395207
0.426048
0.410536
0.495479
0.436431
0.39563
0.366991
0.368567
0.453801
0.408835
0.386482
0.65006
0.355797
0.716483
0.799292
0.460098
0.428051
0.500825
0.745302
0.49303
0.447006
0.748217
0.636782
0.525621
0.584486
0.588704
0.507994
0.731393
0.957012
0.602605
0.822743
0.818852
0.97779
0.493841
0.429297
0.433609
0.388915
0.351049
0.813685
0.45057
0.377132
0.831811
0.447662
1.23799
0.459985
0.457334
0.423078
0.557684
0.585435
1.48805
0.623475
0.509535
0.395704
0.892284
0.750483
0.435177
0.533316
0.418349
0.75309
0.778453
0.762428
0.34879
0.640682
0.353993
0.75357
0.729947
0.336429
0.42709
0.355566
0.509552
0.469966
0.890409
0.785831
0.656687
0.402537
0.419308
0.375201
0.415258
0.378712
0.340918
0.329372
0.451204
0.935089
0.741313
0.568188
0.447202
0.395718
0.469849
0.812013
0.404459
0.554485
0.361196
0.370379
0.485503
0.400103
0.369194
0.382701
0.714047
0.713673
0.359324
0.391937
0.955231
0.444723
0.878493
0.671606
0.766412
0.369666
0.374269
0.321831
0.344087
0.883226
1.02904
0.921215
0.794009
0.417129
0.335882
0.331196
0.367623
0.752428
0.483808
0.519603
0.33408
0.341963
0.359034
0.358619
0.674157
0.836597
0.748639
0.858037
0.582281
0.781336
0.880296
0.354199
0.358361
0.354254
0.351479
0.851747
0.353468
0.817082
0.792653
0.908997
0.537746
1.04153
0.613392
0.449176
0.531579
0.350771
0.350967
0.88237
0.575672
0.519292
0.487396
0.422512
0.328617
1.13658
0.34866
0.35255
0.335024
0.643846
0.352989
0.90471
0.608707
0.749692
0.632989
0.456369
0.450329
0.620704
1.08859
0.322132
0.338364
0.320625
0.335474
0.336657
0.692851
0.343996
0.389775
1.00204
0.361441
0.490106
0.411604
0.7907
0.459129
0.411641
0.459853
0.424763
0.438316
0.376385
0.511757
0.874236
0.467209
0.461439
0.737984
0.401809
0.337139
0.340191
0.413888
0.339508
0.338137
0.340892
0.333827
0.406908
0.350468
0.383378
0.379061
0.338012
0.389728
1.26576
0.338787
0.666678
0.384814
0.681231
0.412517
0.372768
0.477077
0.574437
0.441503
0.808944
0.726994
0.76448
0.843073
0.733692
0.400309
0.965635
0.363001
0.408851
0.441215
0.884525
0.480861
0.448673
0.342724
0.933643
0.698939
0.342261
0.479825
0.35052
0.47316
0.386544
0.394353
0.333541
0.331226
0.374985
0.390011
0.868845
0.814139
0.33696
0.478134
0.335818
0.735603
0.826995
1.30881
0.926517
0.694994
0.974282
0.369178
0.340451
0.84946
0.359988
0.364587
0.360031
0.326889
0.450455
1.10814
0.347798
0.333882
0.397795
0.486757
0.438739
0.34531
0.434733
0.351981
0.344128
0.419036
0.449575
0.436065
0.396602
0.336507
0.489592
0.394985
0.457954
0.347703
0.351179
0.449769
0.534769
0.659825
0.872764
0.340105
0.441066
0.53412
0.349496
0.782296
0.522385
0.340395
0.997451
0.527649
0.429589
0.654877
0.614665
0.64613
0.434196
0.331337
0.516746
1.25758
0.370733
0.34264
0.412849
0.484843
0.396589
0.376868
0.857014
0.471509
0.84782
0.335845
0.389599
0.3595
0.368037
0.353633
0.455006
0.972731
0.554426
0.588957
0.448307
0.428198
0.34901
0.419483
0.410384
0.331989
0.34592
0.394968
0.61795
0.448087
0.819966
0.37161
0.577545
0.712331
0.513059
0.71758
0.59605
0.81711
0.330245
0.675309
0.500893
0.441399
0.942294
0.427185
0.763192
0.418278
0.926783
0.603567
0.359564
0.33316
0.841528
0.808657
0.334715
0.486995
0.343577
0.828646
0.878969
0.495035
0.375538
0.329401
0.564605
0.342057
0.439274
0.3632
0.353523
0.361603
0.413234
0.405623
0.6454
0.38076
0.72777
0.474003
0.376599
0.68145
0.400627
0.375122
0.715784
0.414739
0.489611
0.412314
0.357744
0.673888
0.451719
0.667737
0.72317
0.402234
1.00925
0.39371
0.339212
0.764513
0.474341
0.429982
0.531117
0.717191
0.654887
0.745618
0.596066
0.631403
0.351563
0.786073
0.763683
0.583342
0.899257
0.685606
0.573597
0.687723
0.559655
0.467949
0.581534
0.495833
0.793573
0.342526
0.422157
0.856971
0.433436
0.564916
0.747578
0.93952
0.527307
0.362456
0.422005
0.445811
0.343142
0.393542
0.340155
0.329598
0.350965
0.386764
0.346866
0.329294
0.452139
0.500567
0.713964
0.346877
0.334207
0.335921
0.365097
0.958162
0.365168
0.333946
0.36195
0.337906
0.371865
0.33075
0.360055
0.331622
0.447457
0.506224
0.403052
0.892213
0.366424
0.356556
0.556842
0.658887
0.555104
0.504375
0.499405
0.847274
0.421881
0.848526
0.782345
0.339175
0.344591
0.337033
0.384164
0.726676
0.920633
0.838183
0.328574
0.340792
0.35111
0.336036
0.486664
0.474212
0.49933
0.4236
0.482376
0.348447
0.368999
0.357823
0.349173
0.335913
0.32682
0.332283
0.353967
0.340727
0.495975
0.435268
0.512314
0.742722
0.420467
0.55007
0.854886
0.566891
0.487509
0.370466
0.354778
0.337753
0.336286
0.334631
0.719893
0.456782
0.948048
0.350347
0.346188
0.349464
0.328977
0.331384
0.328435
0.327368
0.323461
0.332727
0.364181
0.335863
0.370572
0.338579
0.364439
0.380021
0.389165
0.381245
0.326131
0.793037
0.357798
0.684648
0.544049
0.362861
0.365167
0.366782
0.436065
0.44277
0.624164
0.390122
0.35474
0.370996
0.337505
0.515806
0.471057
0.502263
0.339686
0.368019
0.420348
0.385702
0.450202
0.334226
0.348928
0.332508
1.03165
0.859507
0.770064
0.795427
0.345325
0.370198
0.362991
0.542801
0.543192
0.494746
0.801614
0.874595
0.502299
0.580837
0.461692
0.759203
0.949723
0.93057
0.970807
0.368685
0.335325
0.376198
0.323767
0.343188
0.37834
0.365727
0.347207
0.348282
0.337746
0.337455
0.351019
0.361306
0.644549
0.558378
0.745776
0.383294
0.37046
0.344364
0.358029
0.328947
0.333643
0.35747
0.332218
0.326913
0.333466
0.349399
0.347269
0.335397
0.335119
0.923652
0.629755
0.931549
0.902272
0.982969
0.553437
0.972455
1.24982
1.01262
0.336059
0.340721
0.953194
0.335476
0.332406
0.579346
0.509706
0.363115
0.760829
0.450753
0.486631
0.747994
0.829889
0.746926
0.887545
0.991019
1.5172
0.735447
0.67358
0.469612
0.826783
0.800882
0.815725
0.728955
0.576678
0.371521
0.741874
0.44243
0.798743
0.801696
0.591424
0.57551
0.427562
0.430479
1.14757
0.546749
1.02499
0.647019
1.07144
1.0988
2.2567
0.925599
0.778978
0.772236
0.797005
0.328626
0.328438
0.357581
0.334151
0.338801
0.739452
0.357819
0.338871
0.363949
0.328602
0.350103
0.346582
0.361677
0.355394
0.343772
0.345335
0.394602
0.414599
0.355808
0.360972
0.379244
0.348056
0.402676
0.431754
0.405207
0.426668
0.347535
0.321993
0.337033
0.363914
0.364737
0.49196
0.488725
0.420416
0.37078
0.367346
0.40439
0.591491
0.381714
0.697343
0.330847
0.318087
0.334666
0.344102
0.332954
0.907108
0.892497
0.412521
0.595316
0.38438
0.420135
0.36498
0.678343
0.391716
0.431512
0.433168
0.41159
0.400228
0.679892
0.818862
0.414356
0.542714
0.723862
0.346222
0.345998
0.36101
0.348993
0.340974
0.393423
0.44696
0.334194
0.34695
0.334956
0.326993
0.344894
0.345985
0.351935
0.366723
0.364782
0.342601
0.329124
0.487011
0.715998
1.17188
0.376049
0.351729
0.339309
0.331117
0.338811
0.390773
0.425098
0.436942
0.326362
0.34832
0.345105
0.334808
0.365956
0.352603
0.436384
0.397792
0.46621
0.386423
0.687628
0.750866
0.427388
0.891163
0.339165
0.34053
0.399134
0.337681
0.395583
0.370328
0.339077
0.334897
0.339012
0.342977
0.339272
0.404976
0.369554
0.376634
0.431055
0.469418
0.435947
0.513221
0.377447
0.366527
0.739106
0.436483
0.849764
0.605648
0.443085
0.574757
0.754495
0.410432
0.466804
0.421209
0.730437
0.399655
0.95914
1.19711
1.25979
0.407845
0.531934
1.00901
0.577249
0.73637
0.423295
0.562159
0.64684
0.441374
0.396295
1.61084
0.366145
0.522142
0.401739
0.409853
0.334673
0.86509
0.626796
0.830041
1.03423
0.421206
0.660478
0.850035
0.613075
0.610254
0.439223
0.360745
0.418153
0.38309
0.937446
1.13655
0.910063
0.480076
1.15484
0.851796
0.321041
0.491282
0.322017
0.561306
0.460095
0.350322
0.503661
0.476797
0.324225
0.341257
0.322428
0.57744
0.536531
0.375176
0.36607
0.543127
0.506046
0.418181
0.341277
0.691713
0.508947
0.842398
0.535055
0.351832
0.838991
0.337903
0.587851
0.879246
0.853359
0.937057
0.824592
0.803145
0.79318
0.535577
0.726469
0.353928
0.328485
0.331771
0.414957
0.586522
0.72059
0.519347
0.90096
0.996171
0.528294
0.561323
0.505749
0.755601
0.42683
0.416415
0.495274
0.858567
0.618556
0.335505
0.33981
0.742538
0.494568
0.491023
0.365082
0.484469
0.453748
0.39281
0.34925
0.428082
0.534479
0.332582
0.535044
0.385173
0.378747
0.374379
0.34201
0.449609
0.358003
1.08878
0.35735
0.323052
0.331533
0.850121
0.413142
0.486076
0.552678
1.12701
0.824943
0.416702
0.781779
0.398115
0.482328
0.335621
0.369408
0.756105
0.521514
0.348372
0.592601
0.539997
0.505674
0.342157
0.345491
0.380281
0.334304
0.343068
0.361842
0.357092
0.845989
0.753651
0.500981
0.969131
0.697929
1.04792
0.349468
0.335729
0.350382
0.400751
0.492953
0.479154
0.686062
0.717109
0.635711
0.752508
0.381598
0.718047
0.8991
0.359303
1.02028
0.701369
0.84923
0.414375
0.377388
0.636288
0.331232
0.326861
0.961397
0.353494
0.579492
0.502132
0.364767
0.397757
0.968768
1.08333
0.582904
0.923663
0.343714
0.848484
0.590993
0.74045
0.62167
0.844633
0.796815
0.491168
0.877747
0.336434
0.335997
0.488763
0.728863
0.788343
0.545416
0.376856
0.332556
0.352895
0.364498
0.492405
0.49258
0.41677
0.413382
0.3809
0.340415
0.344885
0.345376
0.758836
0.369476
0.399576
0.360722
0.353701
0.333676
0.328228
0.354487
0.340012
0.35627
0.41206
0.447547
0.360266
0.355987
0.424207
0.381829
0.610738
0.345865
0.605502
0.353295
0.403553
0.402972
0.455569
0.420981
0.555025
0.421314
0.349644
0.531233
0.650831
0.767481
0.428795
0.570152
0.771062
0.383655
0.341153
0.370424
0.359926
0.343533
0.395935
0.369148
0.448913
0.596561
0.607076
0.888635
0.614373
0.637157
0.403029
0.332506
0.511969
0.464878
0.3634
0.414333
0.341467
0.337684
0.334075
0.707022
0.38035
0.341287
0.546621
0.665325
0.704815
0.371032
0.334337
0.332259
0.369101
0.47571
0.353433
0.410885
0.427436
0.447903
0.429543
0.541807
0.458511
0.952923
0.446383
0.330962
0.364736
0.356441
0.350184
0.358553
0.335253
0.507736
0.365167
0.408421
0.706249
0.355821
0.330595
0.360216
0.369905
0.383415
0.329563
0.344884
0.388607
0.392294
0.373486
0.488139
0.402568
0.348196
0.375099
0.371405
0.387525
0.508212
0.451449
0.440567
0.712961
0.470545
0.68431
0.35714
0.433131
0.558508
0.678927
1.28075
0.332057
0.729502
0.671036
0.357333
0.362157
0.328452
0.356543
0.357523
0.369099
0.346058
0.337588
0.341227
0.331377
0.335467
0.322919
0.435919
0.353206
1.177
0.468618
0.954919
0.743002
0.742233
0.600899
0.780329
0.570617
0.730884
0.674892
0.704391
0.426217
0.807399
0.904114
0.385113
0.351049
0.852362
0.972031
1.06022
0.403865
0.336437
0.944104
1.06934
0.817805
0.5148
0.335265
0.512417
0.531494