/*--------------------------------*- C++ -*----------------------------------*\
| =========                 |                                                 |
| \\      /  F ield         | OpenFOAM: The Open Source CFD Toolbox           |
|  \\    /   O peration     | Version:  2506                                  |
|   \\  /    A nd           | Website:  www.openfoam.com                      |
|    \\/     M anipulation  |                                                 |
\*---------------------------------------------------------------------------*/
FoamFile
{
    version     2.0;
    format      ascii;
    arch        "LSB;label=32;scalar=64";
    class       surfaceScalarField;
    location    "0.0440925";
    object      phi;
}
// * * * * * * * * * * * * * * * * * * * * * * * * * * * * * * * * * * * * * //

dimensions      [0 3 -1 0 0 0 0];

oriented        oriented;

internalField   nonuniform List<scalar> 
7371
(
0.00648166
-0.0127796
0.0126082
-0.0063103
-0.00769727
0.00196447
0.00344005
0.00229275
-0.000939871
0.0014793
0.000267863
-0.000807294
-0.00478588
0.0104587
4.32971e-05
-0.00571607
0.0161961
-0.00575729
-0.00478
-0.00565881
-0.00263509
-0.00103867
0.00392707
-0.000253321
0.000534439
0.00106153
-0.000371045
-0.00122493
0.04694
0.0112911
0.00220249
-0.0604336
0.00506536
-0.0332382
0.0117544
0.000842139
-0.00977361
0.00958316
-0.000651681
-0.0251422
-0.0575074
-0.00905928
-0.0582247
-0.0869426
0.0568979
0.0882694
0.0284793
0.17033
-0.244917
0.0461069
0.00159158
-0.00140664
-0.00141284
0.0012279
0.0533284
-0.0526695
0.0191525
-0.000510532
0.00133722
-0.000668906
-0.000157786
-0.00281945
-0.00555433
0.00162623
0.00674755
0.0612983
-0.0416972
0.0641596
-0.0837608
0.0571998
0.000917734
-0.0581175
0.00116623
-0.000150886
-0.000237669
-0.000777672
-0.000140107
-0.00218708
0.00137613
0.000951058
-0.000159863
-9.77063e-05
-0.00136922
0.00162679
-0.0026349
-0.00116406
-0.00128191
0.00508088
-0.000806647
-0.00266327
0.00141155
0.00205837
-0.0557744
0.0556752
9.91425e-05
-0.00578321
-0.0425554
-0.00743578
0.0458867
0.0138895
-0.0593913
-0.000384791
0.0916179
-0.00269285
-0.0430384
-0.000764684
-0.000403659
-0.00100334
0.00217169
-0.00071252
0.0083859
-0.00833148
0.000658097
0.00786224
-0.0151248
-0.000749658
0.025079
-0.014893
0.0170112
-0.0271972
-0.066401
-0.0232357
0.0896367
0.0251364
-0.1357
0.126212
-0.0156479
-0.0554052
-0.0599253
0.11533
-0.0284242
0.0597135
0.0201022
-0.0513915
0.00318702
0.00371114
0.000817054
-0.00771522
-0.0340752
-0.0380986
0.0993214
-0.0271476
0.000952533
0.00226425
-0.00136616
-0.00185062
-0.0557663
0.0273421
0.0583237
0.0633858
-0.0619959
0.00270409
-0.000312318
0.00100286
-0.00339463
-0.0130485
0.0014341
-0.0118559
0.0234703
0.00361097
-0.00356815
0.000786095
-0.000828906
-0.00164802
0.00359437
0.0060129
-0.00795925
-0.00183355
-0.000646081
-0.00103752
0.00351715
-0.00327719
0.0107598
-0.00733854
-0.000144069
0.000511506
-0.000510715
0.000805997
-0.000806788
0.0106757
-0.061326
0.13298
-0.08233
0.0298997
0.0177068
-0.0476065
0.0341775
-0.0662794
0.0620015
-0.00181304
0.00331367
-0.0011009
-0.000399731
0.00119218
-0.00167707
0.000237285
0.00024761
0.0200102
-0.00227837
0.0144037
0.0157693
-0.0220717
-0.0217426
0.0056182
0.030528
-0.011015
-0.000767454
0.00864186
0.00314063
0.000866712
0.000414067
-0.000670675
-0.000610105
0.0031271
0.00453981
-0.00220787
-0.00545905
0.0116237
0.0054413
-0.00301131
-0.0140537
-0.00178901
0.00104111
0.000563537
0.000184368
-0.0349152
0.0528903
0.041811
-0.0597861
0.00588487
-0.00891389
0.00078607
0.00224295
0.0206157
-0.0555309
0.0266877
-0.0202067
0.0277961
-0.0342772
0.00911106
-0.047648
0.0652247
-0.051841
0.130698
-0.0175589
0.0347591
-0.0694529
0.00133156
0.000330733
-0.00253202
0.00086973
0.00686006
-0.0106991
-0.00187315
-0.0239106
0.0347646
0.0791627
-0.0900168
0.00314446
-0.00956963
0.0026022
0.00382297
-0.00638762
0.0163932
-0.00330472
-0.00670086
-0.0011002
-0.00452406
0.00169723
0.00392703
0.00110886
-0.00269309
0.00396093
-0.0023767
-0.000876273
0.000306012
0.00143697
-0.00162581
-0.000534443
0.00478072
-0.00262047
0.0066148
0.00722662
-0.00948585
-0.00435557
0.000924783
-0.00498814
0.0106782
0.00793721
-0.00712722
0.00153239
-0.00234238
0.0185406
-0.0363693
0.00936144
-0.000514155
0.000508217
-0.000501567
0.000507506
-0.0862951
0.00306903
-0.0657537
0.0695009
-0.00374717
-0.00174724
-0.00182264
0.00766855
-0.00409867
0.0925974
-0.0525478
-0.100383
0.0603333
-0.0266851
-0.0634897
-0.0418813
0.000473095
0.00271874
-0.000285109
-0.00290672
-0.000327327
0.00353561
-0.00110243
-0.00210586
-0.00328149
0.00414273
0.000908091
-0.00176934
0.00042609
-0.000349073
1.15e-05
-8.85166e-05
0.000457507
0.000649493
-0.00177579
0.000668789
0.00217204
-0.013917
-0.0053151
0.01706
-0.0254987
-0.0532553
0.0878651
-0.0598812
-0.0693923
-0.017127
0.146401
-0.000200282
0.00107283
-0.00176038
0.000887833
0.000696785
-0.00209018
0.000453521
0.0300292
-0.0597941
-0.02012
0.0298028
-0.0351815
0.00140792
-0.00369605
0.00135737
0.000930759
0.00496912
-0.00204372
-0.00181653
-0.00164566
0.000303392
0.000864004
0.000478266
0.00202437
-0.00460114
-0.000238552
0.00281532
0.000854781
-0.000157995
-0.0161831
0.00345828
0.0121148
0.000609993
0.0901732
-0.0278512
-0.0326978
-0.0296241
-0.0165235
-0.0435277
0.152649
-0.00789925
-0.00743771
0.00876432
-0.000446062
0.0476806
-0.0615317
0.0162015
0.0680011
-0.02068
-0.0635226
-0.000699262
0.0004642
-0.000330639
0.000565701
0.000890274
0.00161533
-0.00331225
-0.00803701
-0.0160875
0.0166889
0.0074356
-0.00162697
-0.00281773
0.0028189
0.00040335
-7.53475e-05
-0.000781412
0.00045341
0.00345402
8.65947e-05
0.038467
-0.0420077
0.0308644
0.000186013
-0.0275964
-0.00714029
0.00176004
-0.0496389
0.00680109
0.0374707
0.00536717
0.0351541
-0.0352157
6.16032e-05
-0.0189041
-0.0435721
0.0128373
0.0403562
0.00159897
0.00352878
-0.00162286
0.000655259
-0.00256118
-0.00323413
0.0111259
-0.00126176
-0.00663001
0.00721901
-0.0114242
-0.00138714
0.00559231
0.00762948
-0.010909
0.0104985
-0.0181008
0.0119311
-0.00506401
0.0112337
0.0161125
-0.0137209
-0.0204924
-0.0244879
0.0128275
0.0117195
-5.91455e-05
-0.0137293
-0.00312918
-0.00251356
0.000421957
0.00137509
0.000716518
-0.00106558
-2.26932e-05
-0.000481185
0.00156945
0.00109094
0.00159658
-8.47923e-05
-0.000567944
0.000652736
0.00797295
-0.00879788
-0.0179756
0.0188005
-0.00491081
0.0183668
-0.00012256
-0.0133334
-0.00313586
0.000933083
0.00204895
0.00015383
-0.000740104
0.00041466
-3.8471e-05
0.000363915
-0.00542474
0.00681026
0.00262528
-0.0040108
-0.00102115
-0.000129217
-0.00122452
0.000852559
-0.000649185
-0.0036489
0.00206617
0.00505791
0.00394452
-0.00231966
0.00332873
-0.00495359
-0.03819
0.0658086
0.0386813
-0.0662999
-0.000326738
-0.00167736
0.000779569
0.00132075
-0.000468191
0.00119153
0.0234248
0.0161186
-0.0395433
0.043527
-0.0559775
0.042893
0.0428474
-0.0297629
0.0255378
-0.0226194
-0.0653644
0.0255054
-0.0222343
0.105169
-0.0573969
-0.000467413
0.00136576
0.0112777
-0.0121761
-0.0325735
-0.0514103
0.0233088
0.0606749
-0.00108016
-0.000403258
0.00202793
-0.000544507
0.00934654
0.0141162
-0.0234627
-0.00350694
-0.00679671
0.00874705
0.0015566
-0.0194525
0.0390674
-0.00757972
-0.0120352
-0.0258425
0.0258628
-2.02829e-05
0.0636388
0.0392263
-0.155413
-0.0381967
-0.00709833
0.0359525
0.0032015
0.000287415
0.000138675
0.00175691
-0.00104618
-0.000738285
2.75492e-05
0.0017075
-0.00261322
-0.000953656
0.00185938
0.000426531
0.000693948
-0.000357082
-0.000763397
-0.0029084
0.0026701
-0.00129163
0.00152994
0.000706224
-0.000286264
-0.000619092
0.000199132
-0.00241719
0.00135849
0.00724602
-0.00618732
-0.00117171
4.21315e-05
0.000290653
0.000838925
-0.00394618
0.00211982
-0.000478039
0.00230439
-0.00121379
-0.00359022
0.0034727
0.00133131
0.00189973
-0.00164582
0.00150299
-0.00711543
0.00374236
0.00436124
-0.0046426
-0.00155097
0.00183233
0.0015707
-0.000354903
-0.000830648
-0.000385146
0.00663355
-0.00227231
0.00260748
0.00124797
-0.000668434
-0.0505235
0.0586297
-0.00200989
0.000532182
0.00246361
-0.000985903
-0.0354732
-0.00708219
0.00107917
-0.00153873
0.000459564
0.00109206
-0.00146622
-0.000771964
0.00114612
-0.0078045
0.00436029
0.00208124
0.00136296
0.03546
0.0131462
-0.0466565
-0.00194968
0.000622452
-0.000661863
-0.000179269
0.00021868
0.000795281
-0.000230589
0.00109187
-0.00165656
-1.31787e-05
0.0451758
-0.052258
0.00183179
0.0026299
-0.00123242
-0.00322926
-0.000514491
-0.000809574
0.000974991
-0.072843
0.0505078
-0.0149496
0.0372848
-0.0217437
-0.0800814
0.0289821
-0.00145055
0.000793004
0.000657542
-0.00711745
0.00647494
0.00357733
-0.00293482
4.95826e-05
0.00276999
-0.00248225
-0.000337316
0.000588099
-0.000113484
-0.000474615
-0.0557683
0.0340246
-0.00538625
-0.000767326
0.00343418
0.0027194
-0.000826402
-0.00119361
-0.00281504
0.00483506
-0.00600408
0.0187924
-0.0564378
0.0436495
0.00110249
0.000665634
0.000858979
-0.0026271
9.82698e-05
-0.00277872
-0.00394261
0.00662305
0.00345521
-0.0019234
-0.000882924
-0.000648884
-0.00183809
-0.0114898
0.00648245
0.00684543
-7.61176e-05
0.0023953
-0.00353297
0.00258432
-0.00234909
-0.0126276
0.0123924
0.00702347
-0.00424086
-0.010496
0.00771338
-0.0017939
0.00424537
-0.00215465
-0.00029682
0.00026183
0.00106566
-0.000341105
-0.000986385
0.00101094
-0.00180874
0.000159157
0.000638639
-0.00150657
-0.00101735
0.000288503
0.00223542
0.00278427
-0.00970165
0.00435283
0.00256455
0.00127784
0.00278153
-0.00657214
0.00251278
0.00689375
-0.00443237
-0.00503374
0.00257237
0.00054688
-0.000478514
-0.000279766
0.0002114
0.0142207
-0.000412592
-0.00691433
0.00203508
-0.0074852
-0.00279574
0.00824586
-0.00603032
-0.000243622
0.00437279
0.00190115
0.00487579
0.000261894
-0.00476161
-0.000376076
-0.00105809
0.00293675
-0.00292483
-0.000299591
-6.02295e-05
0.000359821
0.000455422
-0.000206412
0.00029787
-0.000164639
0.000574099
0.00233311
-0.00274257
-0.00237251
0.000126215
0.000433254
3.92701e-06
-0.00437992
0.0053711
-0.0009951
-0.00794829
0.00186225
-0.00567034
-0.00818649
-0.0242001
-0.0208687
-0.0403267
-0.00581395
0.00686321
0.0484118
0.059832
-0.0647657
0.0144423
0.0525259
0.000303216
-0.0607368
-0.00121169
0.000348699
0.00132839
-0.000465405
-0.113313
0.0195016
0.0306385
0.0631734
-0.0552468
0.0806778
-0.023112
-0.00231912
0.00222437
-0.00184507
0.00444873
-0.00482803
0.000256803
-0.0555036
-0.00197016
0.00163855
-0.00150195
0.00156367
0.0017619
0.000391998
-0.00371757
-0.001983
0.000687562
-0.00252994
-0.000691346
-0.00358164
5.29618e-05
0.00422002
-0.0562012
0.103317
-0.000527896
0.00340545
0.00347968
-0.00635723
0.0244287
0.0172679
0.0248815
-0.0393519
0.0864421
-0.0364145
-0.00170852
0.00071191
0.000390482
0.0403777
-0.0406027
0.000224993
0.0605327
-0.0209402
0.000785206
0.0696731
-0.108543
0.0763407
0.000246457
0.0697423
-0.000315642
0.00468455
-0.0120169
0.00875308
-0.00142077
-0.000365484
-0.00218143
0.00296985
-0.000422936
0.00330739
-0.000978095
-0.00269478
-0.00230884
-0.00403794
0.0024926
0.00385418
0.0236901
-0.0476006
-8.33561e-05
0.00132163
0.00207539
0.0695237
0.00216031
-0.000864395
-0.00239682
0.00261868
0.00279307
-0.00210437
0.00220716
-0.000276798
0.000229949
-0.000682482
-0.000968004
0.00130466
0.00034583
-0.00122774
-0.000127659
0.00067292
-7.18319e-05
-0.00014497
0.129984
0.00133048
-0.00120558
-0.000196738
0.000631051
-0.00026857
0.0644624
-0.0608256
-0.00363684
0.00631872
0.00366076
-0.00683501
-0.0074121
-0.00556977
0.0142138
-0.00123198
-0.00630099
-0.00501367
0.00506048
0.00625418
0.00421669
0.00467879
-0.0049184
-0.00397708
-0.00827495
0.0221954
-0.0188968
0.00497634
0.000463668
0.00199827
-0.00931261
0.00685067
-0.00170502
0.0111815
0.000857718
-0.0103342
0.00897828
-0.0138435
-0.000391052
0.00142672
-0.0073394
0.00856552
-0.00265284
0.00262476
0.0151016
-0.0181545
0.000428148
0.0026137
-0.00142903
0.000986593
-0.00217126
-0.00189669
-0.00244868
0.00156272
0.00278265
-6.42233e-05
-0.000762397
0.00082662
0.00592506
0.00051463
-0.00358328
-0.00285642
-0.000608497
-0.000779695
0.000293951
0.00109424
-0.00307872
0.000384483
-0.00152714
0.00422138
0.0172081
-0.0230162
7.33134e-05
-0.000241535
0.000481959
-0.000313738
-0.00448801
0.00201184
-0.000602549
-0.00412612
-0.00468981
0.00505454
0.0037614
0.0092064
-0.0104796
0.000228812
0.00104437
0.000853762
0.00476827
0.0109758
-0.0165978
-0.0169254
-0.00204465
0.0128327
0.00613742
3.8535e-05
0.000491251
-0.00156416
0.00103437
0.00091237
0.0028338
-0.00304625
-0.00069991
-0.00115919
0.000955242
-6.95521e-05
0.000273496
-0.0018157
-0.00177998
0.00108212
-0.00144716
-0.00511902
0.00770559
-0.0011394
0.000221426
0.000686499
0.000185555
-0.00109348
-0.00065393
0.000171354
0.000482576
-0.00180054
-0.000884812
2.20827e-05
-0.00251103
-0.00993627
-0.00141215
0.0138594
-0.000924747
0.00127531
0.00463448
-0.00498504
-0.00067636
0.000573136
0.00272704
-0.00262381
-0.000577764
0.00191055
-0.00486939
0.0035366
-0.00112409
0.000514199
0.00059486
1.50347e-05
0.0032132
0.00210809
-0.00576713
0.000445843
-0.0109008
0.000433015
0.0026633
0.000387071
-0.000738446
0.00154355
0.00679854
0.000616144
-0.000188063
-0.0100688
0.00500376
0.00973738
-0.00467231
0.0258714
0.0606995
-0.124761
-0.00478199
-0.00166736
0.00317217
-0.00196279
-0.0151252
0.00804295
0.0036898
0.00250391
-0.0084351
0.00224139
-0.00484286
0.0090985
-0.0139424
-0.00822849
0.0172538
-0.00491626
-0.00410909
0.00157429
-0.00320274
0.00311094
-0.00148249
-0.000410762
0.000851825
-0.000441063
0.00511983
-0.00556885
0.00016222
0.000286807
0.00386648
-0.00661293
0.000942899
0.00180355
0.000416971
0.00273427
-0.000308786
-0.00284245
-0.00042589
-0.00941565
-0.000113611
0.00995515
0.00468041
-0.00427798
-0.000996714
-0.000519674
-0.00386986
-0.00149347
0.000929081
0.000364109
0.00165562
0.0023579
-0.01153
0.00751646
0.000964413
-0.00150523
-0.000659954
0.00120077
0.0539276
-0.0787638
0.0248361
0.00122736
0.00153798
-0.00164181
-0.00112353
-0.00278925
-0.00128234
0.00407159
-0.00163236
0.00079568
0.000836682
-0.0572586
0.0890609
0.00436772
-0.03617
0.00171123
-0.000897767
-0.000459393
-0.00035407
-0.000467303
0.00217853
0.0356604
0.00394764
0.0147012
-0.00431219
-0.0108004
0.00295151
0.0121611
0.00193105
-0.00274843
0.000350075
0.0011977
0.010077
-0.007058
0.00588444
-0.00395339
0.00380448
-0.00595604
0.00351943
-0.00136786
-0.00754522
0.00404221
-0.00489403
0.00839704
0.00110745
-0.00707587
0.00504367
-0.00441824
-0.0033476
-0.00195941
0.00972525
-0.0042174
0.0035622
-2.11605e-05
-0.0023846
-0.000600781
0.00228731
0.000698072
0.00120787
-0.000458219
-0.000749652
0.00787919
-0.00873905
0.00196731
-0.007622
0.00179716
0.0054502
0.000374643
0.000509657
0.00016657
-0.000504789
-0.000171437
-0.00150804
0.000119298
0.00297194
-0.00158319
-0.00526112
-5.01481e-05
0.00658658
-0.00131809
-0.000133298
0.00599281
-0.00454142
-0.0210416
0.000605719
0.00268489
0.017751
-0.000817318
0.00460303
-0.00134086
-0.00244485
0.000974609
0.000816185
-0.00109344
-0.000697354
-0.00068901
0.00868396
-0.00851866
0.000523707
0.00201421
0.000827427
0.00348962
-0.00633126
0.00394648
-0.00201077
0.000223592
-0.00215931
0.000257501
0.00197771
0.00937691
-0.0116121
0.00787664
-0.00418762
0.0120377
-0.0157267
0.00187347
0.000995161
0.000143752
-0.00301238
0.000214305
0.00147898
-0.000728873
-0.000526682
0.0021155
0.003531
-0.000868158
0.000614681
-0.000438935
0.000692412
0.000789151
0.000914694
-0.00185336
0.000149515
-0.000414579
-0.00236231
0.00182209
0.000954801
0.00176194
0.00128567
-0.00304318
-4.43302e-06
0.0031403
-0.000764418
0.000242803
-0.00915736
-0.00515669
0.0160767
-0.000250883
-0.000906198
-0.000631933
-0.019599
-0.00848967
0.0112526
0.016836
-0.00688446
0.00325011
-0.00585151
-0.000453958
0.00117137
-0.00362581
0.00334579
-0.00383687
0.00130386
-0.000812771
0.000720289
-0.000690807
-2.94817e-05
0.000418905
-0.00047324
0.000787977
-0.000733642
-0.00748615
0.0042628
-0.00135776
0.00458111
0.000645085
-0.000454595
-0.000263829
7.33395e-05
3.87752e-05
0.000228622
0.000707211
0.00702105
0.00290362
-0.00790384
-0.00202083
0.0303861
-0.0179329
0.00227145
0.00104905
0.000857
0.0011884
0.000783844
-0.00282925
0.000478319
-0.000366676
-0.000111643
0.00771023
0.00639726
-0.022209
0.00810151
0.000210984
-0.00115701
-0.00192138
-0.00155777
0.00134938
-0.00312777
0.00333616
-3.7516e-05
0.00189878
0.000917381
-0.00277865
0.00360228
-0.00194143
-0.00335961
0.00169876
-3.83605e-06
-0.0039407
0.00197437
0.000761264
-0.000760524
0.000705484
-0.0053114
0.00320218
0.00158254
3.63721e-05
-0.00046474
-0.000666387
0.00109476
-0.00232554
0.00101673
-0.00216283
-0.000177458
-0.00406268
0.000678968
0.00356117
0.001175
-0.000704394
-0.00146902
0.000998416
0.000486323
-0.000200621
-0.00458384
0.00429813
-0.00119351
0.00182281
0.00015247
-0.000781764
-0.00331124
0.00377416
-0.00181271
0.00134979
-7.44198e-05
0.00196945
0.00109081
-0.0026383
0.00216945
-0.00253127
0.00803801
-0.00767619
0.00272974
0.00239119
0.00252119
-0.00764212
0.0235487
-0.00660325
0.0161616
-0.033107
0.000917151
-0.00741126
0.00275729
0.00373682
0.00334159
-0.00272087
0.000470217
0.00202333
-0.00134976
0.0029287
0.000936536
0.00567
-0.00422372
-0.00238282
-0.0167071
-0.00181088
0.0232205
-0.00233107
0.00144649
0.000810157
-0.0183474
-0.0125687
0.0257063
0.00520982
0.0689571
0.043559
-0.0548526
0.00224623
-0.00212813
0.000449156
-0.000567256
0.0012318
-0.00087795
-0.000681764
0.000327918
-0.000115564
-0.00209189
-0.00173872
-0.00052149
-0.00277445
-0.00562804
0.00892397
-0.00218343
0.00069733
0.00197949
-0.000493395
-0.0479832
0.0459732
-0.00584126
0.00785127
0.00207904
-0.0026054
8.14132e-05
0.000444947
-3.89036e-05
-0.00237894
0.00283481
-0.00363245
0.0759788
-0.129605
9.54085e-05
-0.000118618
0.00301116
0.0129821
-0.00664236
-0.00675238
6.27874e-05
0.0012186
0.00103105
-0.00231244
-0.00768
0.00389521
-0.00352134
0.00730613
0.000786909
0.00267859
-0.00135141
-0.00211409
0.00204827
-0.00186799
0.00142824
-0.00160853
-0.00115276
0.00134485
-0.00258774
0.00239565
0.000116557
0.00146996
-0.00117899
-0.000407534
0.000756456
0.00208842
-0.000765831
0.00257676
-0.001606
-0.00302343
-0.00271297
0.00116687
-0.00458309
0.00549939
-0.00152792
-0.00544793
-0.00987683
3.16026e-05
-0.00185837
-0.0019599
0.00367708
0.00173802
-0.041865
0.0100668
0.0204935
-0.00320027
0.0143493
0.0126358
-0.0237848
0.0020754
-4.80054e-06
-0.00167159
-0.000399012
0.00189265
-0.00127807
0.00146082
-0.00762552
-0.0250751
0.00841193
0.0242887
-0.0011249
-0.00167216
0.000298723
0.00249834
0.0176502
-0.00587428
-0.00299329
-0.00878265
-0.00149702
0.000497535
-0.000758015
0.00298512
-0.00265891
-0.00565713
0.00533092
-0.00489489
-0.00272221
-8.0173e-05
-0.00414514
0.00392689
0.00346892
0.00423938
-0.00678294
-0.000925351
-0.00203406
-0.00174506
0.00140979
0.000172089
-0.000192518
-0.000633501
-0.000637086
-0.00321146
0.00171148
0.00213706
-0.024967
-0.00449673
0.000761387
-0.0141155
0.00245331
0.0117857
-0.00700423
0.00223962
-0.00572964
0.00592861
0.003412
-0.00644661
-0.00570834
0.00524062
0.00383616
0.00441978
-0.00579002
-0.00246592
-0.00207245
0.000801948
0.00689099
-0.00562049
-0.00124297
0.000303218
0.00409095
-0.00315119
-0.0328684
0.0113213
-0.00321621
-0.0021842
-0.000665723
-0.00219794
0.00347078
-0.000607114
-0.00721566
-0.00077649
-0.00117678
-0.000458548
-0.0011855
0.0014111
-0.000649702
-0.000522008
0.00069925
-0.000849986
0.000150735
0.000446752
-0.00128754
0.000603849
0.000236937
-0.00138757
-0.0106376
0.0149287
0.00129821
-0.00132049
-0.000830905
0.000853185
0.00197959
0.0039699
0.00212812
-0.00475889
-0.00133913
0.000541019
0.000509275
0.00247848
-0.00168898
0.00854904
0.00390957
-0.00491692
-0.0025608
0.0425978
0.0210227
-0.0254528
0.00292459
0.00150549
0.014059
-0.00219705
-0.00863146
-0.00323052
0.00492541
-0.0114456
0.00880471
-0.00228449
-0.0212911
0.0114275
-0.00848385
-0.00781187
0.00707051
0.00922563
-0.00848426
0.0846481
0.013585
-0.0982331
-0.00414047
0.00908506
-0.00181749
-0.00119594
0.00123471
-0.00053874
0.00291501
0.00146481
0.000354585
-0.0016222
-0.0001972
-0.00184942
0.0100793
0.000537819
-0.00876769
-0.000603583
0.000157103
0.000865385
-0.0640655
0.0620938
0.00197166
0.00886638
-0.0057105
-0.0115235
0.0083676
0.016192
-0.0178794
-0.000900935
0.000938082
-0.00288682
0.0016858
-0.00112143
0.000128761
0.00280751
-0.00115333
-0.000701649
0.00320945
-0.00486797
0.00124394
0.000404333
0.00108626
-0.000791346
-0.00207194
0.00146328
-0.000481665
0.0028356
0.000823122
-0.00147227
-0.00142247
-0.000356641
-0.000874088
0.00103736
0.00801062
-0.00951539
-0.000204962
0.000483145
-0.000476987
-0.00116119
-0.00364968
0.00288446
0.00276014
-0.00248065
-0.00316395
0.00124231
-7.34796e-05
0.00171563
-0.000857545
0.00130742
0.00231026
0.000417671
-0.00380423
0.000739835
0.000974619
0.00208977
0.00261259
5.86833e-05
-0.00382403
0.00714549
-0.00627093
0.00737497
-0.00824953
0.00794574
-0.00989926
0.00401992
0.00141231
-0.0012274
-0.00420484
0.000640263
-0.00018484
-0.00646616
-0.0135311
0.00421279
0.00414207
0.00517625
-0.00234369
-0.0013025
-0.0028052
-0.000255767
0.00128562
0.00177535
-0.000805461
0.0015845
-0.00329455
0.00105217
-0.000541539
-0.000123561
0.0010405
0.00560994
-0.00453494
-0.000117273
-0.000829201
-0.00201234
0.00295882
0.000696852
0.00298664
0.140524
0.00484686
-0.0942968
0.00163552
0.000892565
-0.00106327
0.00104637
-0.00574132
0.00135695
0.00333801
-0.00251014
-0.00568115
0.0048937
0.0032976
-0.000523863
0.00364181
-0.0030685
0.00300662
-0.00328953
0.00335141
-0.00177196
-0.00119447
-0.000379902
0.00334633
-0.00379513
0.00219591
0.0003815
0.00415925
-0.00724671
-0.00751385
0.00201762
-0.0031321
-0.000849469
0.00354579
0.000434811
0.0024066
-0.00149657
-0.00415702
0.00164679
-0.000558264
-0.000292446
-0.00175339
-0.00339048
0.00199245
-0.000953623
2.26471e-05
-0.00245951
-0.00200263
0.00507092
-6.16749e-05
0.00202007
-0.00344067
-0.000539297
-0.00179154
-0.000675196
0.00163753
-0.000248992
7.56471e-05
0.00196013
-0.00178678
-0.0030294
0.00342855
-0.000648149
-0.0306959
-0.0251387
-0.000128317
-0.00194296
-0.000958116
0.00140035
-0.000200998
-0.000107291
0.000776971
0.000415938
0.000207443
0.126766
-0.0477412
-0.1131
0.0392465
-0.031921
-0.00572653
0.000313367
-0.00203383
0.000254247
-0.00178248
0.000666326
0.000344187
3.87866e-05
-0.00242322
-0.00155807
-0.00484724
0.00420736
-0.00233938
0.00412517
-0.00271328
0.000927489
0.00449991
-0.00230212
-0.00252512
-0.000566075
0.00106808
0.00335571
0.00125491
-0.00346832
-0.0019855
-0.00120177
0.00352085
-0.000333575
-0.00268617
0.0020444
0.000604258
-0.000783576
-0.00185301
-0.00322673
-0.00164411
0.00328368
0.00158717
-0.00105553
0.00178898
0.000745529
-0.00197566
0.0413969
-0.000154751
-0.000228109
0.0164806
0.0171329
-0.0333854
0.0131467
-0.0272482
0.0138734
0.00841259
-0.018663
0.0100579
0.000192568
0.00933216
0.00984128
-0.0107609
-0.00747186
-0.0120895
0.00089836
-0.0252061
0.0286637
-0.011268
0.0143296
-0.00047728
-0.00153987
0.000329755
0.00657198
-0.00145832
-0.0148681
0.00975441
0.00604695
-0.0067446
0.00562306
-0.0163161
0.0202285
0.00213459
-0.0162663
-0.0010041
0.0152141
0.00205633
-0.00761543
0.0118141
-0.00422911
0.00330409
-0.00780613
-0.000233916
0.00039552
-0.0014668
0.00130519
0.00216692
-0.00118304
-0.00109944
-0.000665682
0.000842895
-0.0025166
0.00561217
-0.00890766
-0.0109304
-0.0102894
0.0018107
0.000666847
0.00597911
-0.00763133
-0.012077
0.00127541
-0.00811273
0.00940627
-0.0207907
0.00212399
-0.00799141
0.00618235
-0.00674737
0.00855643
0.00420828
-0.00106196
-0.00412442
0.00373928
-0.00310143
0.00255006
-0.0031879
-0.00271727
-0.0020707
0.003545
-0.00190592
-0.00325274
0.00179883
0.00335983
-0.000238529
-0.000903444
2.05422e-05
0.00306223
-0.00220818
0.00228625
-0.00257191
0.00266264
-0.00131802
0.00122729
0.00346329
0.00105088
-0.00280666
-0.00547539
-0.00105609
0.00208121
0.00445027
-0.00113297
-0.000265223
0.000186509
0.002696
-0.00453776
0.00286147
-0.0010197
0.00288315
-0.00375402
-0.00569061
0.00656148
0.00440809
-0.00291672
0.00120462
0.00817755
-0.000886313
0.00232558
-0.0049311
0.00313763
-0.000532107
0.00140972
0.00328417
-0.00236831
-0.009907
0.00394365
-0.0046046
0.0105679
0.0142418
0.00355757
-0.0113177
-0.00694067
0.00586104
0.0065617
-0.00548206
-0.0013936
0.0116164
-0.00618056
0.139645
-0.0690799
-0.00567753
0.019769
-0.00962298
-0.00684192
-0.00587501
0.00961691
-0.00384787
0.000105972
-0.00125575
0.0012317
-0.00176749
0.00178477
0.00186557
0.00223453
0.00402838
-0.00666134
0.00441773
-0.00236295
0.00051632
0.00555003
-0.00113846
0.00520535
0.00229222
-0.0010284
-0.00272056
0.00145674
-0.00112501
0.00440074
-0.000983509
-0.00852736
0.023393
0.00279342
-0.000508677
-0.00193605
0.00011145
0.00151097
0.001171
0.00124784
-0.000496521
-0.00126
0.00249861
-0.000808779
-0.000441985
-0.00183316
0.000601429
0.00134318
0.00076191
-0.000792396
0.000732001
-0.00291165
-0.000129198
-0.00148415
0.00494157
-0.00428382
0.00648381
0.00301687
-0.00906766
-0.00218495
0.00448828
0.00205696
2.60184e-05
0.00427284
0.0023916
-0.00654357
0.00417799
-0.00771696
-0.000613222
0.00764117
-0.105152
-0.0322321
-0.0426329
0.180017
-0.00894817
-0.00227573
-0.00866973
-0.00340089
0.00527391
0.152822
-0.0622874
0.0832966
-0.173831
-0.0466675
-0.0789431
0.124457
0.00115381
-0.000254987
0.00831571
-0.00877325
0.00283291
-0.000937862
0.0130808
-0.0149759
-0.00022786
-0.019165
0.00944604
0.00994679
0.00540893
-0.0362475
-0.00373236
0.0345709
0.00314675
-0.0146987
0.0118095
-0.00483275
-0.00984119
0.00562839
-0.00398734
0.0112685
0.0325292
0.0387784
-0.00235095
0.0621632
-0.075888
0.00739457
0.00197701
-0.00222609
0.00392486
-0.00151589
-0.00362509
0.00121612
-0.000496682
0.00543725
-0.0010157
-0.000430276
0.00289912
-0.00193523
-0.000533619
0.00277741
-0.00153186
-0.00167583
0.00260893
-0.00221874
-0.00945981
0.00906961
-0.000818321
0.00136143
-0.00151915
0.000976041
-0.0010745
-0.00134696
0.00202173
0.00063515
0.000886022
7.04086e-05
0.00164706
-0.00128113
-0.00128392
0.000917998
0.00236075
-0.000140553
-0.000510099
-0.00249559
-0.000494845
0.00350054
-0.0134962
0.0280817
-0.0303979
0.0158123
-0.00811255
-0.007603
0.00337846
0.0098062
-0.00766054
-0.00552412
0.0246988
-0.0186278
-0.000661996
-0.0288004
0.00882111
0.0241404
-0.00416108
-0.0101064
-0.0312627
0.00451932
-0.00811209
0.00812633
-0.00453357
-0.0114357
4.77473e-06
0.0131547
-0.0176595
0.0089182
0.00851343
-0.00557007
-0.000937555
0.0141116
0.00746826
0.00412646
-0.00934561
0.0178871
-0.00252434
0.00172046
0.000797713
6.17078e-06
-0.00319562
0.00127647
-0.000467837
0.00238699
0.0006742
0.000314027
-0.00418385
-0.000240411
-0.000186417
-0.00209751
0.000868834
-0.000618854
0.000703528
-0.000953508
0.000127071
-0.00110921
-0.000338386
1.97157e-07
0.000849695
0.00112117
0.000758297
-0.0011369
-0.000742572
-0.000284274
0.000344574
0.000495294
-0.000555594
0.000482483
0.000354416
0.00226853
-0.00180153
0.00355292
0.000428072
-0.00109815
0.00293861
-0.0100866
0.0072234
-0.0085725
-0.00285834
0.0117233
-0.0058798
-0.00890912
0.0105173
-0.00340174
0.00794828
-0.00444828
-0.0052549
-0.000303851
-0.00571238
0.00529449
0.00375945
-0.00303445
-0.00601949
-0.00020313
0.00528585
0.000211769
-0.0028095
-0.00772705
0.00802552
0.00868832
-0.00803954
-0.0078496
0.000576839
0.0109298
-0.00365705
-0.00170798
0.000724391
0.00185576
-0.000872175
0.00445825
-0.0032672
-0.00904064
-0.0007071
0.00350551
-0.00206641
-0.00247997
0.0564076
-0.000628529
-0.0325939
0.019843
-0.00199773
0.0088451
0.00822758
-0.00773163
-0.00434382
0.0556497
-0.0287606
0.0567444
0.0050413
-0.000576637
-0.00489027
0.000425615
-0.00119864
0.068959
-0.0677604
-0.0672389
-0.0811468
0.0820061
0.00637112
0.00259999
-0.00392982
-0.00228794
0.000260878
-0.00757097
0.00673346
0.00261538
-0.00625881
0.00509949
-0.00145605
0.00079531
-0.00921126
0.00264511
0.000937103
0.00151728
-0.00655808
0.00665053
-0.0100641
0.0169236
-0.00942181
-0.162993
-0.0537734
0.0415849
-0.0274122
0.0206733
-0.000915383
3.1302e-05
0.000884081
0.000864942
0.00440013
-0.00459087
0.000164958
-0.00321954
0.00391953
0.000306951
-0.00122233
-0.00329897
0.00416351
0.00318759
-0.00405213
0.00272767
-0.00521033
-0.00452002
0.00700268
-0.000458039
0.00467238
0.00160578
-0.00582012
0.0219818
-0.0227689
-0.00145827
0.00224536
-0.00723594
-0.000477149
0.00495943
0.00275366
-0.0028467
0.00160822
0.00195951
-0.000721027
0.00276588
-0.00703507
0.0023725
0.00215411
-0.00223493
-0.000604509
0.0026752
-0.000462474
0.00280219
-0.00133401
0.00068592
-0.0094262
0.00874488
-0.000764449
0.000478185
0.00830281
0.000144268
-0.0153878
0.00207321
-0.00232539
0.00249841
-0.00134202
0.0020117
0.000265943
-0.00108707
0.00272999
0.00103068
-0.00267359
-0.00484408
-0.00367235
-0.00120256
-0.00236103
0.000953317
-0.000771115
0.00332114
-0.0248972
0.0163425
-0.00067438
2.15299e-05
0.00135493
-0.00070208
-0.0048207
0.0020733
0.00379376
-0.00121608
-0.0015894
0.00215578
-0.000133881
-0.00112378
0.000312688
0.000944973
0.000583746
-0.000412391
0.0024639
-5.33974e-05
-0.00684423
-0.000257429
-0.0054723
0.00914206
-0.00341233
-0.00229125
0.00335181
-0.00175363
0.000693074
0.00163456
-0.00163455
0.00817754
-0.00302499
0.00718955
-0.00442199
0.000708114
-0.000198457
-0.00432887
0.0106018
-0.00354525
-0.00728849
0.00237897
-0.0038596
0.0059138
0.00168507
0.00206251
0.00171468
-0.00211982
-0.00381225
-0.00150505
0.00288413
6.83214e-05
-0.0014474
0.00494654
-0.000706858
-0.00314878
-0.0010909
-0.00349223
0.00521612
-0.00387546
0.00215157
9.09007e-06
0.00115424
-0.00151921
0.00386534
-0.00350037
-0.000390074
0.000889614
8.85586e-05
-0.00043474
-0.00543941
0.00377478
0.00209938
-0.000226699
0.00269785
-0.000181064
-0.00229009
-0.000487938
0.0022495
-0.00215662
0.00039506
0.000966368
0.000893519
0.00935275
-0.00502631
-0.00521996
-0.000332556
0.00578334
-0.000481672
0.00548471
0.0077572
-0.0102152
-0.00230237
0.00378223
0.000628234
0.00520693
0.00740364
-0.00792601
0.00181872
0.00281472
0.00331229
0.000191075
-0.000691154
0.000500079
0.00107995
-0.00165519
0.000109414
0.000465828
-0.000575951
0.000356001
0.00280649
-0.00258654
-0.0017339
0.00213439
-0.00353635
0.000958685
0.000675115
0.00120593
-0.00283973
-0.000967846
-0.000858137
0.00182598
0.00220096
-0.000555639
-0.000858413
0.00261795
0.00108544
-0.00121618
-0.00144225