/*--------------------------------*- C++ -*----------------------------------*\
| =========                 |                                                 |
| \\      /  F ield         | OpenFOAM: The Open Source CFD Toolbox           |
|  \\    /   O peration     | Version:  2506                                  |
|   \\  /    A nd           | Website:  www.openfoam.com                      |
|    \\/     M anipulation  |                                                 |
\*---------------------------------------------------------------------------*/
FoamFile
{
    version     2.0;
    format      ascii;
    arch        "LSB;label=32;scalar=64";
    class       volScalarField;
    location    "0.00481384";
    object      k;
}
// * * * * * * * * * * * * * * * * * * * * * * * * * * * * * * * * * * * * * //

dimensions      [0 2 -2 0 0 0 0];

internalField   nonuniform List<scalar> 
3918
(
0.418399
0.388666
0.385526
0.38354
0.38753
0.550608
0.526979
0.407189
0.383163
0.388132
0.430098
0.519924
0.396413
0.395011
0.385646
0.480019
0.519592
0.387739
0.322926
0.389622
0.502872
0.389628
0.406022
0.440079
0.385332
0.48489
0.409886
0.391033
0.339497
0.404691
0.403609
0.383261
0.397115
0.397435
0.429092
0.448107
0.386301
0.390975
0.493554
0.382679
0.430932
0.373904
0.442345
0.429072
0.38635
0.458694
0.387179
0.476277
0.396486
0.399693
0.45374
0.537076
0.428306
0.402007
0.386788
0.426927
0.388328
0.403836
0.40565
0.381686
0.406341
0.397244
0.39739
0.458028
0.537393
0.381097
0.403869
0.426736
0.395265
0.423732
0.42339
0.502532
0.472082
0.444135
0.379699
0.380237
0.395295
0.425685
0.427898
0.38236
0.420498
0.436306
0.421708
0.402672
0.384255
0.395769
0.324716
0.37604
0.589692
0.384196
0.405685
0.392617
0.525217
0.414374
0.379679
0.389981
0.421351
0.379552
0.431227
0.502609
0.383177
0.386819
0.384199
0.384911
0.389788
0.389653
0.402632
0.455803
0.379876
0.418477
0.382785
0.399625
0.280157
0.376684
0.397921
0.382064
0.331722
0.40682
0.450831
0.440059
0.386951
0.46531
0.396558
0.337609
0.407972
0.494081
0.383448
0.444949
0.451145
0.421768
0.395482
0.425795
0.521468
0.392402
0.33393
0.480933
0.326938
0.384701
0.320225
0.401692
0.470856
0.379451
0.445538
0.524259
0.400781
0.414768
0.450555
0.474126
0.588625
0.407468
0.392839
0.388698
0.392134
0.416568
0.400283
0.430764
0.54615
0.562667
0.394222
0.391452
0.386249
0.334502
0.379509
0.457309
0.340996
0.395169
0.316593
0.3772
0.321932
0.391241
0.455322
0.387574
0.316199
0.31701
0.381796
0.403948
0.453375
0.414773
0.508407
0.434571
0.381646
0.418248
0.475613
0.411952
0.392148
0.424671
0.457953
0.443437
0.418353
0.398374
0.380324
0.48059
0.469677
0.481247
0.410716
0.412465
0.405803
0.390043
0.413721
0.398082
0.511383
0.413603
0.323205
0.413306
0.313844
0.416148
0.495166
0.527637
0.424707
0.399494
0.398854
0.325751
0.40663
0.329049
0.415927
0.595961
0.43945
0.424963
0.388424
0.500538
0.443363
0.540646
0.442593
0.391025
0.429067
0.510399
0.43671
0.366859
0.552335
0.427078
0.441674
0.412905
0.46976
0.402918
0.399078
0.412509
0.326471
0.400093
0.403036
0.399083
0.396391
0.493595
0.418566
0.417358
0.398762
0.401248
0.389903
0.425706
0.490052
0.402253
0.394978
0.499479
0.399347
0.410951
0.431457
0.420623
0.408633
0.422535
0.414577
0.444412
0.336605
0.390083
0.529767
0.399718
0.436776
0.405677
0.496735
0.428621
0.443283
0.421857
0.384172
0.404209
0.388922
0.424426
0.409783
0.413427
0.475916
0.412639
0.53751
0.401946
0.45235
0.529442
0.410662
0.397731
0.403317
0.508211
0.385236
0.504648
0.394588
0.40755
0.533447
0.401006
0.547895
0.402041
0.44475
0.426352
0.580673
0.317622
0.382613
0.395886
0.417856
0.415165
0.400731
0.464266
0.440327
0.469967
0.494535
0.430866
0.391787
0.448077
0.467379
0.58822
0.388721
0.396669
0.46618
0.567105
0.394931
0.417078
0.496697
0.525156
0.427225
0.329539
0.415998
0.392492
0.402897
0.419306
0.382627
0.453207
0.387394
0.39122
0.446134
0.446607
0.410104
0.438491
0.394905
0.445906
0.404144
0.393223
0.439592
0.383737
0.38227
0.349559
0.401462
0.399964
0.42939
0.406549
0.517201
0.485485
0.418767
0.471699
0.53131
0.341652
0.495642
0.397658
0.376261
0.384912
0.426768
0.479145
0.426804
0.387568
0.402049
0.564623
0.434793
0.508733
0.406863
0.346129
0.400624
0.395409
0.397154
0.510775
0.426131
0.417611
0.508839
0.513014
0.455706
0.38964
0.442108
0.405834
0.443353
0.380284
0.379314
0.436935
0.413548
0.408858
0.410283
0.412607
0.442332
0.372482
0.420843
0.446036
0.419316
0.407203
0.383499
0.395916
0.390111
0.414381
0.424842
0.388468
0.397534
0.410094
0.355143
0.384832
0.392435
0.423915
0.386314
0.37904
0.49071
0.324019
0.395858
0.559582
0.456381
0.40783
0.390022
0.391612
0.411839
0.394063
0.390509
0.38041
0.395319
0.390728
0.382879
0.434826
0.39321
0.396061
0.386647
0.39491
0.403674
0.390944
0.40648
0.422098
0.387053
0.398549
0.330421
0.409876
0.40699
0.484036
0.576929
0.394124
0.392297
0.389287
0.390944
0.398018
0.433
0.485932
0.501574
0.382324
0.50363
0.410414
0.519698
0.392911
0.422383
0.415352
0.407886
0.394561
0.437266
0.40014
0.62507
0.503582
0.540016
0.392573
0.382789
0.430991
0.414222
0.377731
0.440856
0.432071
0.385514
0.332281
0.374221
0.38813
0.333317
0.389351
0.605344
0.48696
0.393298
0.424804
0.317061
0.415409
0.64217
0.475517
0.440722
0.410161
0.39395
0.407327
0.43317
0.395026
0.501929
0.460815
0.412739
0.331673
0.430041
0.381591
0.342614
0.431733
0.392039
0.338002
0.424504
0.381204
0.576973
0.388195
0.380015
0.389336
0.383144
0.396454
0.386375
0.385287
0.392108
0.38803
0.388051
0.386786
0.419579
0.404007
0.380663
0.390977
0.38108
0.383128
0.390066
0.419045
0.390424
0.394643
0.405146
0.377953
0.383104
0.442685
0.511766
0.390711
0.417763
0.39254
0.429643
0.431164
0.41783
0.579803
0.423458
0.488952
0.373725
0.388732
0.496573
0.452169
0.389909
0.423928
0.383096
0.384826
0.399048
0.391343
0.399547
0.563539
0.408422
0.543324
0.396228
0.396676
0.386488
0.524062
0.526422
0.479234
0.408344
0.375248
0.516654
0.478609
0.415915
0.453926
0.451287
0.436981
0.369697
0.448641
0.393514
0.54617
0.391406
0.398787
0.366487
0.394643
0.47203
0.479821
0.476206
0.416782
0.419699
0.494472
0.437586
0.391723
0.39793
0.385337
0.413061
0.500468
0.460335
0.384991
0.449565
0.514698
0.428107
0.481458
0.53542
0.440114
0.523725
0.367425
0.413243
0.39361
0.413933
0.545004
0.389439
0.436513
0.588099
0.479507
0.380681
0.591522
0.479742
0.465381
0.415258
0.53088
0.400228
0.399185
0.42577
0.396513
0.413054
0.423402
0.417114
0.434376
0.39055
0.407768
0.475055
0.413126
0.425068
0.418992
0.409319
0.417658
0.432417
0.434224
0.313445
0.503471
0.325696
0.324804
0.328186
0.403897
0.393808
0.385224
0.392237
0.412622
0.325102
0.417917
0.434381
0.42272
0.439294
0.443574
0.389814
0.389578
0.392406
0.447229
0.422686
0.412728
0.386224
0.380159
0.431764
0.38431
0.381224
0.400989
0.395383
0.394799
0.388375
0.390837
0.395125
0.390087
0.38938
0.463405
0.400895
0.479179
0.391678
0.521657
0.472176
0.511037
0.472692
0.535066
0.437832
0.420275
0.387923
0.393941
0.422842
0.380354
0.420544
0.410625
0.443616
0.516706
0.421368
0.556592
0.381461
0.37982
0.393734
0.386198
0.409831
0.389049
0.421249
0.389194
0.40561
0.408377
0.388452
0.418275
0.591208
0.544135
0.419469
0.571739
0.519854
0.459762
0.440422
0.521386
0.467845
0.442822
0.513203
0.39358
0.404496
0.402854
0.421757
0.40072
0.457605
0.471573
0.488783
0.470672
0.437527
0.420726
0.439013
0.447348
0.448775
0.385096
0.382204
0.382178
0.396619
0.435376
0.378093
0.385459
0.379917
0.402214
0.403056
0.385269
0.387715
0.380413
0.425836
0.429402
0.431157
0.386344
0.419402
0.383766
0.533058
0.387243
0.385036
0.406911
0.378819
0.534592
0.412493
0.425993
0.377848
0.400632
0.537972
0.432585
0.392232
0.410372
0.421796
0.377742
0.407308
0.335392
0.482332
0.428072
0.43253
0.390168
0.428711
0.408651
0.386212
0.618298
0.388448
0.390355
0.391177
0.398533
0.437725
0.434868
0.502543
0.510649
0.400979
0.461576
0.397383
0.457175
0.472222
0.394061
0.412096
0.444701
0.435289
0.514517
0.454149
0.590988
0.400258
0.403496
0.602276
0.396595
0.395227
0.407026
0.426156
0.426699
0.496211
0.519573
0.451051
0.525566
0.470496
0.392005
0.389918
0.398635
0.398304
0.398839
0.401702
0.397041
0.596264
0.594044
0.397216
0.392448
0.38889
0.389028
0.399468
0.394427
0.399812
0.409913
0.380994
0.488793
0.40335
0.451172
0.397663
0.380163
0.381566
0.390963
0.490786
0.504462
0.468317
0.479119
0.496863
0.448961
0.431511
0.422617
0.453615
0.454963
0.401228
0.450284
0.405347
0.408421
0.388241
0.393745
0.43652
0.461607
0.397523
0.509404
0.390851
0.491648
0.388787
0.429733
0.51588
0.445706
0.427217
0.43019
0.481058
0.397403
0.392419
0.428996
0.426705
0.562712
0.441179
0.389287
0.56607
0.492137
0.416977
0.459496
0.426961
0.454274
0.389907
0.393984
0.443926
0.393499
0.391568
0.389882
0.40044
0.403858
0.436078
0.39372
0.398766
0.458144
0.41222
0.445978
0.392357
0.420327
0.390581
0.406152
0.468284
0.397912
0.385676
0.44222
0.395187
0.433302
0.403961
0.602655
0.503598
0.442983
0.364346
0.397749
0.415718
0.481695
0.399435
0.563728
0.439632
0.427483
0.444734
0.419027
0.480848
0.40659
0.392804
0.47947
0.441137
0.496937
0.495617
0.520921
0.467891
0.473271
0.391833
0.377973
0.41605
0.384538
0.393288
0.407625
0.434559
0.374892
0.393569
0.396872
0.393513
0.395254
0.357351
0.404503
0.428214
0.544808
0.392836
0.39474
0.437329
0.417744
0.454476
0.412951
0.547833
0.39649
0.492765
0.48124
0.427244
0.405766
0.503517
0.397534
0.401188
0.443673
0.439844
0.395627
0.467795
0.409836
0.490677
0.445685
0.33681
0.394488
0.433273
0.405006
0.605298
0.402763
0.404195
0.395189
0.386377
0.416104
0.577811
0.492044
0.402148
0.418834
0.428811
0.408564
0.418393
0.50038
0.396942
0.555737
0.415256
0.415778
0.407513
0.469155
0.391813
0.410789
0.388674
0.501477
0.515154
0.440077
0.38825
0.518388
0.488962
0.514909
0.312961
0.576114
0.400155
0.397049
0.431409
0.39736
0.396987
0.395592
0.429287
0.384249
0.589598
0.452014
0.390403
0.324236
0.580568
0.476362
0.557198
0.32849
0.379115
0.451864
0.401868
0.395169
0.422019
0.430833
0.414547
0.414164
0.412227
0.398241
0.457704
0.476458
0.394385
0.409108
0.379065
0.383564
0.397012
0.394963
0.401892
0.420702
0.432544
0.489923
0.381263
0.514644
0.427637
0.381956
0.513369
0.397519
0.385944
0.39677
0.409787
0.416455
0.396891
0.390662
0.569922
0.395931
0.391131
0.431793
0.400593
0.392565
0.479239
0.469349
0.433938
0.507146
0.483679
0.431034
0.400118
0.397534
0.385283
0.383308
0.394521
0.464736
0.457894
0.471797
0.387804
0.403106
0.388945
0.397477
0.386659
0.393144
0.396174
0.393323
0.393018
0.379576
0.435833
0.531727
0.464003
0.388812
0.397237
0.405264
0.388837
0.45197
0.387973
0.450116
0.394288
0.475169
0.330634
0.433643
0.38457
0.514183
0.462877
0.380537
0.394253
0.485813
0.382024
0.385988
0.408813
0.400054
0.416472
0.382681
0.403267
0.422577
0.428174
0.416344
0.342309
0.429973
0.407194
0.404591
0.386345
0.41807
0.368521
0.401546
0.385895
0.394153
0.428853
0.445834
0.403787
0.419095
0.387616
0.378853
0.441733
0.390705
0.386933
0.392671
0.399898
0.410458
0.385161
0.389336
0.385092
0.441
0.443203
0.429339
0.429698
0.412565
0.437202
0.43027
0.478907
0.458499
0.381543
0.379224
0.388847
0.382497
0.385533
0.39113
0.392412
0.393121
0.403366
0.402292
0.383636
0.335057
0.421289
0.384993
0.391151
0.398662
0.439938
0.333581
0.423036
0.38325
0.39365
0.389233
0.454026
0.424246
0.409557
0.392114
0.39847
0.387813
0.467677
0.603714
0.39165
0.521997
0.454542
0.38496
0.489872
0.483411
0.399284
0.45921
0.390259
0.428871
0.382647
0.386336
0.391134
0.516312
0.532264
0.396225
0.487833
0.513639
0.42146
0.392927
0.38533
0.444501
0.384736
0.42985
0.386062
0.326444
0.391437
0.439649
0.386469
0.403393
0.409492
0.526168
0.402543
0.445898
0.467443
0.397997
0.396243
0.523149
0.585017
0.346568
0.413162
0.476805
0.40059
0.362493
0.472863
0.41388
0.427034
0.387964
0.395202
0.507857
0.462319
0.419052
0.438653
0.41751
0.38436
0.378412
0.383957
0.391542
0.38712
0.380447
0.39582
0.393037
0.40171
0.38139
0.391364
0.389018
0.456547
0.391837
0.403964
0.424298
0.422625
0.393794
0.385084
0.376008
0.38722
0.39157
0.380182
0.355059
0.500677
0.438463
0.520337
0.412507
0.382772
0.389084
0.392128
0.388466
0.342039
0.33119
0.401656
0.301447
0.446981
0.438868
0.44992
0.441734
0.441336
0.387472
0.394803
0.392263
0.387877
0.388692
0.410989
0.392365
0.371009
0.38433
0.424094
0.417178
0.389708
0.378113
0.385371
0.399053
0.384022
0.380897
0.385369
0.388592
0.395891
0.386167
0.416865
0.391361
0.396777
0.395949
0.560524
0.403649
0.321002
0.479131
0.335506
0.437895
0.514577
0.32853
0.312335
0.399571
0.502918
0.398614
0.416221
0.413882
0.418354
0.516833
0.382581
0.543489
0.435563
0.432101
0.469979
0.467872
0.36532
0.394185
0.386458
0.383325
0.41288
0.452088
0.512025
0.447631
0.505374
0.501893
0.408962
0.433902
0.46626
0.388802
0.387181
0.414921
0.478575
0.395207
0.495602
0.40649
0.384089
0.469054
0.415608
0.402568
0.390796
0.394336
0.375449
0.406136
0.426339
0.499714
0.425745
0.425401
0.385223
0.336477
0.416072
0.429803
0.508815
0.391143
0.38261
0.394
0.395057
0.377382
0.501291
0.449284
0.359516
0.48429
0.310487
0.527729
0.428065
0.476863
0.439893
0.45101
0.392168
0.40956
0.436392
0.478651
0.452344
0.389513
0.412851
0.387886
0.390557
0.491026
0.495363
0.502483
0.390808
0.386981
0.477191
0.523591
0.423926
0.415535
0.46733
0.538605
0.462941
0.382247
0.470526
0.416875
0.48105
0.462628
0.514177
0.439166
0.391833
0.405268
0.457573
0.384456
0.442106
0.449194
0.409558
0.496532
0.428667
0.452856
0.539715
0.384622
0.444366
0.388872
0.396092
0.464699
0.535776
0.420557
0.450097
0.391543
0.452934
0.382231
0.389735
0.518029
0.334221
0.443163
0.411362
0.422398
0.493387
0.381995
0.383309
0.393534
0.426077
0.385139
0.388716
0.379336
0.40219
0.376185
0.370364
0.474091
0.51935
0.384739
0.387245
0.327413
0.524259
0.408021
0.529686
0.392716
0.400443
0.512143
0.402674
0.397616
0.39229
0.395552
0.420454
0.558556
0.390467
0.385643
0.477882
0.44456
0.384263
0.40798
0.405587
0.389145
0.394578
0.391718
0.396905
0.393634
0.383383
0.426649
0.404009
0.397646
0.499792
0.496387
0.566171
0.395553
0.408719
0.401725
0.403725
0.420526
0.400001
0.400852
0.503305
0.411487
0.403833
0.399476
0.398059
0.397252
0.409941
0.402317
0.406305
0.492912
0.51794
0.405369
0.459015
0.404613
0.40024
0.485645
0.481531
0.487128
0.514211
0.489987
0.441018
0.454238
0.397301
0.401759
0.395714
0.38355
0.400614
0.389331
0.418439
0.456687
0.44802
0.401108
0.454012
0.407334
0.424135
0.403501
0.394126
0.440149
0.331611
0.595745
0.464839
0.345922
0.422658
0.514436
0.398792
0.421001
0.410015
0.318677
0.414197
0.554846
0.414789
0.405146
0.457082
0.347078
0.396545
0.380751
0.39603
0.426147
0.438994
0.44467
0.486836
0.441103
0.401892
0.507034
0.404092
0.404344
0.429429
0.39711
0.442196
0.39882
0.393497
0.507666
0.488166
0.405209
0.56565
0.399564
0.427553
0.510927
0.450302
0.62923
0.398879
0.461851
0.456012
0.409765
0.460086
0.463729
0.533174
0.339713
0.411768
0.414465
0.433278
0.449594
0.425123
0.397596
0.390462
0.517608
0.457595
0.489683
0.449523
0.420824
0.583111
0.389931
0.383906
0.39549
0.394625
0.475763
0.491343
0.464908
0.565234
0.363229
0.363173
0.38786
0.418191
0.331518
0.401285
0.472226
0.409661
0.498441
0.393984
0.439775
0.558406
0.437874
0.39303
0.392617
0.415305
0.42006
0.401434
0.38985
0.41237
0.40035
0.425946
0.443042
0.407177
0.408387
0.490075
0.437023
0.389032
0.398105
0.392157
0.377823
0.411478
0.383441
0.408382
0.482954
0.402138
0.423769
0.418205
0.465212
0.387221
0.411546
0.401105
0.39293
0.390435
0.404445
0.368343
0.380291
0.465625
0.402467
0.390984
0.396044
0.418448
0.399615
0.390167
0.44861
0.394431
0.438373
0.414195
0.42977
0.410042
0.389854
0.389895
0.320228
0.393546
0.392534
0.383523
0.407489
0.392037
0.396451
0.378594
0.391094
0.389498
0.387485
0.439662
0.406711
0.397247
0.428161
0.425652
0.381985
0.387852
0.400465
0.393
0.376183
0.461902
0.523099
0.39442
0.45082
0.441538
0.39635
0.400278
0.395909
0.395769
0.385059
0.4253
0.434562
0.431442
0.426949
0.424652
0.420207
0.427044
0.317812
0.335879
0.38495
0.32872
0.339028
0.408238
0.403244
0.394694
0.402227
0.445376
0.404718
0.389412
0.387674
0.395534
0.458398
0.387555
0.475735
0.483225
0.439781
0.448568
0.429879
0.457965
0.442376
0.413643
0.447846
0.386113
0.389818
0.397107
0.39428
0.453523
0.39158
0.393424
0.398985
0.390257
0.507267
0.514802
0.533143
0.439321
0.459382
0.443542
0.521249
0.425846
0.5487
0.418792
0.329847
0.385005
0.385916
0.384768
0.397442
0.412197
0.405515
0.391469
0.456525
0.467843
0.381024
0.447107
0.476159
0.396683
0.391508
0.404262
0.54976
0.395966
0.391472
0.391747
0.406256
0.397946
0.522119
0.460807
0.426298
0.462237
0.348859
0.436728
0.39549
0.457141
0.462269
0.469386
0.403258
0.429825
0.431033
0.481488
0.417658
0.392684
0.441426
0.386911
0.396627
0.399038
0.474558
0.501287
0.419606
0.411697
0.403186
0.512928
0.444776
0.431604
0.383495
0.405237
0.406022
0.429829
0.423483
0.410934
0.415587
0.392183
0.38394
0.412394
0.394353
0.394446
0.439903
0.488405
0.486296
0.392114
0.406014
0.500683
0.484064
0.466262
0.427141
0.418328
0.425513
0.383756
0.38126
0.38589
0.382223
0.403148
0.448652
0.410779
0.386738
0.382524
0.456545
0.416659
0.424492
0.418372
0.389547
0.423763
0.467147
0.436963
0.419918
0.412776
0.430825
0.386937
0.396268
0.383683
0.389526
0.378843
0.487265
0.405193
0.405187
0.323733
0.313371
0.432253
0.459621
0.430806
0.460741
0.470807
0.415033
0.413573
0.392647
0.578814
0.581132
0.403278
0.589425
0.600293
0.552458
0.618825
0.387434
0.391264
0.461986
0.472577
0.419394
0.469115
0.438726
0.392517
0.386076
0.392106
0.403875
0.428052
0.373973
0.403183
0.42328
0.436733
0.556921
0.40366
0.492532
0.410711
0.485883
0.411803
0.401034
0.469785
0.477031
0.406812
0.394514
0.393575
0.396598
0.395125
0.401029
0.443924
0.444286
0.456654
0.406193
0.421121
0.484529
0.552017
0.387582
0.397993
0.385817
0.441431
0.428776
0.423346
0.399889
0.445231
0.401325
0.419625
0.388011
0.556194
0.384919
0.428141
0.443411
0.464029
0.447699
0.389047
0.409878
0.37969
0.410115
0.503983
0.31776
0.409039
0.407129
0.509568
0.331007
0.48299
0.490562
0.542519
0.50143
0.461598
0.504589
0.513385
0.45941
0.48163
0.490197
0.385275
0.392274
0.382455
0.404411
0.381819
0.394998
0.394707
0.391866
0.428599
0.384704
0.432969
0.392744
0.403917
0.391056
0.395438
0.423961
0.401884
0.435641
0.39567
0.394867
0.393919
0.390413
0.410561
0.419738
0.50596
0.427831
0.421136
0.415198
0.423847
0.45489
0.434054
0.554844
0.472851
0.464214
0.434815
0.396708
0.392731
0.378708
0.387098
0.39303
0.438192
0.42362
0.391418
0.389522
0.39002
0.404259
0.38865
0.414356
0.408779
0.439939
0.449304
0.390819
0.404644
0.520366
0.401449
0.42844
0.521497
0.432158
0.522316
0.413167
0.454348
0.544005
0.465759
0.417573
0.425087
0.496194
0.411131
0.517107
0.351931
0.479873
0.409063
0.448429
0.388056
0.413064
0.480465
0.383757
0.40382
0.409189
0.447231
0.457926
0.427752
0.397199
0.510936
0.417859
0.410798
0.463438
0.398522
0.462693
0.450412
0.390099
0.390064
0.401479
0.384741
0.381059
0.390099
0.397255
0.467143
0.397548
0.392671
0.50272
0.417307
0.426901
0.410306
0.391819
0.412377
0.384921
0.387542
0.401558
0.488798
0.504143
0.40518
0.400917
0.395448
0.419836
0.515491
0.441982
0.434628
0.40412
0.389289
0.389287
0.413459
0.427279
0.414446
0.395481
0.399205
0.460006
0.403776
0.414132
0.394615
0.551346
0.498995
0.398479
0.511006
0.411187
0.405334
0.528903
0.606656
0.386427
0.427447
0.487927
0.433268
0.428696
0.440434
0.328579
0.401005
0.397186
0.397637
0.394988
0.490024
0.456948
0.483686
0.432691
0.394856
0.395384
0.39581
0.389068
0.403506
0.392379
0.396799
0.379788
0.397709
0.397564
0.396694
0.437606
0.40285
0.503592
0.535759
0.399082
0.430732
0.42648
0.397127
0.593562
0.440658
0.552101
0.449227
0.487706
0.394766
0.533625
0.477885
0.3792
0.381003
0.396139
0.526646
0.392153
0.428302
0.394373
0.374866
0.442064
0.389897
0.413923
0.35653
0.405487
0.417456
0.439556
0.475796
0.434003
0.42063
0.429551
0.41804
0.599345
0.409705
0.442317
0.389124
0.415246
0.41592
0.41303
0.396111
0.37878
0.401619
0.419003
0.390098
0.412378
0.398669
0.518118
0.413632
0.433969
0.481519
0.413597
0.442326
0.444779
0.622641
0.427592
0.393749
0.397959
0.414065
0.402048
0.394587
0.387502
0.410711
0.424996
0.383656
0.39872
0.489143
0.375651
0.409106
0.479447
0.473131
0.52916
0.401702
0.4382
0.51422
0.378288
0.390631
0.414996
0.442997
0.379435
0.397516
0.426581
0.392774
0.422323
0.39082
0.493817
0.488639
0.40496
0.407901
0.387532
0.40321
0.39902
0.407625
0.400863
0.3987
0.388339
0.404959
0.386727
0.381396
0.43225
0.391029
0.365243
0.473404
0.402017
0.419554
0.367408
0.407391
0.409376
0.353377
0.38576
0.435566
0.398756
0.38482
0.397097
0.383725
0.522371
0.400633
0.526542
0.487706
0.394995
0.400341
0.413326
0.418229
0.381367
0.420756
0.394802
0.420321
0.474329
0.405704
0.381183
0.382761
0.375916
0.393902
0.478098
0.387416
0.38827
0.412608
0.40993
0.433877
0.385168
0.415675
0.504132
0.398275
0.445165
0.481691
0.395024
0.444094
0.41113
0.413383
0.386123
0.389332
0.409606
0.405779
0.391527
0.414265
0.402316
0.393129
0.390496
0.501971
0.420081
0.435687
0.397081
0.428766
0.414156
0.319219
0.443486
0.316653
0.383671
0.312072
0.387997
0.405651
0.544066
0.439322
0.385978
0.400943
0.422694
0.418827
0.384967
0.577541
0.427119
0.435219
0.401228
0.504007
0.519848
0.502536
0.317402
0.398034
0.40702
0.400918
0.42265
0.404223
0.487606
0.414969
0.485614
0.423384
0.388642
0.409127
0.380899
0.437142
0.385706
0.387107
0.391114
0.391821
0.445293
0.427834
0.506733
0.55198
0.455444
0.534679
0.459647
0.3474
0.408803
0.387561
0.533273
0.362344
0.357359
0.482947
0.398993
0.414273
0.420885
0.439481
0.388278
0.333174
0.389873
0.358286
0.381873
0.387997
0.384206
0.417197
0.455265
0.575873
0.34286
0.414108
0.321801
0.52068
0.548015
0.487788
0.3617
0.435174
0.365814
0.378676
0.424792
0.389586
0.307019
0.395038
0.441744
0.364262
0.388846
0.391976
0.390963
0.397167
0.3805
0.385938
0.3909
0.405712
0.41392
0.413869
0.370908
0.436111
0.456845
0.393816
0.432188
0.434877
0.403282
0.416793
0.397296
0.402704
0.382775
0.392695
0.397092
0.435115
0.390792
0.499384
0.447502
0.452034
0.526502
0.575031
0.389721
0.425404
0.416472
0.384909
0.366319
0.490584
0.390701
0.398758
0.368797
0.314507
0.397792
0.404362
0.342574
0.337405
0.458125
0.428796
0.462112
0.326416
0.456059
0.4981
0.52044
0.40756
0.518899
0.537819
0.385463
0.356165
0.316159
0.573826
0.474223
0.420378
0.391018
0.39444
0.393592
0.395014
0.389184
0.442784
0.419207
0.458469
0.557108
0.546171
0.486328
0.432604
0.52772
0.411235
0.433991
0.389006
0.411522
0.338166
0.395738
0.38705
0.381237
0.380162
0.382771
0.381348
0.380565
0.442805
0.493406
0.609836
0.414451
0.581847
0.365354
0.299524
0.556135
0.497272
0.425197
0.421737
0.455799
0.455165
0.47315
0.493747
0.43412
0.385244
0.499956
0.455887
0.417231
0.441673
0.474909
0.480608
0.391107
0.394679
0.395037
0.391826
0.397086
0.399789
0.38625
0.386672
0.390542
0.379814
0.386445
0.386349
0.39309
0.391075
0.466535
0.381471
0.387213
0.38268
0.480504
0.381542
0.386972
0.390575
0.393013
0.390596
0.38663
0.39674
0.396449
0.388222
0.519689
0.383188
0.39299
0.396738
0.399286
0.393209
0.390287
0.385353
0.384291
0.454963
0.609132
0.559089
0.392025
0.623165
0.571211
0.529239
0.393945
0.388164
0.502253
0.461528
0.499907
0.400709
0.43194
0.389666
0.384183
0.391276
0.382444
0.378933
0.458506
0.484643
0.584303
0.373975
0.477932
0.403744
0.399294
0.459514
0.423558
0.487327
0.405894
0.422956
0.5236
0.417624
0.424899
0.505562
0.512411
0.512277
0.438443
0.423103
0.406891
0.390374
0.40448
0.383098
0.474041
0.425908
0.428604
0.387906
0.384569
0.38832
0.423396
0.422751
0.408941
0.450784
0.390928
0.397238
0.392519
0.392961
0.571067
0.452266
0.5097
0.393526
0.396328
0.401456
0.455043
0.441492
0.482655
0.461913
0.514029
0.398754
0.397169
0.384872
0.385075
0.389643
0.477154
0.625755
0.614071
0.627889
0.612587
0.484483
0.438864
0.42905
0.416592
0.415511
0.430141
0.457919
0.44558
0.403471
0.449846
0.387082
0.496048
0.484504
0.396013
0.434601
0.42771
0.438487
0.456108
0.437745
0.395971
0.39313
0.394905
0.388567
0.381036
0.427593
0.391741
0.387091
0.382347
0.3929
0.390625
0.418267
0.382901
0.388804
0.39228
0.387507
0.393619
0.417441
0.398047
0.577774
0.540913
0.42775
0.414123
0.480719
0.411869
0.390188
0.387114
0.466435
0.460032
0.475175
0.431618
0.436182
0.398329
0.394534
0.411192
0.4004
0.420468
0.417206
0.395601
0.590793
0.402412
0.45633
0.376073
0.4038
0.414215
0.425095
0.410898
0.387751
0.434443
0.403345
0.394419
0.408564
0.396461
0.474808
0.401044
0.399646
0.468468
0.413633
0.49319
0.388121
0.392073
0.401193
0.521307
0.449916
0.468007
0.431051
0.397651
0.433971
0.457233
0.397414
0.400929
0.399746
0.426895
0.390344
0.40062
0.399112
0.394819
0.405994
0.382589
0.389212
0.380598
0.387151
0.455775
0.47061
0.600881
0.441955
0.397385
0.411697
0.433562
0.390125
0.598168
0.532302
0.465218
0.43203
0.565388
0.401137
0.399327
0.398119
0.406127
0.391545
0.40882
0.398382
0.486159
0.402716
0.392833
0.523865
0.417233
0.451907
0.386922
0.465218
0.399266
0.40326
0.557263
0.402917
0.38165
0.395708
0.387701
0.404513
0.365185
0.369548
0.314787
0.393094
0.43576
0.426832
0.399084
0.407392
0.420347
0.454894
0.409329
0.431097
0.385647
0.393185
0.408685
0.390116
0.471414
0.402048
0.504721
0.469446
0.571549
0.491018
0.39355
0.392024
0.397955
0.395724
0.439473
0.588098
0.490788
0.463715
0.456349
0.396961
0.543702
0.347334
0.417376
0.409971
0.418173
0.423032
0.424438
0.437254
0.389941
0.396164
0.398076
0.416478
0.414199
0.445139
0.507142
0.399196
0.567008
0.402305
0.490984
0.407383
0.33115
0.395104
0.390523
0.403717
0.50498
0.395561
0.456183
0.429273
0.426888
0.394037
0.409514
0.395587
0.441947
0.413873
0.426689
0.479226
0.455068
0.407219
0.391129
0.388557
0.397903
0.402332
0.384107
0.415851
0.516169
0.395758
0.391069
0.403852
0.387192
0.395776
0.556225
0.466457
0.397673
0.40183
0.420997
0.389241
0.414939
0.475017
0.416226
0.404727
0.514854
0.489484
0.429928
0.433232
0.41799
0.391477
0.346039
0.411612
0.433255
0.467842
0.457462
0.384812
0.381655
0.375986
0.396205
0.386265
0.388051
0.386342
0.42544
0.403589
0.52515
0.433086
0.40443
0.424991
0.385723
0.406148
0.443926
0.350193
0.391175
0.374212
0.385722
0.38865
0.386011
0.395909
0.38359
0.379513
0.397369
0.381638
0.390224
0.386542
0.385221
0.412069
0.410432
0.400357
0.40927
0.3909
0.390888
0.388349
0.426955
0.383659
0.397289
0.384752
0.414766
0.38127
0.498628
0.438312
0.391981
0.402792
0.463623
0.51869
0.469563
0.525369
0.534276
0.519178
0.401695
0.45369
0.484391
0.406862
0.389647
0.444197
0.405538
0.44559
0.426424
0.371067
0.484083
0.41738
0.498684
0.42455
0.461059
0.402563
0.330569
0.528542
0.400273
0.554923
0.404132
0.42523
0.383899
0.386558
0.381985
0.352812
0.566636
0.454376
0.395525
0.37932
0.465039
0.416492
0.517088
0.444547
0.530955
0.387735
0.390032
0.417197
0.394803
0.401746
0.436704
0.49634
0.396228
0.404673
0.429371
0.438542
0.410265
0.389487
0.393488
0.445353
0.4274
0.470482
0.45403
0.425251
0.342368
0.426804
0.321126
0.447323
0.43302
0.472051
0.426515
0.373554
0.516811
0.421884
0.441616
0.351599
0.355984
0.414592
0.398384
0.417593
0.42061
0.414045
0.499903
0.38734
0.390059
0.520925
0.53149
0.385822
0.38843
0.391718
0.389572
0.39587
0.398597
0.39839
0.386256
0.397764
0.379158
0.381126
0.469119
0.38459
0.427469
0.387462
0.390502
0.44537
0.397637
0.398419
0.423333
0.403188
0.41507
0.407306
0.38359
0.394164
0.404342
0.395024
0.417976
0.397011
0.4008
0.443653
0.394562
0.517596
0.490177
0.441051
0.386371
0.32474
0.42082
0.401936
0.475839
0.468415
0.527997
0.437302
0.41256
0.407263
0.511657
0.390626
0.551356
0.435438
0.327229
0.467187
0.391387
0.423613
0.415404
0.410315
0.383446
0.394907
0.404176
0.358388
0.393291
0.441296
0.345995
0.414424
0.388536
0.412117
0.402364
0.410761
0.423654
0.39349
0.434228
0.475086
0.515043
0.391372
0.443715
0.530866
0.394197
0.409626
0.39951
0.462909
0.396763
0.395605
0.382263
0.385629
0.390709
0.393366
0.385641
0.390178
0.417217
0.39518
0.476833
0.410968
0.412055
0.430887
0.425273
0.410119
0.39385
0.39527
0.395219
0.394542
0.416507
0.386394
0.386328
0.387466
0.387805
0.388348
0.380718
0.379867
0.498007
0.449713
0.436263
0.37742
0.441451
0.386287
0.399024
0.396301
0.421009
0.389816
0.39493
0.384984
0.412786
0.502613
0.501902
0.507463
0.426358
0.513106
0.52054
0.398915
0.424085
0.396102
0.378646
0.379939
0.410175
0.388776
0.40732
0.389751
0.392422
0.400789
0.391518
0.381048
0.388551
0.399042
0.380002
0.38255
0.43576
0.472783
0.43001
0.399647
0.446246
0.381333
0.403429
0.405332
0.437917
0.522249
0.540852
0.421487
0.351507
0.426052
0.434218
0.52419
0.470735
0.387495
0.391213
0.386856
0.381082
0.383899
0.455275
0.486481
0.638594
0.589579
0.395247
0.405796
0.402529
0.41737
0.424139
0.410121
0.443511
0.541635
0.585266
0.530185
0.538365
0.496695
0.620133
0.58021
0.641764
0.465056
0.671656
0.618736
0.443631
0.370934
0.551479
0.341538
0.395815
0.412513
0.398553
0.440217
0.488523
0.367501
0.388386
0.477423
0.629532
0.511651
0.39378
0.359032
0.321562
0.313632
0.325581
0.469595
0.419936
0.423041
0.373098
0.408012
0.393129
0.440834
0.364314
0.495721
0.572087
0.421094
0.445084
0.443143
0.458024
0.304945
0.422696
0.401249
0.38358
0.470463
0.449955
0.398151
0.385446
0.390091
0.398478
0.394635
0.390918
0.350816
0.386941
0.393064
0.411956
0.391305
0.331187
0.319852
0.561038
0.409039
0.587098
0.429577
0.409668
0.408076
0.394007
0.504308
0.536132
0.453978
0.415442
0.385457
0.431529
0.350259
0.326707
0.396527
0.390873
0.443429
0.460099
0.517205
0.477793
0.379366
0.387967
0.395253
0.388106
0.394881
0.454802
0.43633
0.515406
0.427557
0.39695
0.402256
0.38884
0.387167
0.432712
0.381792
0.399736
0.392356
0.403618
0.408409
0.392208
0.421647
0.399354
0.503402
0.391659
0.399759
0.403663
0.382337
0.403326
0.396439
0.383634
0.38388
0.382863
0.491671
0.464946
0.562437
0.512222
0.513633
0.393982
0.516966
0.409381
0.403859
0.384156
0.486287
0.368719
0.397627
0.406129
0.521666
0.407959
0.402708
0.394728
0.459355
0.362836
0.403764
0.482499
0.406074
0.391397
0.383909
0.396834
0.389131
0.397702
0.397187
0.40576
0.366585
0.376395
0.400795
0.409885
0.403898
0.397848
0.408835
0.551715
0.417762
0.39156
0.387042
0.393073
0.496066
0.404025
0.403944
0.449993
0.50936
0.431041
0.498407
0.400717
0.542897
0.401041
0.519328
0.51762
0.576271
0.546327
0.54026
0.398824
0.564782
0.4703
0.419234
0.401856
0.39608
0.461144
0.433824
0.405078