/*--------------------------------*- C++ -*----------------------------------*\
| =========                 |                                                 |
| \\      /  F ield         | OpenFOAM: The Open Source CFD Toolbox           |
|  \\    /   O peration     | Version:  2506                                  |
|   \\  /    A nd           | Website:  www.openfoam.com                      |
|    \\/     M anipulation  |                                                 |
\*---------------------------------------------------------------------------*/
FoamFile
{
    version     2.0;
    format      ascii;
    arch        "LSB;label=32;scalar=64";
    class       volScalarField;
    location    "0.00481384";
    object      nut;
}
// * * * * * * * * * * * * * * * * * * * * * * * * * * * * * * * * * * * * * //

dimensions      [0 2 -1 0 0 0 0];

internalField   nonuniform List<scalar> 
3918
(
0.000809848
0.00418778
0.00285626
0.00688393
0.00427533
0.000224518
0.00019705
0.00126715
0.00731712
0.00647566
0.000836958
0.000649215
0.00235625
0.00417214
0.0050166
0.000510527
0.000413539
0.00232848
0.000794527
0.00596825
0.000480418
0.0038084
0.000644045
0.000708307
0.00226491
0.0010345
0.00112357
0.00647749
0.00084433
0.00145392
0.00175933
0.0053732
0.00103902
0.00584265
0.00119895
0.00119921
0.00400201
0.00292629
0.000574917
0.00340283
0.000967186
0.00290368
0.000637845
0.000927881
0.00322796
0.000631923
0.00693765
0.000544826
0.00547218
0.00556626
0.000807839
0.000484018
0.00102215
0.00181465
0.00325067
0.00146316
0.00330513
0.00293182
0.00158184
0.00717121
0.00127432
0.00195613
0.00547516
0.000866647
0.000377516
0.00609383
0.00197332
0.00116472
0.00163472
0.00125454
0.0010742
0.00110179
0.00145211
0.00122199
0.000238978
0.000141709
0.00143948
0.00107352
0.00148783
0.00608102
0.00166309
0.000185948
0.00116612
0.00582091
0.00405528
0.00279879
0.000797321
0.00211676
0.000319598
0.00666435
0.00207801
0.00340266
0.000860326
0.00114285
0.00475884
0.00188901
0.00209555
0.00215329
0.00086808
0.00040955
0.00659192
0.00651923
0.00281888
0.00665754
0.00636754
0.00219724
0.00207092
0.000586289
0.00601187
0.00156725
0.00160542
0.00450477
0.000376164
0.00167321
0.0047389
0.00228508
0.000879607
0.0029654
0.00167219
0.000902623
0.00521842
0.000733979
0.00287253
0.000954624
0.00154149
0.000135522
0.00727399
0.000899097
0.000852411
0.00104019
0.00571325
0.00154761
0.00103085
0.00472976
0.000494521
0.000552708
0.000761743
0.00188374
0.000753666
0.00256273
0.000746413
0.00219738
0.00102091
0.000465153
0.00237074
0.00368831
0.000407661
0.000658973
0.000306491
0.00229643
0.00617624
0.000255732
0.00543507
0.000969532
0.00274461
0.00172287
0.000505928
0.000510191
0.00293983
0.00632663
0.0068495
0.000809595
0.00191819
0.00105885
0.000738334
0.00378642
0.000736222
0.000335602
0.000777467
0.00234798
0.000662442
0.00223525
0.000701654
0.000758427
0.00233446
0.00202071
0.00100883
0.0013574
0.000408006
0.000922759
0.00574055
0.00181826
0.000665489
0.00140341
0.00251829
0.0011456
0.000721363
0.00137119
0.00145432
0.00229616
0.00615159
0.000468545
0.000657585
0.000713909
0.00523852
0.00152785
0.00371412
0.00292995
0.00149203
0.00427727
0.000856307
0.00161301
0.000823595
0.00208647
0.000725867
0.000914597
0.00109055
0.000386888
0.00132602
0.00206454
0.00411582
0.000705156
0.0018426
0.000578164
0.00112499
0.000262064
0.00168201
0.00187252
0.00148637
0.000463476
0.000244857
0.00121581
0.000679175
0.00287315
0.00135701
0.00095933
0.000877181
0.00151201
0.000245725
0.00129327
0.000952472
0.00154957
0.000618099
0.00267644
0.00546295
0.00108258
0.000565227
0.00459257
0.00192761
0.00445099
0.0025226
0.00114683
0.00237591
0.00171389
0.0026847
0.00249474
0.0041513
0.00132732
0.000534303
0.00181401
0.00464702
0.00179616
0.00260643
0.00215349
0.00137856
0.00108298
0.000144769
0.00163989
0.000987028
0.0014687
0.000837051
0.00480703
0.000703316
0.00386129
0.000372571
0.00159403
0.00102378
0.00100259
0.00102906
0.000809831
0.00742434
0.00206956
0.00402118
0.00166503
0.00158439
0.00136314
0.000835726
0.0020875
0.00090059
0.00179392
0.000894084
0.000705105
0.00152538
0.00369318
0.00179023
0.000374399
0.00508791
0.000757764
0.00334854
0.00157847
0.000663536
0.00281452
0.0003128
0.00363196
0.00119764
0.00138928
0.000585397
0.000574012
0.000198907
0.00278752
0.00377403
0.00152346
0.00273262
0.000818254
0.00145158
0.000582032
0.000632346
0.000792843
0.00347745
0.000664134
0.000921951
0.000209648
0.00178414
0.00239494
0.000889591
0.000256202
0.00399378
0.000888337
0.000544614
0.000140701
0.00115568
0.000803269
0.00162044
0.00315287
0.00698296
0.00132076
0.00715606
0.00119156
0.00348975
0.00533116
0.000786204
0.000901998
0.00146891
0.00106837
0.00295881
0.000745195
0.000907134
0.00379195
0.000413023
0.00570309
0.00318879
0.000899439
0.00184865
0.00219672
0.00100988
0.00123925
0.000553434
0.000474849
0.00158311
0.000562509
0.000642149
0.000455952
0.00076761
0.00245262
0.00738703
0.00474994
0.00109597
0.00102323
0.00114035
0.00483429
0.00260419
0.000506952
0.000801296
0.000451615
0.00218577
0.000985779
0.0020898
0.00247592
0.00224424
0.000345219
0.00139094
0.00156302
0.000746599
0.00059817
0.00110685
0.000431164
0.000302818
0.00149699
0.0010854
0.00522762
0.00681154
0.00161893
0.00190036
0.00162983
0.0016579
0.00133077
0.000881761
0.000471096
0.000973983
0.000541259
0.0016757
0.00216297
0.00435097
0.00166755
0.00332513
0.000640831
0.000467483
0.00477981
0.00135865
0.000543409
0.000651385
0.00571114
0.00428585
0.00134952
0.00318807
0.00739019
0.000626339
0.000557968
0.00147408
0.000538873
0.000872927
0.00280845
0.00153672
0.00362078
0.00253559
0.00443475
0.00682338
0.00515708
0.00377536
0.00649422
0.00608892
0.00150217
0.00546819
0.00617665
0.00711983
0.00601495
0.0027015
0.00633152
0.00303235
0.00100006
0.00255654
0.00226716
0.000752223
0.000270237
0.00162247
0.000496333
0.000230648
0.00579898
0.00449767
0.00490956
0.00440776
0.0036588
0.00107226
0.000641226
0.000724956
0.00478908
0.000919183
0.00249794
0.000348209
0.00418947
0.00118788
0.00227935
0.00159924
0.00413162
0.00120454
0.00493933
0.000235824
0.00141521
0.000514757
0.00320181
0.00686131
0.000277283
0.00177531
0.00612848
0.000956116
0.00152727
0.00112363
0.000709854
0.00474212
0.00360765
0.000807408
0.00388229
0.000265155
0.00132963
0.00242205
0.000934831
0.000504421
0.00152522
0.000301091
0.000883761
0.000980148
0.000737739
0.00190609
0.00225148
0.00134823
0.0065017
0.00022977
0.000858892
0.0011748
0.000692116
0.00107858
0.00658815
0.000564648
0.00024713
0.0039194
0.000428926
0.0012264
0.00197949
0.000313705
0.00302419
0.00377208
0.00701013
0.00489721
0.00431547
0.00566488
0.00652728
0.00424186
0.00697772
0.00706319
0.00286115
0.00140211
0.0015887
0.000927866
0.00289963
0.00602746
0.00378665
0.00615495
0.00147374
0.00600641
0.00609957
0.00241231
0.00731741
0.00498097
0.00116011
0.00113182
0.00425687
0.0014901
0.00512593
0.000993566
0.00146383
0.00116308
0.000385868
0.000959527
0.000565712
0.00738321
0.00538405
0.000542426
0.000627228
0.00421736
0.00109473
0.00732705
0.00675279
0.00254016
0.00174314
0.00212596
0.000315353
0.00100795
0.000285601
0.00529203
0.00350458
0.00655905
0.000542697
0.000466794
0.000553275
0.000505717
0.00170955
0.000430404
0.000815287
0.00102377
0.000742539
0.000844469
0.000640418
0.00205072
0.000768762
0.00311278
0.000465524
0.0050018
0.00569103
0.000925376
0.00478808
0.000437208
0.00090693
0.000602622
0.0018288
0.00310578
0.0011106
0.000768009
0.00609704
0.0023064
0.00494412
0.00161685
0.000329129
0.000722906
0.00404919
0.000422383
0.000782343
0.000947397
0.00176546
0.00060629
0.000507946
0.000594213
0.000896903
0.00234262
0.00489253
0.000932809
0.00105174
0.0016301
0.0011337
0.000353981
0.000852959
0.0055612
0.000296823
0.000793174
0.000678028
0.00142419
0.000812558
0.00352713
0.00196125
0.00118373
0.00190233
0.00110024
0.00140556
0.00144358
0.000906838
0.00461322
0.000266455
0.000663469
0.00162302
0.00105639
0.00126934
0.00144589
0.00126404
0.00107299
0.000879343
0.000560387
0.000374684
0.000721245
0.000704036
0.000723907
0.00265043
0.00426569
0.00477879
0.00133998
0.00247393
0.000702059
0.00151679
0.00100382
0.000913499
0.00105115
0.000847548
0.0041436
0.00658147
0.00537838
0.000734846
0.00111014
0.00143278
0.00483971
0.0039617
0.00151033
0.00427662
0.00554689
0.00227662
0.00533776
0.00507644
0.00655316
0.00472535
0.00216105
0.00330673
0.00515316
0.000862905
0.00189998
0.0012085
0.00444862
0.000435811
0.00100038
0.000494334
0.00064959
0.000401011
0.000893451
0.00119679
0.00165106
0.00259234
0.00179611
0.00502598
0.00108778
0.0015751
0.00089324
0.000619844
0.00110325
0.000991001
0.00744395
0.00740676
0.00656392
0.00745035
0.00190046
0.00510205
0.00118214
0.00738147
0.00283655
0.00269148
0.0038562
0.00149685
0.000454072
0.000126139
0.00158319
0.000760021
0.000259486
0.000721691
0.000906041
0.000749666
0.000533086
0.000749017
0.000689075
0.00518472
0.00226729
0.00223399
0.00170366
0.00204769
0.000656788
0.000743621
0.00049226
0.000774616
0.000790419
0.00106315
0.000765303
0.000710849
0.000719475
0.00587137
0.00626321
0.00358541
0.0051722
0.000705305
0.00263001
0.00658794
0.00240889
0.00291073
0.00467637
0.00391623
0.00489077
0.00191637
0.00112353
0.00151342
0.00120676
0.0034315
0.0015475
0.00137582
0.000364929
0.00636112
0.0053467
0.00119266
0.00654452
0.000343114
0.00168002
0.00112837
0.00736072
0.000950687
0.000339486
0.0010992
0.00407199
0.000994519
0.000979259
0.000339376
0.0022706
0.00066725
0.000392338
0.00157493
0.00190447
0.00357526
0.00121079
0.00137964
0.00367452
0.000243393
0.00628784
0.00546856
0.00479194
0.00393074
0.000841451
0.00109451
0.000782115
0.000644417
0.00183102
0.000850728
0.00359469
0.000595321
0.000486914
0.0051924
0.00142359
0.000616826
0.00111743
0.000627365
0.000736531
0.000141137
0.00351879
0.00291494
0.000328599
0.00267512
0.00559911
0.00180703
0.00141003
0.00100659
0.000864029
0.000554405
0.000823936
0.000827783
0.000811241
0.00156551
0.00546201
0.00452876
0.00476337
0.00421131
0.00235803
0.00483103
0.000313649
0.00043811
0.000158207
0.00213622
0.00135219
0.0053897
0.000257532
0.001583
0.00429969
0.00220165
0.00718363
0.000623442
0.00247786
0.00148317
0.00516152
0.00720411
0.00663062
0.00739784
0.00106345
0.000891671
0.00128531
0.0014496
0.00134944
0.00149618
0.000920608
0.00140603
0.000954799
0.000746688
0.00190795
0.000735474
0.00167526
0.00174534
0.00661496
0.00181716
0.00141229
0.000504058
0.00322841
0.000601899
0.00463348
0.0019589
0.00571089
0.000949809
0.000369776
0.00101371
0.00142079
0.00108728
0.000824897
0.00394755
0.00550957
0.000921007
0.000977601
0.000266568
0.000785993
0.00400315
0.000193201
0.000235223
0.0023706
0.000702377
0.00118724
0.00111768
0.00637684
0.00590767
0.0012668
0.00239722
0.00626536
0.00655676
0.00192586
0.0017814
0.00110576
0.00548202
0.00524607
0.000672689
0.00148793
0.000834473
0.00614073
0.00219212
0.00632001
0.00212619
0.000497661
0.00279548
0.00439913
0.00160669
0.00447838
0.00135835
0.00129695
0.000347439
0.000451536
0.000780728
0.00157928
0.00216587
0.00210908
0.000107189
0.00297759
0.000340987
0.000610491
0.00109098
0.000789055
0.00143158
0.00116687
0.00224282
0.00622718
0.000470098
0.000996982
0.000561434
0.00013652
0.000163886
0.000780254
0.000175349
0.00625786
0.00427647
0.00169076
0.00712906
0.00477766
0.00115219
0.000759103
0.00246437
0.00524366
0.00494947
0.00622552
0.00239691
0.000568909
0.00339351
0.00297341
0.000281864
0.00359735
0.00238076
0.000844873
0.00130386
0.000639947
0.00119795
0.000253318
0.00404913
0.000643539
0.00102313
0.000970487
0.00149207
0.000660731
0.003153
0.00206329
0.000949666
0.000973331
0.00291515
0.000930136
0.00141344
0.000634576
0.00102143
0.000953505
0.00252547
0.00106867
0.00117229
0.000197786
0.00195423
0.00217286
0.00495064
0.00654548
0.00141779
0.000217364
0.000619152
0.00317537
0.00134232
0.000977986
0.00123568
0.00159988
0.000440984
0.0035961
0.0003571
0.00130926
0.00102887
0.00263152
0.000828916
0.00449117
0.00166484
0.000250375
0.00027299
0.00017053
0.00129892
0.00574756
0.000896406
0.000862057
0.000486688
0.000553225
0.00035958
0.00344249
0.00219974
0.00136513
0.00360518
0.0032055
0.0029355
0.00145943
0.00595852
0.000668737
0.000132893
0.0051993
0.000767124
0.00030312
0.000626115
0.000272291
0.000715364
0.00611061
0.00117151
0.000133229
0.00622736
0.00117419
0.000733611
0.00117648
0.0012404
0.00154854
0.00590834
0.00123687
0.000878501
0.00377764
0.00143258
0.00498195
0.00679206
0.00251375
0.00538488
0.00164069
0.00141444
0.00142675
0.000597651
0.00745425
0.000371747
0.00129573
0.00550076
0.000611069
0.00398525
0.00725024
0.00178614
0.00122115
0.00161651
0.00292262
0.00477621
0.000661775
0.00275501
0.0053951
0.00103804
0.00188471
0.00381762
0.000751201
0.000584126
0.00137837
0.00119996
0.000551264
0.000808134
0.00236097
0.00246139
0.00683791
0.00466588
0.00356935
0.00108082
0.0011642
0.000576998
0.00680355
0.00120593
0.00377784
0.00475753
0.0055026
0.00271658
0.0033446
0.00461474
0.00595512
0.00724729
0.0013826
0.000381548
0.00124689
0.00690856
0.00429147
0.0025474
0.00725871
0.00132758
0.0054989
0.00128149
0.00233748
0.000961187
0.000787995
0.0012358
0.0047599
0.000376767
0.00116137
0.00584021
0.00467351
0.000688878
0.00594632
0.00474517
0.00147233
0.00278453
0.00161638
0.00153465
0.00170647
0.00107627
0.000913315
0.00150047
0.000843168
0.00130912
0.00348518
0.00195432
0.000879557
0.00153955
0.00117319
0.00355776
0.00684515
0.00329729
0.00115709
0.000873714
0.00233962
0.00159426
0.00389668
0.00640665
0.00108676
0.00393243
0.00495617
0.00422279
0.00236211
0.00218164
0.00502694
0.00318845
0.00410312
0.000702083
0.00120894
0.00153083
0.00159322
0.00159938
0.00160155
0.00127966
0.000788671
0.000343434
0.00419051
0.006078
0.0069634
0.00205179
0.00369678
0.00600177
0.00563673
0.00390151
0.00169916
0.00162553
0.00571548
0.000779958
0.00197841
0.00392356
0.00388085
0.00526873
0.000322146
0.000713682
0.00121728
0.00591341
0.00503554
0.00656544
0.0011389
0.00334137
0.00182044
0.0042286
0.00495774
0.00708495
0.000116276
0.0002509
0.00356366
0.00122066
0.00092595
0.00188394
0.00104857
0.000905049
0.00465987
0.000538489
0.00368537
0.000746364
0.00722372
0.00454719
0.00715899
0.000215286
0.00097235
0.00583046
0.00074854
0.000495128
0.00128952
0.00490755
0.00616597
0.000700056
0.00711527
0.00143959
0.00575093
0.000904298
0.00373895
0.000149108
0.00087783
0.00162474
0.0020483
0.000527942
0.00190567
0.000702832
0.000782536
0.00246401
0.00344547
0.000499086
0.000291406
0.000727545
0.00182015
0.000669179
0.00203543
0.00035024
0.000500945
0.00122541
0.00106923
0.00403391
0.00203033
0.000882521
0.00146195
0.00112698
0.000837119
0.00272173
0.00610151
0.00736927
0.00741374
0.00306132
0.00615484
0.00663509
0.00296234
0.00361292
0.00256244
0.00514975
0.00365001
0.00415306
0.00148619
0.00377258
0.00165332
0.00205435
0.00150252
0.00315502
0.00678104
0.00417723
0.00751396
0.00483433
0.00657721
0.000770731
0.000868232
0.000840806
0.000767457
0.00174663
0.00580299
0.00378379
0.00263652
0.00436339
0.000843473
0.000711833
0.00369873
0.000549324
0.00106378
0.00124264
0.000631598
0.000730322
0.00096569
0.00436503
0.00559679
0.00279964
0.00480193
0.00410557
0.000964816
0.00329189
0.00106465
0.00548828
0.00341246
0.00183785
0.00596587
0.00421263
0.00530004
0.00736612
0.00683573
0.00523863
0.00249758
0.00434023
0.0010372
0.00502065
0.00240927
0.00423871
0.006149
0.00200367
0.000561142
0.00472875
0.00070065
0.00039709
0.000732055
0.00121213
0.000503624
0.000688669
0.000671335
0.00249867
0.000913257
0.00242237
0.00202212
0.00166325
0.00150447
0.000520631
0.00450907
0.00062992
0.00211131
0.000106888
0.000741955
0.00101826
0.000630188
0.000248664
0.0034672
0.00479706
0.0013294
0.00073678
0.000494513
0.000518201
0.000720775
0.000246237
0.00175338
0.00207327
0.00090544
0.00496382
0.00633375
0.00112949
0.000448972
0.00445314
0.000429053
0.00160404
0.000732886
0.00116981
0.000539011
0.00120129
0.00611225
0.00183487
0.00148149
0.00260324
0.00108358
0.000645342
0.00143921
0.00329647
0.00195048
0.000706174
0.00151057
0.000976996
0.000405016
0.00322231
0.00603731
0.00580728
0.00270551
0.00537242
0.000832022
0.000751532
0.0015105
0.000575678
0.000568987
0.000452455
0.000855339
0.000652612
0.00128086
0.00125073
0.00368674
0.00153842
0.000911726
0.000744481
0.000622685
0.00551884
0.00117199
0.00203211
0.00624713
0.000525171
0.000164422
0.000474928
0.00490149
0.000296818
0.000169639
0.00024412
0.00108796
0.00174196
0.00106242
0.000523907
0.000725948
0.00359808
0.000520476
0.00141913
0.000820393
0.000276239
0.000218385
0.00108625
0.00450653
0.00236098
0.000569684
0.000691812
0.000214916
0.000380132
0.00186827
0.00132724
0.00128501
0.0012418
0.000500808
0.00743542
0.00054143
0.00562908
0.00515012
0.000631903
0.000714207
0.00134871
0.000122628
0.00651432
0.000622799
0.00729014
0.00257347
0.00105582
0.00083391
0.000956731
0.00238957
0.00134105
0.00129225
0.00486037
0.00242249
0.00208699
0.00112793
0.00258447
0.00216603
0.00381631
0.00262785
0.00231896
0.000398956
0.00144055
0.000958225
0.00180721
0.00329637
0.000724364
0.000257463
0.00250365
0.00041588
0.00359857
0.00207579
0.00092525
0.00241521
0.00364246
0.00331663
0.00356706
0.00181507
0.00030315
0.000904502
0.00338465
0.000553336
0.0007399
0.00117823
0.0015957
0.0032253
0.00685906
0.00325463
0.00305428
0.0036604
0.00398147
0.00462272
0.0012537
0.00299588
0.0054806
0.00099657
0.000623013
0.000241077
0.00387398
0.00148182
0.00275714
0.00158921
0.00217576
0.00135808
0.00221233
0.000602274
0.00092767
0.00265071
0.00261781
0.00389235
0.00365495
0.00134497
0.0026152
0.00182733
0.000497692
0.000397438
0.00152858
0.000580457
0.00174003
0.00262723
0.000897143
0.000566763
0.000510014
0.000632774
0.000506963
0.00137138
0.000830414
0.00281458
0.00153881
0.00406719
0.00701007
0.00370275
0.00430306
0.00143337
0.000490262
0.000972825
0.00182902
0.000376347
0.00141095
0.000863798
0.00325306
0.00590679
0.00084268
0.000834097
0.000343095
0.000439544
0.000966648
0.0035323
0.000270129
0.00118593
0.000909727
0.00163546
0.000553143
0.00160053
0.000126054
0.00274203
0.00157718
0.000168454
0.000759456
0.00269474
0.00710382
0.00638344
0.00136512
0.000769009
0.000741611
0.000848778
0.000211625
0.00147809
0.000224095
0.00391962
0.00223188
0.00304259
0.00343039
0.00119988
0.00346799
0.00714999
0.000610427
0.00113281
0.00162678
0.000353732
0.0019843
0.000918136
0.000777058
0.00103869
0.000294805
0.00274159
0.00127638
0.000529475
0.00142511
0.000772229
0.000906215
0.000574389
0.000846233
0.00109671
0.00134088
0.000907555
0.000661714
0.000944531
0.00143254
0.0069609
0.000513888
0.00077627
0.000597594
0.00068836
0.00023379
0.000262072
0.00482712
0.00330854
0.00660349
0.00515912
0.000760416
0.00137492
0.00130367
0.000711387
0.00144659
0.0014743
0.00420385
0.00159253
0.000775802
0.00235691
0.00111117
0.00217119
0.000998023
0.00301202
0.000835512
0.000270457
0.000683748
0.00320226
0.0040137
0.00120323
0.00113144
0.00151466
0.00380112
0.00110801
0.00168216
0.00117875
0.000930907
0.000282739
0.0025629
0.000808842
0.000924446
0.00221235
0.00636548
0.00478205
0.00741485
0.00114108
0.00704784
0.00152152
0.000812344
0.00161062
0.001795
0.00202875
0.00120636
0.00427555
0.00184974
0.00532743
0.00437398
0.00340791
0.00178847
0.000746695
0.00630781
0.000842335
0.00135275
0.00507359
0.00345072
0.000813822
0.00215488
0.00668992
0.00133338
0.00463247
0.00105119
0.0013735
0.00104149
0.0029647
0.00450634
0.00546284
0.000559679
0.00496233
0.00477588
0.0065628
0.00131312
0.00344551
0.00190464
0.00745846
0.00727895
0.00358162
0.00323934
0.000889081
0.00227285
0.00274093
0.00117752
0.00100122
0.00597716
0.00438961
0.00457828
0.00289798
0.000772525
0.00103806
0.000841348
0.00588476
0.00119461
0.0019479
0.00329822
0.00282425
0.00336174
0.00371071
0.00631984
0.00264889
0.00142184
0.00155891
0.00211177
0.00136508
0.00101859
0.0013994
0.000739163
0.000760102
0.00199677
0.000830773
0.000737206
0.00408125
0.00104813
0.00258475
0.0032969
0.000878013
0.00273783
0.00599718
0.00723441
0.00290696
0.00102958
0.0050535
0.000594639
0.000509056
0.000752863
0.000699504
0.000956774
0.000874716
0.000851803
0.0012334
0.00106013
0.00503245
0.00197377
0.0036123
0.00244106
0.000812329
0.00552353
0.00384165
0.00320876
0.00632756
0.00126981
0.000443284
0.000575382
0.0010464
0.000861873
0.00127144
0.000624736
0.00120371
0.00132093
0.00146768
0.000753239
0.00567572
0.00695375
0.0048339
0.00418359
0.00105845
0.00463492
0.00205373
0.000817393
0.000924695
0.00384939
0.00071004
0.00166003
0.00467368
0.00350278
0.000117498
0.00015523
0.00215892
0.00334561
0.00656487
0.00276672
0.00289308
0.00127562
0.000826892
0.00107683
0.000719322
0.000433623
0.00088816
0.00196077
0.000740916
0.000827727
0.00064438
0.0020556
0.00094242
0.00104099
0.000701223
0.00211979
0.00586528
0.000971776
0.00694533
0.00278925
0.00229491
0.00114898
0.000402541
0.00168521
0.00108305
0.00208599
0.00107317
0.000704361
0.00075822
0.00678057
0.00281706
0.00171681
0.000888248
0.00169352
0.00130986
0.00146621
0.00443258
0.00682323
0.0016586
0.00443262
0.0038539
0.00103475
0.000512348
0.000585174
0.00518106
0.00282631
0.000451781
0.000672543
0.000740283
0.000901861
0.00115506
0.0012131
0.00278885
0.00511026
0.00348648
0.0040148
0.00179253
0.000701756
0.00124558
0.0030065
0.00653618
0.000774746
0.00113759
0.00093823
0.00118279
0.0038575
0.00107316
0.000761021
0.000747323
0.000980309
0.00143861
0.00107403
0.00126153
0.00234884
0.0058036
0.00357124
0.00572873
0.000458226
0.0016686
0.00146605
0.000744614
0.00054848
0.000109221
0.000733727
0.000164193
0.0007986
0.000690397
0.00286987
0.00114582
0.0027202
0.000287556
0.00015113
0.00245614
0.000689925
0.000199575
0.000270958
0.00025598
0.00545388
0.00174376
0.00166166
0.000883355
0.00342191
0.00068452
0.000782619
0.00241915
0.00719947
0.00283664
0.00225347
0.00204041
0.000803261
0.00275313
0.00160515
0.00176325
0.000173188
0.000350338
0.000848551
0.00165516
9.33179e-05
0.00206239
0.0007156
0.000680054
0.000534271
0.00161744
0.00247141
0.00291626
0.00566066
0.00191214
0.00184359
0.000782854
0.00113583
0.000850183
0.00144743
0.000960831
0.000562946
0.000467943
0.00163168
0.000249359
0.00178988
0.000988939
0.00189649
0.0012539
0.0026663
0.00090447
0.00205323
0.0014327
0.0034756
0.000124561
0.00121558
0.00104197
0.000375251
0.000978376
0.000318071
0.0020241
0.000973932
0.00728197
0.00096528
0.000497002
0.000574063
0.00117319
0.00201024
0.000927526
0.000728243
0.000579563
0.000605234
0.000233034
0.000108649
0.000750978
0.000364454
0.000535689
0.00103859
0.000851031
0.000334923
0.000376003
0.00356992
0.00110283
0.00210368
0.00733369
0.00408042
0.00327178
0.00375529
0.00122561
0.00731152
0.00115213
0.00393481
0.00271221
0.00394008
0.0030384
0.00135505
0.0022408
0.00119433
0.00336105
0.00380057
0.00250078
0.00432294
0.00260712
0.00129701
0.000677557
0.00078985
0.00117723
0.00302109
0.00161182
0.000880286
0.00124568
0.00115331
0.00090717
0.00107063
0.0010029
0.00558363
0.00590354
0.0034742
0.00610963
0.00372461
0.00106686
0.00128988
0.00273364
0.00280032
0.00515273
0.00210583
0.00322584
0.00143808
0.00215167
0.00130714
0.000895363
0.00604601
0.00262454
0.00039857
0.000252744
0.000901657
0.00157611
0.000978833
0.000576687
0.00158948
0.000734875
0.000293915
0.00154517
0.00166989
0.000757105
0.000332257
0.00162223
0.000404498
0.000266867
0.000383807
0.00209973
0.00236039
0.00646444
0.00265106
0.000521376
0.00358138
0.00283834
0.00192579
0.000685645
0.00128304
0.00151751
0.00271181
0.00048489
0.00134576
0.00145265
0.000686181
0.00401344
0.000711303
0.00122164
0.0057697
0.00407725
0.0027278
0.00720767
0.000673377
0.0046628
0.00434954
0.000938542
0.00418062
0.00729153
0.000353567
0.000921365
0.00374735
0.00128618
0.00612591
0.00072419
0.00521186
0.00270611
0.00133178
0.000496712
0.000529924
0.00239229
0.00221975
0.00422482
0.0011018
0.000318502
0.00102528
0.00100262
0.00237851
0.00641505
0.00501584
0.00126199
0.00185994
0.001712
0.00448591
0.00397137
0.00130275
0.00248561
0.00116262
0.00576435
0.000442966
0.000211727
0.00217023
0.000296507
0.00101845
0.00179983
0.00119282
0.0002691
0.000165546
0.00107774
0.00049666
0.000900142
0.000952317
0.000766712
0.000629669
0.00360542
0.00451184
0.00391218
0.00292562
0.000164591
0.000622392
0.00109522
0.000858235
0.00230174
0.00273217
0.00339835
0.00527607
0.00275555
0.00491073
0.00607326
0.00368545
0.00221578
0.00348626
0.0035121
0.000880474
0.0023901
0.000453416
0.000254646
0.0024718
0.000995801
0.000973964
0.00226518
0.000239751
0.000890272
0.000232063
0.000956495
0.000372806
0.0052438
0.000335753
0.00082712
0.00260834
0.00412924
0.00590963
0.000407213
0.00273681
0.00165728
0.00513489
0.00525109
0.00100628
0.00296101
0.000888407
0.00087129
0.00112592
0.00144763
0.000768498
0.000537566
0.000756883
0.000984926
0.000974931
0.00157494
0.00023237
0.00156705
0.000987999
0.00416109
0.00143447
0.000251765
0.00220921
0.000807032
0.00725284
0.00160964
0.00221671
0.00319083
0.00207908
0.00295631
0.000485354
0.00131712
0.00149445
0.00164499
0.000171856
0.000709264
0.000615845
0.000343197
0.000786202
0.00339492
0.00236652
0.00144994
0.00295418
0.0031297
0.00349805
0.00156379
0.0012875
0.000944847
0.00384154
0.00183138
0.00191219
0.001493
0.00093673
0.000985613
0.000454224
0.00218169
0.00155035
0.000849007
0.00281773
0.00478801
0.00128179
0.000996803
0.00174267
0.00232277
0.000599761
0.00293105
0.0014955
0.00515814
0.000463442
0.000681877
0.00252282
0.00268241
0.00559464
0.00114262
0.00197842
0.00190615
0.00259457
0.00261349
0.00616678
0.00245704
0.0071104
0.00360884
0.00103485
0.00412523
0.000759851
0.000915122
0.00186993
0.00267796
0.000707227
0.00166444
0.00139361
0.000801156
0.00557957
0.00110659
0.00404611
0.00622609
0.00317789
0.00688356
0.000495758
0.002787
0.000434202
0.00054382
0.00571618
0.00172947
0.00151617
0.0019075
0.00339594
0.00127751
0.00150025
0.00106097
0.000420024
0.00216677
0.00451068
0.00134796
0.00573474
0.00360146
0.000340002
0.00348167
0.00526155
0.00226814
0.00197264
0.00104929
0.0069952
0.00128571
0.00190956
0.00249881
0.000764458
0.00121462
0.00330147
0.00137233
0.00168997
0.00129985
0.00498255
0.00256095
0.0021851
0.00275698
0.00140597
0.00168136
0.00211769
0.0044697
0.00627287
0.00096381
0.0014081
0.00123939
0.0063255
0.0012253
0.0014929
0.000650633
0.00140805
0.000735607
0.00218605
0.00055912
0.00331992
0.00311682
0.000845268
0.000394043
0.00711437
0.00396134
0.000670907
0.00151368
0.00109458
0.000199597
0.00118717
0.00127159
0.00350825
0.000161332
0.000483196
0.000406534
0.000713024
0.00166613
0.00125613
0.00202344
0.00140507
0.000821611
0.000258559
0.00109602
0.00116126
0.00120348
0.00645278
0.00148812
0.00696857
0.00141955
0.00532555
0.00719216
0.00486253
0.00214371
0.00110571
0.000900221
0.00124585
8.87946e-05
0.000821365
0.00104078
0.000940302
0.000481312
0.00142891
0.00360237
0.000519077
0.000873231
0.00151628
0.000508356
0.00446284
0.0013021
0.00168572
0.00120476
0.00597085
0.000756961
0.00183613
0.000910672
0.00347234
0.00437071
0.00422174
0.000701266
0.00066387
0.000131799
0.000723691
0.00113609
0.00068155
0.0016903
0.00155213
0.000300833
0.000710963
0.000423842
0.000938184
0.00275248
0.00124706
0.00336387
0.000558096
0.00269998
0.000846973
0.000654423
0.00304314
0.00346382
0.00120196
0.00420134
0.00723038
0.00281796
0.0023107
0.00306402
0.00156822
0.00165278
0.000581345
0.000879443
0.000996545
0.00407481
0.00116456
0.00105222
0.00177874
0.000877168
0.00378335
0.00217853
0.00394736
0.00294903
0.00202064
0.0012163
0.0045524
0.000861907
0.00156613
0.001223
0.00112225
0.000283864
0.00505344
0.000927794
0.00146605
0.00652939
0.000225221
0.000245965
0.0024739
0.00202053
0.000556562
0.000554624
0.00178669
0.000186911
0.000847706
0.000841354
0.00111137
0.00112525
0.00151592
0.000581955
0.000717223
0.000377247
0.000546572
0.00070855
0.000490415
0.000690558
0.000417096
0.000426695
0.000692183
0.000377237
0.000585228
0.00135596
0.0017742
0.00348711
0.00644454
0.00383553
0.00667172
0.000959589
0.00216312
0.000846524
0.000616799
0.000334377
0.000728162
0.000897048
0.000398006
0.00113332
0.00113261
0.00616247
0.00135286
0.00076048
0.00194465
0.00358862
0.00508069
0.00439357
0.00206371
0.00726558
0.00467421
0.000897784
0.000727659
0.000332316
0.00305157
0.000145569
0.00171697
0.000540989
0.000494069
0.000786673
0.00127352
0.00109285
0.00072777
0.00100714
0.000742498
0.000684269
0.00101713
0.00715846
0.000885113
0.000956975
0.0025377
0.00101144
0.000982592
0.000926875
0.00440401
0.00428391
0.00381942
0.00574404
0.00276524
0.00191659
0.00683455
0.00497493
0.00394101
0.0073779
0.00562576
0.00515258
0.00709294
0.00731799
0.00130629
0.00703392
0.00725911
0.00700467
0.000650863
0.00715194
0.00300715
0.00623423
0.0042861
0.00390272
0.00675324
0.00344382
0.00367108
0.00649347
0.00071004
0.00136911
0.00459785
0.00517026
0.00427062
0.00381678
0.00488252
0.00302134
0.00370654
0.00173716
0.000451664
0.000274277
0.00632628
0.000243884
0.000272207
0.000464199
0.00439908
0.005596
0.0010059
0.000776015
0.00114995
0.00280011
0.00117792
0.00530955
0.00419811
0.00332527
0.00475057
0.00734466
0.000678956
0.000966381
0.00011435
0.00113637
0.00072607
0.0014568
0.00301312
0.000663744
0.000932968
0.000443576
0.00145427
0.0014007
0.000811492
0.00164818
0.00157692
0.00100425
0.00159139
0.000956196
0.0026746
0.001557
0.00555583
0.00358222
0.00159989
0.0014366
0.000664326
0.00126993
0.000851261
0.00662483
0.00454775
0.00718987
0.00132818
0.00102284
0.0017007
0.000629741
0.00668229
0.0034606
0.00518292
0.00693992
0.000837617
0.000800208
0.000574054
0.00460593
0.00355251
0.00337209
0.000868557
0.000872533
0.000614104
0.000716246
0.000501151
0.00262135
0.00718301
0.00737614
0.00731408
0.00692173
0.000507464
0.000362741
0.000125854
0.000259275
0.000191424
0.000604831
0.000982215
0.00134895
0.00169798
0.00127026
0.000784043
0.00068259
0.000793894
0.00282177
0.000933177
0.00549821
0.000621509
9.70121e-05
0.00258943
0.00122137
0.00119906
0.0018896
0.000699055
0.000931274
0.00607854
0.00618782
0.00526345
0.00718218
0.00366873
0.00143142
0.00649594
0.00468652
0.00702735
0.00547498
0.00492766
0.00172012
0.00714601
0.00735068
0.00716126
0.00673673
0.00676713
0.00185968
0.00270104
0.000231904
0.000173689
0.000900007
0.00140431
0.00141238
0.00144287