/*--------------------------------*- C++ -*----------------------------------*\
| =========                 |                                                 |
| \\      /  F ield         | OpenFOAM: The Open Source CFD Toolbox           |
|  \\    /   O peration     | Version:  2506                                  |
|   \\  /    A nd           | Website:  www.openfoam.com                      |
|    \\/     M anipulation  |                                                 |
\*---------------------------------------------------------------------------*/
FoamFile
{
    version     2.0;
    format      ascii;
    arch        "LSB;label=32;scalar=64";
    class       volScalarField;
    location    "0.075332";
    object      k;
}
// * * * * * * * * * * * * * * * * * * * * * * * * * * * * * * * * * * * * * //

dimensions      [0 2 -2 0 0 0 0];

internalField   nonuniform List<scalar> 
47425
(
0.287347
0.320377
0.303074
0.310001
0.456331
0.307124
0.412999
0.313691
0.366887
1.43384
0.322625
0.322942
0.353139
0.303704
0.296711
0.321577
0.299579
0.327588
1.08228
0.518109
0.309599
0.295701
0.310369
0.303975
0.29852
0.28819
0.288894
0.813693
0.28692
0.291525
0.302787
0.317045
0.356124
0.290547
0.284739
0.304012
0.294794
0.363339
0.29701
0.306054
0.351377
0.562104
1.01574
0.3784
1.70368
0.334948
0.321838
0.350649
0.294366
0.288833
0.765251
0.603101
0.287704
0.821243
0.359423
0.35768
0.28941
0.29001
0.397937
0.299406
0.815403
0.845304
0.90622
0.313162
0.364462
0.292971
0.341125
0.352821
0.806715
0.304472
0.29614
0.28339
0.287305
0.301987
0.924727
0.368709
0.960096
0.300246
0.835698
0.511552
0.917327
0.30335
0.299785
0.348599
0.323905
0.307658
0.284277
0.282884
0.50958
0.576296
0.299203
0.329963
0.290556
0.365558
0.376998
0.360777
0.290301
0.289715
0.302409
0.349012
0.33446
0.417068
0.299437
0.437332
0.292531
0.360038
0.29872
0.312289
0.435733
0.309532
1.32201
0.319651
0.415814
0.345973
0.316676
0.7979
0.312179
0.616905
0.327084
0.322083
0.312866
0.362698
0.342952
0.335384
0.341588
0.38061
0.311991
0.364887
0.347461
0.291399
0.299975
0.31655
0.483932
0.338257
0.498646
0.335541
0.300996
0.386346
0.300037
0.299529
0.354006
0.350282
0.322454
0.446303
0.318505
0.366223
0.423738
0.339892
0.352801
0.361578
0.449992
0.780453
0.360297
0.783714
0.319664
0.31261
0.328954
0.910289
0.33928
0.316512
0.323036
0.288649
0.284337
0.300757
0.743476
0.827456
0.33787
0.917992
0.329294
0.867789
1.07699
0.33861
0.353841
0.307681
0.335556
0.36522
0.83172
0.285655
0.288351
0.291299
0.834195
0.282928
0.285481
0.289134
0.289791
0.336768
0.299371
0.403844
0.34452
0.287173
0.357975
0.291354
0.404926
0.365296
0.290525
0.304611
0.360532
0.311949
0.317732
0.282326
0.323311
0.36245
0.381654
0.306152
0.322111
0.373594
0.285224
0.301921
0.346952
0.361897
0.289831
0.294657
0.352107
0.306201
0.294932
0.293751
0.298096
0.576541
0.325555
0.353219
0.516387
0.282646
0.580347
0.293708
0.394433
0.4977
0.290582
0.309775
0.339978
0.372619
0.298859
0.304703
0.330672
0.36937
0.362382
0.311829
0.552431
0.322802
0.515583
0.361242
0.330489
0.284019
0.288717
0.296944
0.293724
0.362566
0.298233
0.357552
0.288163
0.29751
0.291047
0.488148
0.297435
0.365695
0.305459
0.290038
0.297681
0.357247
0.298697
0.357613
0.37416
0.35214
0.306093
0.355886
0.361725
0.342589
0.291135
0.359487
0.290214
0.318464
0.310473
0.503818
0.553006
0.290997
0.493123
0.367949
0.495074
0.437697
0.53801
0.525895
0.839872
0.284538
0.866679
0.356064
0.303647
0.296128
0.345083
0.314457
0.355146
0.332025
0.756546
0.307719
0.371308
0.290531
0.299232
0.315076
0.3103
0.293658
0.311936
0.348912
0.32134
0.286262
0.316096
0.293416
0.870612
0.821205
0.771833
0.289881
0.287669
0.295113
0.311249
0.776494
0.312125
0.321737
0.562447
0.329464
0.338046
0.366156
0.308667
0.644541
0.533792
0.301158
0.302681
0.28474
0.325708
0.289276
0.305471
0.287871
0.287942
0.292771
0.294168
0.956009
0.315161
0.295755
0.383804
0.290432
0.892605
0.313004
0.285815
0.293648
0.301118
0.301427
0.286327
0.298394
0.282383
0.292523
0.292083
0.297541
0.298147
0.32554
0.302773
0.292041
0.310496
0.300258
0.304176
0.326557
0.313278
0.299694
0.303512
0.360265
0.336806
0.325087
0.310732
0.310221
0.291986
0.311439
0.359792
0.358444
0.319003
0.300832
0.352397
1.17646
0.294244
0.30373
0.385664
0.302148
0.425302
0.356443
0.364437
0.294905
0.357607
0.302008
0.289758
0.355245
0.33611
0.364513
0.310456
0.297546
0.34972
0.308255
0.304713
0.306533
0.315337
0.294108
0.295217
0.30288
0.317657
0.307224
0.384796
0.28715
0.619215
0.288119
0.953607
0.317359
0.355938
0.342864
0.290014
0.342085
0.288358
0.322659
0.303759
0.55963
0.829919
0.287956
0.322249
0.301208
0.300896
0.308841
0.300065
0.298201
0.350871
0.313318
0.289804
0.303314
0.309547
0.289222
0.433988
0.29888
0.303828
0.479014
0.447983
0.297977
0.602898
0.469588
0.348027
0.456272
0.711818
0.290285
0.299315
0.300373
0.29903
0.679763
0.318453
0.286197
0.291267
0.304427
0.305078
0.312044
0.292888
0.678999
0.661444
0.491611
0.35638
0.384066
0.470742
0.290704
0.301866
0.341312
0.301259
0.355174
0.363124
0.377802
0.300336
0.369613
0.302763
0.298252
0.321965
0.305461
0.303868
0.300728
0.348578
0.357669
0.367739
0.322661
0.307809
0.334665
0.301834
0.773229
0.360704
0.383304
0.344934
0.335684
0.745862
0.31839
0.288952
0.321125
0.350146
0.327118
0.318471
0.332954
0.290285
0.312874
0.288178
0.313979
0.430134
0.286333
0.334042
0.31739
0.345742
0.287555
0.289281
0.289868
0.297735
0.298928
0.318022
0.296922
0.289829
0.292615
0.31247
0.312099
0.325638
0.316061
0.289899
0.303724
0.280004
0.287867
0.297574
0.321903
0.311496
0.321843
0.363305
0.375393
0.738897
0.303966
0.297125
0.326549
0.365735
0.441384
0.443544
0.325547
0.293132
0.331628
0.423064
0.317196
0.450591
0.362381
1.2389
0.331464
0.332707
0.29206
0.442853
0.291626
0.297196
0.303637
0.338993
0.289208
0.283583
1.02241
0.292477
0.345626
0.2909
0.423699
0.283336
0.291732
0.405124
0.393458
0.304955
0.288116
0.277593
0.287293
0.303659
0.287079
0.287654
0.286677
0.364694
0.439625
0.30607
0.307646
0.304987
0.290423
0.509852
0.299848
0.315643
0.196066
0.30245
0.29059
0.266013
0.742448
0.302798
0.202533
0.223671
0.28911
0.346969
0.285369
0.294113
0.362098
0.327634
0.920005
0.298948
0.330638
0.287697
0.445633
0.359856
0.369485
0.309071
0.732494
2.07509
0.297695
0.315405
0.337102
0.306886
0.354794
0.366224
0.318638
0.319212
0.378947
0.286967
0.359142
0.459027
0.328077
0.297473
0.464615
0.333133
0.299226
0.31306
0.330388
0.290442
0.361918
0.35454
0.3444
0.343314
0.29483
0.298089
0.957007
0.305827
0.386164
0.83651
0.796735
0.291775
0.351213
0.708994
0.338214
0.405934
0.772147
0.376793
0.766139
0.289536
0.287335
0.35483
0.500617
0.381506
0.375568
0.285493
0.363245
0.293674
0.309451
0.284866
0.331934
0.304633
0.783468
0.686742
0.328001
0.323823
0.33541
0.305542
0.37445
0.351687
0.35241
0.360588
0.342635
0.307583
0.327136
0.354475
0.292815
0.370845
0.350211
0.912227
0.550737
0.328012
0.299962
0.356421
0.289503
0.89534
0.299902
1.18702
0.341944
0.431074
0.331184
0.311868
0.317589
0.288059
0.343156
0.300494
0.285361
0.386767
0.373202
0.368557
0.375512
0.350653
0.955963
0.33149
0.369165
0.356447
0.363677
0.290271
0.339992
0.318032
0.374088
0.341392
0.310652
0.344403
0.308832
0.324058
0.300716
0.296561
0.462512
0.535067
0.295407
0.426709
0.294805
0.314089
0.300108
0.289444
0.671089
0.284412
0.305981
0.30358
0.287968
0.648087
0.940872
0.306665
0.334001
0.290493
0.33266
0.285845
0.3139
0.314893
0.525631
0.313914
0.2899
0.306572
0.292206
0.303731
0.298197
0.285171
0.305978
0.2902
0.286057
0.315393
0.526922
0.288764
0.259272
0.60368
0.544502
0.287569
0.317524
0.853593
0.346068
0.3224
0.486947
0.255026
0.798764
0.326732
0.292678
0.445701
0.325863
0.543755
0.306637
0.335645
0.291769
0.294617
0.42042
0.341736
0.307569
0.329862
0.384249
0.362603
0.348333
0.37843
0.472351
0.450821
0.713787
0.857015
0.829339
0.593604
0.622592
0.363099
0.352789
0.295872
0.289194
0.330988
0.313456
0.3177
0.326684
0.340621
0.291592
0.33099
0.368199
0.291308
0.372098
0.316241
0.289998
0.356555
0.290553
0.295808
0.299045
0.334987
0.410528
0.292859
0.290338
0.295524
0.349413
0.34052
0.502207
0.421191
0.289167
0.332157
0.284733
0.292128
0.294584
0.335151
0.347839
0.425982
0.304186
0.294501
0.297942
0.383978
0.900475
0.306348
0.306343
0.382703
0.333057
0.342936
0.3281
0.314917
0.3768
2.1084
0.427174
0.862931
0.366857
0.37997
0.285192
0.386202
0.295499
0.322784
0.3239
0.297376
1.49767
0.416184
0.350017
0.545055
0.352539
0.282825
0.311706
0.387766
0.29627
0.332287
0.212555
0.293292
0.37494
0.362483
0.382889
0.696319
0.364529
0.352916
0.475436
0.296842
0.296395
0.423226
0.515333
0.32063
0.394427
0.430444
0.323254
0.304969
0.29311
0.316429
0.34523
0.34365
3.88171
0.657403
0.354033
0.527663
0.506111
1.13614
2.35228
0.49137
0.354258
0.360762
0.373541
0.356065
2.35328
0.295459
0.318276
0.372763
0.251044
0.319313
0.368448
0.349384
0.289673
0.375781
0.454864
0.363484
1.20457
0.286966
0.368902
0.376583
0.365703
0.357266
0.349852
0.37481
0.436066
0.334002
0.352064
0.448502
0.312653
0.298644
0.324956
0.403988
0.291581
0.399424
0.361414
0.3522
0.626043
0.902347
0.291406
0.3635
0.306634
0.36189
0.355131
0.643091
0.535139
1.31279
0.297584
0.352084
0.314097
0.927869
0.305851
1.73463
0.395511
0.375908
0.474246
0.56449
0.312342
0.296681
0.300278
0.31046
0.448374
0.309741
0.386858
1.17313
0.371527
0.290372
0.294765
0.660665
1.0509
0.492415
0.531287
0.920527
0.392016
0.342367
0.377131
0.302217
0.454221
0.360751
0.377174
1.0141
0.314925
0.291598
0.297074
0.357113
0.373099
0.367515
0.318594
0.303603
0.446491
0.295628
0.319866
0.293269
0.352838
0.354336
0.36534
0.330552
0.321059
0.302381
0.369002
0.299172
0.305029
0.315415
0.305014
0.36112
0.434155
0.331603
0.35621
0.296835
1.64934
0.373036
0.357309
0.323906
0.908897
0.655426
1.10196
0.343234
0.327721
0.320124
0.720043
0.374805
0.3251
0.362447
0.347956
0.361962
0.883031
0.355792
0.303083
0.352568
0.342275
0.286462
0.560701
0.993744
0.302671
0.986706
0.332394
0.636586
0.552019
0.30058
0.335497
0.365074
0.602689
0.329715
0.324246
0.322555
0.718698
0.488228
0.600398
0.30765
0.31887
0.292393
0.303869
1.36842
1.33986
0.334412
0.347909
0.374987
0.796139
0.297563
0.287573
2.07294
1.2717
0.35565
0.302411
0.862428
1.38256
1.08795
0.363513
0.742017
1.26389
0.855401
0.313725
0.4267
0.423734
0.318389
0.326951
1.3867
1.22152
0.343665
0.354322
0.345153
0.305084
0.32479
0.320488
0.459204
0.327464
0.366939
0.29455
0.368641
1.2168
0.96383
0.306351
0.55028
0.422734
0.311255
0.489241
0.287492
0.329937
0.301629
0.324369
0.380327
0.293429
0.746208
0.297988
0.834918
0.59372
0.921398
0.396604
0.421389
0.328333
0.348541
0.328975
0.530738
1.06685
0.349256
1.00512
0.490997
0.747013
0.454815
0.858723
0.66714
0.315641
0.333316
0.959509
0.337807
0.299599
0.302086
0.761295
0.695653
0.30341
0.320559
0.617921
0.388222
0.924363
0.778898
0.347092
0.438682
1.02096
0.343138
0.311328
0.84888
0.301679
0.798325
0.794993
0.299771
0.294394
0.312215
0.291188
0.364902
0.302887
0.302927
0.35672
0.365601
0.455537
0.324062
0.30962
0.4895
1.45373
0.780926
0.339788
0.32498
0.537179
0.303991
0.972644
0.33089
0.334364
0.355093
1.84484
0.336705
1.94446
0.381273
0.485942
0.325171
0.735984
0.604705
0.636475
0.413261
0.524071
0.357066
0.363526
0.373743
0.571623
0.368606
0.442728
0.78
0.388158
0.437091
0.890705
0.334377
0.30154
0.692846
1.5653
0.354813
0.322954
0.359332
0.379488
1.26136
0.950476
0.29052
0.308698
0.359141
0.78464
0.355932
0.563931
0.358714
0.346826
0.352537
0.45963
0.34148
0.58638
0.595629
0.331549
0.363703
0.420698
0.314407
0.886377
2.09737
0.324463
0.833353
0.840364
0.376772
0.815951
0.360611
0.350016
1.03869
0.352018
1.03635
2.96896
0.31228
0.356165
0.416283
0.365345
0.353177
0.377645
0.484758
0.383718
0.316155
0.376459
0.318392
0.705159
0.379288
0.341717
0.362545
0.54711
0.298897
0.812906
0.719914
0.346423
0.829825
1.63037
0.294955
0.447082
0.496372
0.349656
0.329194
0.498262
0.778615
0.478648
0.923246
0.300295
0.747199
0.438747
0.288258
0.366554
0.357491
0.47293
0.323126
0.371748
0.566766
0.288128
0.554874
0.348269
1.39796
0.369264
0.287407
0.354024
0.505789
0.346008
0.687123
0.425723
0.310462
0.673517
0.297056
0.324989
1.21828
0.287992
0.365423
0.693294
0.328006
0.802634
1.23801
0.356935
0.383506
0.295654
0.87693
0.538025
0.937157
0.77622
0.396294
0.327599
0.407525
0.950346
0.929873
0.997091
0.347379
0.357546
0.3411
0.307698
0.372671
0.704263
0.347463
0.330326
0.330061
0.291922
0.312201
0.353334
0.305361
0.348894
0.356978
0.407764
0.296929
0.35292
0.547591
0.311353
0.294676
0.36461
0.339338
0.359401
0.291516
0.325736
0.324958
0.306226
0.375961
0.597252
0.337489
0.308538
0.295355
0.291052
0.507148
0.306294
0.304668
0.580463
1.08707
0.6937
0.305514
0.564538
0.451258
0.357928
0.521356
0.405039
0.500399
0.352832
0.305223
0.345417
0.374516
0.298785
0.359369
0.371529
0.347257
0.303156
0.303114
0.350784
0.491399
0.341618
0.39706
0.813653
0.346504
0.658966
0.383914
0.858974
0.286287
0.352938
0.337068
0.29095
0.307811
0.365907
0.290267
1.43216
0.545974
0.782743
0.35716
0.898547
0.294717
0.320078
0.507942
0.301025
0.784454
0.403449
0.608312
0.323526
0.970018
0.93999
0.301963
0.289112
1.07564
0.309755
1.06888
0.318531
0.353115
0.301369
0.295493
0.298001
0.315812
0.327389
0.639142
0.383729
0.385499
0.32333
0.326871
0.28859
0.35549
1.45548
0.354438
1.63985
0.556638
0.299125
0.364921
0.319868
0.317915
0.314064
0.34528
0.338171
0.362906
0.3236
0.289397
0.331915
0.351108
1.25387
1.57657
0.330561
0.341032
1.89226
0.331257
0.292552
0.29291
0.290164
0.331408
0.365661
0.400062
0.377952
0.321264
0.297804
0.379547
0.28697
0.283402
0.306855
0.707016
0.387067
0.809704
0.739933
0.802831
0.307006
0.296215
0.289855
0.29012
0.291828
0.621924
0.316723
0.286431
0.31105
0.350213
0.300027
0.435831
0.29598
0.366777
0.4336
0.319514
0.29281
0.299802
0.320891
0.3216
0.298853
0.328653
0.313305
0.484909
0.31334
0.350196
0.387391
0.312294
0.315827
0.296277
0.320975
0.304543
0.354346
0.382824
0.292402
0.284469
0.307045
0.309324
0.298023
0.344956
0.290326
0.304741
0.295138
0.30917
0.827456
0.306648
0.404701
0.283946
0.293288
0.666055
0.307431
0.352263
0.288674
0.29869
0.338802
0.35973
0.732065
0.370201
1.54476
0.292179
0.29937
0.34558
0.290556
0.287286
0.378073
0.321312
0.285883
0.287723
0.828711
0.412047
0.644645
0.351306
0.523375
0.365205
0.29605
0.385332
1.26118
0.348741
0.30299
0.30269
0.767309
0.297153
0.307369
0.320634
0.3187
0.358638
0.758962
0.300408
0.314468
0.347466
0.316529
0.347866
0.88084
0.7843
0.299108
0.292976
0.291059
0.348436
0.329473
0.287466
0.774235
1.05684
0.294735
0.340337
0.808988
0.303931
1.06126
0.432161
0.289365
0.297347
0.295788
0.304078
0.565398
0.321352
0.318635
0.308324
0.346225
0.307813
0.361543
0.574024
0.362926
0.471838
0.480799
0.461173
0.554356
0.343346
0.38772
0.383664
0.379196
0.329764
0.309178
0.796856
0.557842
0.377901
0.346463
0.360541
0.337376
0.324572
0.268986
0.288979
0.288673
0.357062
0.349907
0.478885
0.400712
0.841623
0.691107
0.319568
0.377892
0.302979
0.305004
0.365123
0.292109
0.313022
0.292054
0.29004
0.258507
0.257886
0.289965
0.352774
0.631235
0.984177
0.331689
0.289238
0.45496
0.480623
0.810702
0.311783
0.789752
1.10438
0.860023
0.861291
0.382974
0.290508
0.286986
0.360613
0.839036
0.287872
0.372716
0.329688
0.290391
0.569725
0.52046
0.499119
0.318718
1.27321
0.289139
0.297962
0.326517
0.327868
0.633708
0.715969
0.36658
0.430835
0.338765
0.355271
0.308687
0.880889
0.353673
0.847998
0.371897
0.842221
0.352826
0.474939
0.55672
0.524588
0.380212
0.382691
0.653448
0.352519
0.353877
0.38052
0.367497
0.360715
0.341042
1.25971
0.563343
0.320463
0.565993
0.65884
0.559232
0.303295
0.29612
0.725658
0.636273
0.779299
0.302755
1.07525
0.300061
0.90542
0.628508
0.565487
0.670858
0.291961
0.346962
0.2945
0.327303
0.322031
0.499979
0.410748
0.293262
0.295044
0.35052
0.31744
0.289471
0.289402
0.448912
0.291214
0.285744
0.322608
0.384652
0.414586
0.322076
0.355476
0.358649
0.315863
0.49321
0.420615
0.302729
0.30294
0.469683
0.555056
0.309396
1.77089
0.334594
0.407372
0.839772
0.374736
0.309322
0.290773
0.478855
0.313335
0.285827
0.36259
0.309294
0.297681
0.311551
0.294958
0.314805
0.309131
0.320995
0.30166
0.351228
0.658267
0.30202
0.311265
0.304997
0.313583
0.402616
1.03713
0.313782
0.297017
0.318417
0.545385
0.280546
0.331136
0.318978
0.82646
0.340203
0.376161
0.360662
0.38527
0.333239
0.346634
0.31427
0.496024
0.36431
0.349712
1.08788
0.316154
0.382891
0.340327
0.330359
0.353494
0.390798
0.310575
0.336546
0.295726
0.336222
0.317332
0.339044
3.16993
0.299893
0.399088
0.375977
0.343937
0.63886
0.346202
0.593466
0.359342
0.548741
0.640481
0.324072
0.294025
0.391898
0.372168
0.327705
0.296757
0.766586
0.439508
0.357459
1.1157
0.594
0.30537
0.47715
0.44903
1.27593
0.894361
0.377404
0.464523
0.453488
0.553799
0.460289
0.885466
0.237199
0.547179
0.312464
0.598168
0.35969
0.383315
0.37129
0.352195
0.324549
0.3597
0.580118
0.316169
0.356044
0.387801
0.482002
0.746797
0.401668
0.718659
0.335882
1.03023
0.373325
0.374643
0.825048
0.543883
0.682603
0.632817
0.615919
0.528777
0.383631
0.36021
0.316253
0.370957
0.358266
0.753285
0.34486
0.349262
0.305654
0.474225
0.350699
0.30014
0.835408
0.478178
0.491155
0.191127
0.396862
0.327005
0.344808
0.342605
0.368454
0.31785
0.282753
0.330119
0.383585
0.18916
0.181167
0.522564
0.33985
0.404662
0.400563
0.439392
0.368546
0.352494
0.344695
0.153508
0.351086
0.383791
0.16427
0.366404
0.82098
0.577597
0.331181
1.32601
0.383691
0.455192
1.3221
0.387975
0.371247
0.301185
0.590281
0.2909
0.295373
0.340807
0.361218
0.369337
0.326337
0.556365
0.354159
0.454246
0.305334
0.376571
0.360502
0.289084
1.63292
0.510069
0.996889
0.459357
0.295703
0.903846
0.468106
0.294391
2.38618
0.296375
0.291891
0.461761
0.447997
0.961897
0.856927
0.333695
0.662791
1.34685
0.36657
0.615988
0.969721
0.766652
1.84729
0.362538
0.330504
0.568562
0.634198
0.386489
0.935422
0.342945
0.316616
0.499492
0.342954
0.299412
0.369798
0.745862
0.695612
0.285318
0.491898
0.302527
0.379569
0.326391
0.376428
0.571758
0.410786
0.760522
0.351379
0.360678
0.72151
0.293631
0.304804
0.428163
0.297086
0.336457
1.0724
0.320274
0.87319
0.794824
0.807533
0.790733
0.376377
0.375491
0.289193
0.287942
0.400959
0.295727
0.306372
0.387941
0.305447
0.389963
0.913498
0.296173
0.504245
0.29816
0.450252
0.351311
0.830121
0.35253
0.441515
0.300748
0.318043
0.398942
0.295686
0.318414
0.309338
0.291533
0.501621
0.31031
0.359655
0.341897
0.30557
0.34957
0.326356
0.360717
0.810615
0.320847
0.304302
0.305382
0.368708
0.158264
0.609147
0.451515
0.657184
1.00577
0.274887
0.409503
0.0885819
0.230213
0.957071
0.388627
0.520523
0.300638
0.706172
0.671368
1.19195
0.341563
0.317137
0.521792
1.27815
0.326747
0.391881
0.430747
0.425836
0.39168
0.381005
0.902941
1.35875
0.209763
0.357227
0.171001
0.339099
1.23724
0.312529
0.338729
0.310648
0.301034
0.422721
0.309386
0.555167
0.435511
0.318731
0.373715
0.307294
0.516516
0.604238
0.312658
0.409078
0.344369
0.787345
0.430397
0.347029
0.505993
0.494625
0.289881
0.294249
0.346544
0.300376
0.651157
0.296911
0.412789
0.569852
0.314223
0.325494
0.309562
0.308871
0.588799
0.378784
0.492987
0.299806
0.304487
0.483488
0.624365
0.302372
0.327
0.301331
0.299295
0.591374
0.421831
0.754642
0.324682
0.299641
0.417722
0.370984
0.327848
0.304104
0.363914
0.367032
0.513887
0.353479
1.99336
0.38655
0.387998
0.299116
0.36371
0.831489
0.96908
0.370457
0.810394
0.343898
0.980839
0.397714
0.677427
0.444518
0.507095
0.386605
0.314743
0.346864
0.39176
0.533448
0.347584
0.344681
0.931253
0.374529
1.40826
0.373239
0.326949
0.363115
0.56018
0.398992
0.298054
0.928825
0.295415
0.317378
0.297089
0.350715
0.737286
0.457384
0.327294
0.485443
0.345929
0.323738
0.303297
0.326216
0.394292
0.394106
0.384135
0.333137
0.321778
0.377641
0.324891
0.290437
0.370823
0.336424
4.98565
0.353074
0.433924
0.327389
0.3778
0.337706
0.390348
0.291044
0.346632
0.327431
0.325431
0.357898
0.795767
0.28932
0.750903
0.528259
0.391246
0.379798
0.330942
0.38251
0.421755
0.684975
0.304938
0.325179
0.32992
0.468759
0.355733
0.292414
1.2279
1.52801
0.633465
0.292532
0.298172
0.482407
0.352981
0.353597
0.474629
0.364427
0.316573
0.341125
1.46456
0.296048
0.538245
0.292841
0.315994
0.396632
0.311929
0.37715
0.428718
0.298545
0.559478
0.377714
0.372069
0.41742
0.915268
0.308034
0.35995
0.347452
0.371953
0.335493
0.344881
0.289993
0.28402
0.374465
0.5598
0.367172
0.343683
1.26765
0.368096
0.577621
0.358354
0.383028
0.371164
0.335834
0.763462
0.330019
0.491518
0.348752
0.355008
0.330253
0.369308
0.540873
0.428461
0.312101
0.595541
0.376929
0.63412
0.726109
1.42647
0.302612
0.42885
0.377687
0.240688
0.365981
0.251488
0.415564
0.219415
0.368491
0.793646
0.377192
0.593544
0.647748
0.343386
0.203519
0.436144
0.94443
0.491275
0.628087
2.0246
1.51561
0.714414
0.775408
0.302363
0.342106
0.724224
0.366919
0.917977
0.351474
0.767324
0.740158
0.319896
0.354983
0.316626
0.289316
0.345101
0.290148
0.687705
0.380592
0.352013
0.525865
0.313939
0.347074
0.295629
0.316635
0.342391
0.331115
0.381335
0.290085
0.386214
0.876231
0.29735
0.303387
0.330129
0.299992
0.801226
1.18322
0.375419
0.409584
0.507445
0.294583
0.283581
0.322385
0.338082
0.313252
0.319789
0.308651
0.301477
0.47656
0.304095
0.339256
0.31544
0.294295
0.296041
0.982268
0.310047
0.326673
0.306969
0.412478
0.346744
0.328692
0.644523
0.384415
0.316706
0.365002
0.337536
0.350642
0.381898
0.363926
0.304821
0.373014
0.355948
0.310314
0.327962
0.337613
0.416053
0.43012
0.315337
0.325033
0.378077
0.406033
0.451431
0.545345
0.910857
0.886176
0.32736
0.296083
1.04711
0.50126
0.527541
0.304389
0.293903
0.315043
0.289077
0.310402
0.297001
0.300517
0.324902
0.297766
0.303635
0.301736
0.30297
0.294781
0.518994
0.349328
0.326616
0.304589
0.310877
0.584892
0.29626
0.30193
0.382183
1.03599
0.506614
0.374181
0.362233
0.302988
0.336628
0.447222
0.624989
0.374329
0.312471
0.3575
0.312367
0.314057
0.34208
0.408641
0.350639
0.308414
0.373152
0.389029
0.57908
0.368259
0.735352
0.559722
0.372725
0.369891
0.314738
0.321979
0.362444
0.287461
0.313446
0.572615
0.305154
0.333131
0.692308
0.338661
0.358643
0.454406
0.365909
0.305687
0.34006
0.301143
0.335429
0.702749
0.341733
0.405371
4.04671
0.557135
0.984091
0.804668
0.313721
0.318519
0.496941
0.296526
0.524444
0.46654
0.660016
0.369858
0.29266
0.77829
0.291703
0.514009
0.390507
0.307824
0.687291
0.867606
0.292837
0.300283
0.8512
0.292128
0.300741
0.300239
0.294081
0.34103
0.549442
0.552996
0.321514
0.772337
0.314441
0.314693
0.308298
0.832492
0.316824
0.869606
0.295269
0.334829
0.298112
0.405747
0.334799
0.47473
0.298266
0.647194
0.449454
0.451856
0.669693
0.319706
0.313852
0.912709
0.4217
0.328203
0.395513
0.766236
0.320453
0.40266
0.320004
0.562661
0.380371
0.301491
0.292549
0.432117
0.308724
0.363169
0.328092
0.293519
0.319299
0.300211
0.302834
0.327185
0.752283
0.313524
0.301733
0.300623
0.313214
0.311718
0.343431
0.290384
0.35911
0.417043
0.379151
0.372442
0.307592
0.424443
0.305264
0.35953
0.912054
0.455895
0.712396
0.312687
2.82795
0.340689
0.497007
0.368002
0.292503
0.3753
0.302839
0.300869
0.33709
0.349468
0.284174
0.309232
0.292513
0.632371
0.292113
0.308802
0.346255
0.704403
0.143621
0.31459
0.766156
0.850621
0.571483
0.539128
0.837768
0.136098
0.381719
0.204497
0.336002
0.466399
3.11674
0.438233
0.35642
0.290804
0.295692
0.729678
0.326278
0.437592
0.676914
0.365173
0.577638
0.354532
0.564455
0.301651
0.355847
0.338986
0.289967
0.376765
0.285546
0.333453
1.06926
0.986376
1.09092
0.427808
0.876707
0.309049
0.287095
0.297724
0.357572
0.293888
0.347661
0.30122
0.388898
0.370533
0.292874
0.298356
0.354678
0.293534
0.318909
0.349343
0.311928
0.347036
0.473572
0.31427
0.34801
0.793159
0.344302
0.736498
0.775462
0.337264
0.375994
0.294987
0.448681
0.331146
0.345863
0.704161
0.296463
0.355498
0.328103
0.340643
0.306001
0.305146
0.460316
0.488419
0.3755
0.332865
0.767261
0.356263
0.618205
0.568112
0.360507
0.84142
0.421332
0.350446
0.323992
0.351537
0.367288
0.328907
0.293772
0.328441
0.174748
0.55935
0.181745
0.305552
0.335287
0.404033
0.156466
0.964694
0.338463
0.36444
0.368729
0.175871
0.373363
0.836574
2.39036
0.353905
0.302767
0.365554
0.500207
0.305655
0.351527
0.368711
0.307531
0.350104
0.31515
0.668424
0.324946
1.50705
0.386189
0.871814
0.334678
1.63669
0.936798
0.914885
0.321724
0.332941
0.421107
0.361576
0.307915
0.361537
0.318305
0.792317
0.293752
0.437307
0.618623
0.292774
0.296047
0.306919
0.318387
0.342522
0.360467
0.365443
0.380205
0.371669
0.320581
0.38655
0.323846
0.424145
0.316727
0.35805
0.296706
2.61262
1.26608
0.355916
0.422934
0.288333
1.87598
0.289293
0.290988
0.3484
0.288949
0.366784
0.349725
0.285772
0.284951
0.33543
1.67743
0.565685
0.370891
0.781053
0.295387
0.361221
0.317748
0.35956
0.773878
0.37418
0.795277
0.285422
0.315321
0.753094
0.843005
0.320009
0.326665
0.596414
0.377037
0.334978
0.455833
0.360903
0.361487
0.386561
0.364204
0.283943
0.375276
0.345786
0.447633
0.294754
0.352749
0.290744
0.323371
0.802499
0.747794
0.308683
0.421733
0.319027
0.34723
0.309857
0.504053
0.309066
0.323022
0.33956
0.33955
0.412357
0.371041
0.453973
0.344534
0.287726
0.322895
0.296101
0.352601
0.293111
0.490815
0.420766
0.31896
0.582986
0.322727
0.292747
0.346527
0.29557
0.365349
0.596903
0.313837
0.401468
0.361065
1.0359
0.369449
0.350774
0.367079
0.686933
0.368025
0.50039
0.346825
0.376339
0.43573
0.386385
0.356896
0.752415
0.424553
0.363187
0.313325
0.301898
0.514405
0.316459
0.87652
1.52003
0.375887
0.394895
0.357432
0.447346
0.418436
0.358173
0.822641
0.449357
0.614487
0.297499
0.385489
1.12165
0.4555
0.328856
0.438845
0.308505
1.10368
0.359695
0.362808
0.308956
0.292016
0.297737
0.327367
0.297141
4.14594
0.295486
0.619856
0.292089
0.396643
0.358433
0.49548
0.326637
0.331631
0.319005
0.636263
0.43696
0.47405
0.301223
0.300277
0.42426
0.346051
0.333034
0.295816
0.29305
0.291766
0.31476
0.29135
0.350301
0.29659
0.529591
0.402928
1.17411
0.726091
0.54927
0.524554
0.362835
0.370515
0.290415
0.550728
0.30637
0.313049
0.305737
0.430354
0.462642
0.306916
0.392413
0.743359
0.460595
0.296669
0.298128
1.74453
0.77703
0.357326
0.818834
0.823977
0.601263
0.730817
0.53409
0.711902
0.377331
0.591322
0.724933
0.292698
0.301196
0.286333
0.443974
0.576546
0.309844
0.293133
0.374396
0.339155
0.377367
0.745331
0.450642
0.93617
0.338976
0.299511
0.317012
0.299587
0.335464
0.733495
0.978405
0.80238
0.743588
0.31495
1.21779
0.580559
0.308699
0.506831
0.443335
0.732987
0.36627
0.448234
0.730246
0.736807
0.445862
0.828732
0.471947
0.791728
0.357707
0.315076
0.372203
1.11588
0.74131
0.363608
0.315341
0.516571
0.414986
0.552564
0.333358
0.352906
1.10181
1.12107
0.190497
0.34496
0.18758
0.295027
0.187295
0.348375
0.436472
0.562155
0.171102
0.405993
0.468568
0.12908
0.433184
1.35615
0.383497
0.353692
0.776477
0.309926
0.464446
0.301329
0.289023
0.305942
0.315165
0.83768
0.662194
2.11742
0.362853
0.361776
0.603998
0.348189
0.417877
0.380901
0.335221
0.312715
0.558524
0.379922
0.409464
0.303144
0.392471
0.376539
0.709024
0.43236
0.769811
0.940982
0.732903
0.373699
0.372964
0.715646
0.244821
0.515154
0.334497
0.358945
0.302208
0.76696
0.59538
0.649786
0.705879
0.576896
0.295271
0.400109
0.848065
0.778013
0.360679
0.355828
0.428961
1.58264
0.326817
0.297199
0.361735
0.322703
0.814701
0.32325
0.571891
0.767148
1.08272
1.96539
0.507566
0.423857
0.76804
1.26681
0.835736
0.546668
0.781696
0.916963
0.493279
0.350676
0.417143
0.356454
0.284846
0.306221
0.395725
0.479326
1.87537
0.347581
0.388414
0.403425
0.373856
0.441613
0.532581
0.455939
0.364966
0.377253
1.0501
1.04714
0.166303
0.370987
0.320599
0.343283
1.49206
0.826255
0.367636
0.612367
0.312925
0.406722
0.517161
0.526325
0.314921
0.31344
0.309297
0.365472
0.890287
0.428785
0.332971
0.711023
0.298432
0.92333
0.691202
0.443321
0.674737
0.342697
0.295831
0.313034
0.299714
0.347876
0.368052
0.309936
0.32513
0.311152
0.297564
0.473039
0.585681
0.699071
0.302026
0.444975
0.336544
0.366055
0.322645
0.56448
0.329754
0.317966
0.314522
0.296952
0.304626
0.30837
0.429276
0.291397
0.334544
0.343152
0.581509
0.30406
0.362483
0.475826
0.761857
0.89412
0.360205
0.826856
0.470525
0.34628
0.320876
0.504264
0.316437
3.58885
0.388081
0.303383
0.396497
0.420502
0.380318
0.425627
0.689926
0.977627
0.414074
0.828931
0.318874
0.290505
0.365644
0.296591
0.295054
0.38055
0.296596
0.300078
0.553092
0.298602
0.228742
1.77802
0.53005
0.294528
0.295316
0.595255
0.314217
0.307263
0.542106
0.307898
0.720984
0.370638
0.754162
0.296161
0.515374
0.414458
0.636288
0.300819
0.411084
0.301596
0.952708
0.364327
0.29536
1.28793
0.400958
0.47755
0.330989
0.347784
0.373675
0.295283
0.476784
0.294945
0.302169
0.297296
0.422447
0.543352
0.306325
0.301847
0.303414
0.29869
0.311405
2.27097
0.295414
0.429213
0.294896
0.539081
0.333688
0.343684
0.338992
0.440365
0.31505
0.389866
0.286723
0.318688
0.313054
0.325259
0.296057
0.409363
0.379888
0.903292
0.951692
0.759523
0.36952
0.319539
0.319237
0.295475
0.298846
1.02087
0.605396
0.373338
0.345816
0.288472
0.312288
0.286561
0.301457
0.49939
0.486754
0.735687
0.947725
0.345224
0.35914
0.376096
0.29529
0.540566
0.344716
0.430399
0.354172
0.334954
1.05055
0.388403
0.289294
0.315693
0.377518
0.303109
0.480334
0.295206
0.645209
0.348984
0.875866
0.468224
0.739973
0.30323
0.313902
0.330959
0.374405
0.337672
0.358235
0.301894
0.294786
0.300339
0.307488
0.354885
0.565009
0.345782
0.824282
0.391647
0.316218
0.49076
0.381689
0.361451
0.253654
1.02758
0.844493
0.234196
0.310248
0.30147
0.813537
0.299132
0.388629
0.354307
0.341806
0.271784
0.35615
0.354448
0.295325
0.395398
0.38755
0.93809
0.503258
0.413621
0.285663
0.374137
0.476287
0.325515
0.298335
0.853571
0.792327
0.318694
0.737993
0.30318
0.294062
0.373191
0.302525
0.857042
0.2921
0.293382
0.298194
0.625174
0.294594
0.334199
0.428654
0.434868
0.293561
0.311554
0.316133
0.315866
0.30196
0.342639
0.341847
0.563252
0.40295
0.361769
0.54652
0.353734
0.569074
0.338556
0.856075
0.419667
0.258056
0.623901
0.161337
0.407035
0.498452
0.556094
0.371536
0.294484
0.296541
0.290687
0.35149
0.797449
0.36589
0.293454
0.343297
0.351468
0.286361
0.455938
0.31823
0.363576
0.436609
0.313607
0.301621
0.32745
0.317669
2.29761
0.910653
0.359572
0.351602
0.399675
0.346913
0.772806
0.895634
0.961071
0.746739
0.338729
0.312714
0.319304
0.286178
0.355824
0.98824