/*--------------------------------*- C++ -*----------------------------------*\
| =========                 |                                                 |
| \\      /  F ield         | OpenFOAM: The Open Source CFD Toolbox           |
|  \\    /   O peration     | Version:  2506                                  |
|   \\  /    A nd           | Website:  www.openfoam.com                      |
|    \\/     M anipulation  |                                                 |
\*---------------------------------------------------------------------------*/
FoamFile
{
    version     2.0;
    format      ascii;
    arch        "LSB;label=32;scalar=64";
    class       volScalarField;
    location    "0.075332";
    object      nut;
}
// * * * * * * * * * * * * * * * * * * * * * * * * * * * * * * * * * * * * * //

dimensions      [0 2 -1 0 0 0 0];

internalField   nonuniform List<scalar> 
47425
(
0.00484053
0.00477933
0.00426045
0.00194427
0.00314715
0.00436816
0.00425684
0.00313083
0.00742777
0.00246619
0.00238312
0.00738696
0.00487676
0.00385885
0.00311462
0.00369236
0.00440697
0.00234437
0.000242716
0.00263178
0.00369826
0.00669789
0.00300835
0.00487404
0.00664127
0.00663777
0.00375287
0.000476325
0.00412884
0.00532852
0.00704809
0.00713989
0.00745915
0.00427031
0.00512685
0.00460226
0.00673109
0.00537818
0.00453373
0.00414228
0.00496208
0.00459826
0.00487943
0.00260976
0.000905149
0.00327395
0.0033951
0.00451868
0.00376896
0.00619971
0.000624071
0.00257554
0.00587057
0.0011958
0.00322028
0.00292522
0.0065192
0.00500967
0.00248691
0.00493599
0.000924224
0.000699652
0.00107777
0.00284246
0.0073849
0.00660373
0.00555502
0.00403836
0.00108527
0.00510788
0.00380628
0.00543867
0.00589438
0.00336253
0.00153257
0.00746319
0.00112695
0.00373877
0.000190232
0.00185476
0.00147843
0.0046915
0.00700642
0.00742905
0.00569392
0.00379972
0.00525905
0.00528347
0.00397382
0.00143521
0.0068411
0.00437235
0.00704505
0.00320849
0.00257673
0.00186339
0.00616423
0.00549233
0.00345429
0.00449547
0.00556541
0.000922508
0.00577284
0.000947002
0.00589429
0.00691315
0.00584276
0.00335785
0.00591856
0.00703957
0.00369935
0.00516593
0.00561678
0.00224287
0.00728904
0.000331431
0.00731379
0.00071748
0.00424769
0.00519187
0.00395578
0.0074714
0.00590296
0.00245486
0.00356639
0.00655997
0.0036967
0.0074179
0.0033216
0.00703008
0.00672397
0.00336641
0.000984333
0.0028635
0.00450192
0.00428963
0.00634498
0.00629563
0.00438848
0.00311828
0.00499002
0.00215274
0.00462113
0.00478165
0.00621488
0.00742414
0.00360058
0.00542189
0.00236998
0.00499668
0.00479857
0.000534988
0.00738985
0.000410065
0.00282239
0.0037544
0.00276567
0.00029796
0.00375278
0.00448132
0.00738767
0.00673578
0.0057567
0.00654778
0.0011673
0.000411912
0.00743227
0.00150727
0.00311808
0.000772541
0.00160489
0.00402333
0.00479067
0.00314499
0.00475638
0.00120554
0.000383664
0.00410698
0.00551345
0.00680797
0.00031158
0.00583942
0.00477599
0.00638141
0.00630853
0.0069603
0.00532104
0.00106383
0.00232533
0.00504965
0.00746955
0.00407706
0.00490997
0.00474286
0.00639459
0.00726955
0.00582738
0.00438544
0.00740175
0.00339991
0.00493913
0.00295076
0.00547781
0.00723449
0.00232967
0.00235769
0.005397
0.00717137
0.00400637
0.00747105
0.0046178
0.00449833
0.00745917
0.00329721
0.00462208
0.00463196
0.00390494
0.00191221
0.00318403
0.00380109
0.00178027
0.00236107
0.00424935
0.0030654
0.00237307
0.00160382
0.00643519
0.00241232
0.00710435
0.00382041
0.00415826
0.00426671
0.00326375
0.00748889
0.00221198
0.00341618
0.00164479
0.00292717
0.00184139
0.00200586
0.00399067
0.00476735
0.00695321
0.00293891
0.0066251
0.00733162
0.0043816
0.00589999
0.00675484
0.00388173
0.00699686
0.00209128
0.00447767
0.00742026
0.00335644
0.00694399
0.00663974
0.00300139
0.0031913
0.00739659
0.00302396
0.00745958
0.00391268
0.00265035
0.00498782
0.00386308
0.0067149
0.00423154
0.00463351
0.00391489
0.00390855
0.00205606
0.00172052
0.00599809
0.00214468
0.00206826
0.00214587
0.000530686
0.00176699
0.000580266
0.000913174
0.00484388
0.000836037
0.00292397
0.00384932
0.00351968
0.0033466
0.00348699
0.00397281
0.0074209
0.000732497
0.00491781
0.00737543
0.00517787
0.00446264
0.00326583
0.00282174
0.00636289
0.00480386
0.00481406
0.00374353
0.00662213
0.00375192
0.00490099
0.000954544
0.000807376
0.00053309
0.00696837
0.00602219
0.00686946
0.00315077
0.000799744
0.00365371
0.00279617
0.00189406
0.0045696
0.00326284
0.00301823
0.00332877
0.00143516
0.0019573
0.00693787
0.0050702
0.00607646
0.00406979
0.00674653
0.00394946
0.00457507
0.00549619
0.00410771
0.00353867
0.000963163
0.00368632
0.00400941
0.00297232
0.00694147
0.000827379
0.00631768
0.00631816
0.00558745
0.00675741
0.00670182
0.00632031
0.0057484
0.00550925
0.00585762
0.00494848
0.00640722
0.00359425
0.00397681
0.00665559
0.00653847
0.00503939
0.00646177
0.00653497
0.002497
0.00393422
0.00702138
0.00638142
0.00385729
0.00191306
0.00538603
0.0040805
0.00330692
0.00609897
0.00646315
0.00277623
0.00743424
0.00480582
0.00686011
0.00274751
0.00126189
0.00379888
0.00708135
0.00192608
0.00703701
0.00400761
0.00383156
0.00502326
0.0067061
0.00563158
0.00690248
0.00688192
0.00481457
0.00397593
0.00439932
0.00376185
0.00570236
0.00717401
0.00378673
0.00590986
0.00588122
0.0039829
0.00518541
0.0045453
0.00630015
0.00516074
0.00351951
0.00328998
0.00591052
0.00102678
0.00647675
0.00219454
0.00463802
0.00342283
0.00339143
0.00625928
0.0023692
0.00632529
0.0034889
0.00642022
0.00113603
0.00098058
0.00678138
0.00253058
0.0037991
0.00354444
0.00376993
0.00407618
0.00371931
0.00397343
0.00473559
0.00631767
0.00303336
0.00439517
0.00604306
0.00361516
0.00386504
0.00585878
0.000861845
0.000368528
0.00659846
0.000469523
0.00046739
0.00393282
0.000443037
0.00100451
0.0061875
0.00377574
0.00400843
0.00382713
0.00102291
0.00372893
0.00581239
0.00605124
0.00410502
0.00406162
0.00393813
0.00368549
0.00114633
0.000743534
0.00119728
0.00543755
0.000949158
0.0037614
0.00505441
0.00699039
0.00498895
0.00705244
0.00422915
0.00479
0.00284693
0.0043405
0.0074896
0.00378791
0.00503523
0.00423742
0.00713943
0.00472122
0.00450776
0.00523092
0.00562939
0.00338691
0.00273916
0.00500672
0.00408497
0.00706625
0.00135698
0.00277686
0.00192375
0.00744304
0.00253748
0.00306291
0.00280384
0.00684499
0.00381816
0.00740267
0.00486145
0.002736
0.00321846
0.00346022
0.00306712
0.00523431
0.00224563
0.000838131
0.00615424
0.00151824
0.00558478
0.00153568
0.00587814
0.00566746
0.00672487
0.00433219
0.0050453
0.00290202
0.00485003
0.00636868
0.00682089
0.00585621
0.00427364
0.00260052
0.00347074
0.00697095
0.00544144
0.00473743
0.00499116
0.00505996
0.00472514
0.004348
0.00240084
0.00472285
0.00372038
0.000649017
0.00501308
0.00433768
0.0062179
0.0074118
0.0016864
0.0021479
0.00434884
0.00581272
0.00420597
0.00396693
0.00683798
0.00204275
0.00747829
0.00472606
0.00229105
0.00268043
0.00502725
0.00275839
0.00713469
0.00413864
0.0041791
0.00530015
0.00680373
0.00552559
0.000914795
0.00468617
0.00240211
0.00647449
0.0018818
0.00612356
0.00498277
0.00200266
0.00234239
0.00440698
0.00647057
0.000711643
0.0052635
0.00518715
0.00515951
0.00602775
0.00658335
0.00218202
0.00287716
0.00602408
0.00476597
0.0045461
0.00678091
0.0018808
0.00680734
0.004955
0.000414117
0.00427536
0.00692563
0.000795459
0.00125799
0.00704569
0.00031475
0.00033131
0.00413528
0.00744586
0.00552841
0.00672678
0.00426097
0.0037781
0.00131442
0.0068808
0.00266243
0.00589234
0.00197636
0.0022213
0.00433118
0.00467198
0.00152948
0.00682142
0.00579054
0.00337405
0.00334036
0.0023977
0.00295233
0.00296541
0.00667737
0.00330401
0.00285124
0.0029099
0.00532529
0.00284888
0.0031757
0.00626085
0.00241515
0.00361324
0.00386975
0.00266126
0.00332133
0.00428973
0.00492958
0.00582282
0.00160125
0.00507682
0.00633023
0.00616866
0.000288408
0.00386884
0.0047357
0.000505465
0.000806253
0.00692982
0.00462408
0.00014205
0.00203411
0.000748283
0.00255521
0.00315409
0.000772075
0.00488447
0.00599553
0.00590936
0.00284634
0.00335451
0.0033283
0.00621446
0.00310318
0.0043746
0.00374898
0.00593955
0.00421679
0.00370062
0.00169704
0.000964589
0.00273368
0.00279633
0.00395236
0.00563382
0.00342049
0.00741649
0.00605404
0.00567853
0.00526692
0.00545724
0.00189126
0.00469479
0.00619406
0.00181609
0.0019091
0.00105159
0.0011416
0.00384799
0.00705776
0.00480176
0.00675959
0.00126766
0.00432012
0.00130796
0.00413654
0.00381714
0.0048904
0.00459297
0.00547676
0.00330811
0.00181266
0.00342243
0.00501959
0.00188081
0.00409348
0.00748588
0.00413231
0.00395379
0.00187524
0.00477532
0.00183747
0.00326601
0.00747321
0.00671113
0.00244898
0.00400117
0.00346551
0.00743283
0.00498271
0.00396562
0.00433514
0.00403715
0.00381514
0.00460077
0.00085426
0.000587074
0.00419596
0.000763657
0.00439529
0.0028212
0.00333135
0.00605657
0.00441205
0.00463778
0.00397236
0.00393537
0.00657445
0.000552174
0.00236292
0.00328031
0.005067
0.00630592
0.00369635
0.00513842
0.00235378
0.00728525
0.00188125
0.00395626
0.00664155
0.00403622
0.00635791
0.00517083
0.00432164
0.00576581
0.00347416
0.00701005
0.00631355
0.00356237
0.000987006
0.00705308
0.00074828
0.00223893
0.00203175
0.00075009
0.00410025
0.00381727
0.0020333
0.00330405
0.000779575
0.000818118
0.000902232
0.00312911
0.00469542
0.0034457
0.00287265
0.000829438
0.00242898
0.00359437
0.0053777
0.00421782
0.00402511
0.00306228
0.00554323
0.00412243
0.00124897
0.00188166
0.00555503
0.00246468
0.00104355
0.000672054
0.00386126
0.000574596
0.00180764
0.000642067
0.000821223
0.00449992
0.00298915
0.00673344
0.00632374
0.00470961
0.000729411
0.00119224
0.00466205
0.00474753
0.00691692
0.000891341
0.000875201
0.00695391
0.00222826
0.00357324
0.00694163
0.00218119
0.00697344
0.00688962
0.00415749
0.00469787
0.00151214
0.00619969
0.00691003
0.00488539
0.00513795
0.00511195
0.000981619
0.00189627
0.0067896
0.00118421
0.00595892
0.00628525
0.00625945
0.00174702
0.00446108
0.00200299
0.00256409
0.0054345
0.00692884
0.00121478
0.000632405
0.00434095
0.00376881
0.00192146
0.00520514
0.00560966
0.00292778
0.00268383
0.00294507
0.00702531
0.00245628
0.00106148
0.0074237
0.00104881
0.0050538
0.00394844
0.00657913
0.00197264
0.00262553
0.00675197
0.00435219
0.00120934
0.00311699
0.00184213
0.00447886
0.00517313
0.00447802
0.00353904
0.00432846
0.00299197
0.000667374
0.0044582
0.00249393
0.00176739
0.00175285
0.00104507
0.00171026
0.00404008
0.000533582
0.00666215
0.00632786
0.00391514
0.00278772
0.00373957
0.00134983
0.00128565
0.00315765
0.0044196
0.00431505
0.00310783
0.0035186
0.00385758
0.0105037
0.00139088
0.00387372
0.00362557
0.00274992
0.00176342
0.00629236
0.000539267
0.00386846
0.00537198
0.00386731
0.00389192
0.00934284
0.00647412
0.00326282
0.00386328
0.000670926
0.00267746
0.00473482
0.00360614
0.00542674
0.00347437
0.000747086
0.00462404
0.00228708
0.00533501
0.00174878
0.00286743
0.00376016
0.00546092
0.00528986
0.00357869
0.00221762
0.00377261
0.00158215
0.000731332
0.00515851
0.00672657
0.00472887
0.00100858
0.00508286
0.00268417
0.00691818
0.00165289
0.00157516
0.00355107
0.0029354
0.00434279
0.00685986
0.00514754
0.00313123
0.00118548
0.00211831
0.00111804
0.00633645
0.0021517
0.00236495
0.00296558
0.00348131
0.00533057
0.00167558
0.00163347
0.00359991
0.000883688
0.00348372
0.003477
0.00415119
0.00468973
0.00353997
0.00462638
0.00117761
0.00447912
0.00425329
0.00422746
0.0057958
0.00076215
0.00268875
0.000682584
0.00149888
0.000766116
0.00206339
0.00380994
0.00124325
0.00339927
0.0012176
0.00197683
0.00202391
0.0016111
0.00286453
0.00500344
0.00413845
0.00746828
0.00138311
0.0036649
0.00336183
0.00425718
0.00128669
0.00560482
0.00423337
0.00579456
0.00746034
0.00288745
0.0017494
0.00291987
0.00303638
0.00506524
0.00230045
0.00650014
0.00311165
0.0030423
0.0064316
0.002259
0.00227692
0.00418105
0.00197498
0.00373435
0.00332851
0.00203943
0.00289785
0.00305312
0.000214792
0.000657569
0.00178072
0.000763478
0.00325758
0.00319673
0.000587391
0.000917521
0.00468843
0.000996142
0.0032923
0.00418564
0.000552483
0.0025933
0.00680008
0.00314543
0.00140662
0.00576544
0.000667666
0.000336496
0.00220049
0.000809553
0.00220581
0.000918221
0.000834363
0.00528033
0.00442676
0.00274516
0.00178285
0.00362292
0.00716759
0.00200224
0.000676987
0.00425101
0.00160988
0.00421571
0.00199393
0.00608407
0.00574335
0.00259127
0.00244488
0.00412016
0.00171796
0.00472841
0.001424
0.00685352
0.00557197
0.00485248
0.00236058
0.00489916
0.0069803
0.000762712
0.00201764
0.00185239
0.00367756
0.00248772
0.00242538
0.00121023
0.003952
0.00111112
0.0030602
0.00496418
0.003073
0.00264444
0.000930468
0.00192177
0.00170523
0.00587738
0.00469558
0.00195819
0.00395599
0.00285715
0.00499331
0.00740451
0.00609937
0.00382022
0.00316241
0.000797825
0.0038178
0.000491711
0.00369669
0.00432972
0.00297621
0.00501929
0.0036777
0.0039682
0.00437155
0.00192654
0.00550254
0.0014034
0.00690322
0.00036045
0.00135567
0.00142971
0.00196736
0.00410539
0.00529108
0.00342158
0.00478122
0.000619902
0.000733155
0.00337312
0.00215427
0.000990041
0.000909517
0.00230716
0.00114203
0.000624192
0.00349004
0.00451481
0.000555914
0.00381542
0.00439038
0.00414111
0.00115638
0.000518594
0.00383836
0.00356119
0.0012754
0.00253448
0.00143774
0.000742157
0.0032373
0.00107892
0.00116255
0.00334343
0.00443083
0.00115165
0.00570295
0.00174123
0.000232225
0.00698779
0.00423575
0.00373829
0.00515399
0.0029863
0.00300094
0.00719619
0.00295262
0.00410751
0.000798776
0.0015561
0.00440455
0.00140932
0.00636267
0.00038387
0.00671635
0.00347718
0.00228936
0.00511473
0.000973232
0.00387152
0.00301194
0.00235539
0.00406024
0.00390674
0.00576252
0.00210651
0.000671081
0.00572029
0.00150294
0.000699014
0.00239077
0.00347294
0.000980175
0.00164803
0.00478122
0.00509341
0.00101131
0.00172068
0.00228787
0.000810975
0.00258599
0.000899822
0.0034967
0.00275142
0.00212767
0.000991746
0.00545331
0.00528259
0.00209233
0.00428461
0.00255693
0.00407398
0.00137411
0.00498788
0.00350078
0.00575593
0.00144508
0.00560389
0.000604027
0.00217166
0.00556599
0.00739775
0.00186683
0.00160854
0.000859085
0.00190316
0.00199043
0.00107875
0.00084906
0.00396135
0.000918372
0.00507646
0.00280073
0.00040429
0.00148606
0.00308877
0.00348595
0.00561306
0.00144039
0.000831079
0.00154609
0.00296079
0.00790102
0.00697316
0.00175352
0.0037817
0.00379481
0.00627776
0.00101199
0.00303427
0.00160422
0.00407753
0.00151673
0.00396571
0.00297878
0.00107695
0.0018136
0.00236618
0.00241543
0.00538762
0.000395913
0.00162852
0.00150288
0.00141008
0.00611741
0.00519724
0.00102445
0.000802887
0.00162296
0.00265342
0.00275839
0.00159892
0.00234879
0.00156686
0.00527373
0.00128063
0.0013043
0.00527472
0.00115196
0.00333514
0.00250868
0.00270471
0.00124564
0.00245591
0.00564422
0.000677288
0.00329183
0.000653993
0.00260232
0.00358053
0.00301773
0.00188056
0.001254
0.00230495
0.00384001
0.00289387
0.00116634
0.00379445
0.00413812
0.000694554
0.00669417
0.00357308
0.000843719
0.00339982
0.00265195
0.00249431
0.00238208
0.00116275
0.00356845
0.00015379
0.00226404
0.000755703
0.00303687
0.00110656
0.00264954
0.000874566
0.00138424
0.00137836
0.00321855
0.00394999
0.00741052
0.00400067
0.00356583
0.0028824
0.000710443
0.00375677
0.00595573
0.00410115
0.00477694
0.00293592
0.00415512
0.00701929
0.00745254
0.00298013
0.000954299
0.00651789
0.00277475
0.00232696
0.00517848
0.00622434
0.00282034
0.00214838
0.00747109
0.0053536
0.00329793
0.00349072
0.00563583
0.00387982
0.0011496
0.00385412
0.00324578
0.00544367
0.00675285
0.00202321
0.00461236
0.00578001
0.000842183
0.00217358
0.000948752
0.00639786
0.000919034
0.000419203
0.00546919
0.000387215
0.000768927
0.000545708
0.00390515
0.00458438
0.0042401
0.00136899
0.00676164
0.00438866
0.00446232
0.00384344
0.00268388
0.00342669
0.00341735
0.00101915
0.00429322
0.00265272
0.000813123
0.00400526
0.000312234
0.00163346
0.00122721
0.00621092
0.00300746
0.00192029
0.00563518
0.00455389
0.00192721
0.00685179
0.00290046
0.0016435
0.000448075
0.00709162
0.00146047
0.00497719
0.00296707
0.00282866
0.00510669
0.00132485
0.00451864
0.00206388
0.00438374
0.00128896
0.00027855
0.00381799
0.00674067
0.00235612
0.00458212
0.000942027
0.00374397
0.0037271
0.00434338
0.00409962
0.00532604
0.00718642
0.00370404
0.00216402
0.0051047
0.00218407
0.00394176
0.0037619
0.00699538
0.00229736
0.00329375
0.00398238
0.00513279
0.00437564
0.00442406
0.00306567
0.00411545
0.00433482
0.00569866
0.00232423
0.0025965
0.0074721
0.00381666
0.00351296
0.00500045
0.00378895
0.0033014
0.00380679
0.00373477
0.00385855
0.00576365
0.00381968
0.00562115
0.00458494
0.00611246
0.00202727
0.00222013
0.00196174
0.00361916
0.00465363
0.00401875
0.00118096
0.00504872
0.00487191
0.00528844
0.0014561
0.00298142
0.00122226
0.0012269
0.00126389
0.00311891
0.00438666
0.00396316
0.00408332
0.0061296
0.00118658
0.00389962
0.00617922
0.00401864
0.0031365
0.00388142
0.00151133
0.00388961
0.00235289
0.00267495
0.00334112
0.00594745
0.00429736
0.00365245
0.00371851
0.00443127
0.0029585
0.00322546
0.00271466
0.00363395
0.00508202
0.00493032
0.00210362
0.00188467
0.00457361
0.00406652
0.00229061
0.00370153
0.00227193
0.00625124
0.005033
0.00228428
0.00452602
0.00557092
0.00460139
0.00662751
0.00620099
0.00334096
0.00422207
0.00219439
0.0043092
0.00226372
0.00566793
0.00421724
0.000986734
0.00392572
0.00418677
0.00483332
0.00496892
0.00391771
0.00423093
0.000314597
0.00346256
0.00379247
0.00574832
0.00503164
0.00492103
0.0069609
0.00596304
0.0034992
0.00402401
0.00596835
0.00643072
0.00269176
0.000972871
0.00125535
0.00297575
0.0017352
0.00350003
0.00378087
0.00353264
0.00236908
0.00193285
0.00320808
0.00389718
0.000821599
0.00466457
0.00389051
0.00377875
0.00392056
0.0057286
0.000295318
0.00452739
0.00353208
0.00743041
0.00259864
0.00244829
0.0004059
0.000224645
0.00450095
0.00552205
0.00674817
0.00391338
0.00359094
0.00476512
0.000203633
0.00149188
0.00460716
0.00249944
0.00125623
0.0047452
0.00568505
0.00347787
0.00670984
0.00485268
0.0063717
0.00415575
0.00274112
0.00381471
0.00415328
0.00501285
0.00183603
0.00416165
0.00743716
0.00155746
0.00571918
0.00329421
0.00281509
0.00103993
0.00165655
0.0034102
0.00287963
0.00481709
0.00284779
0.00282034
0.00586214
0.000578902
0.00164338
0.00287974
0.00383312
0.00339963
0.00380054
0.00376234
0.00108812
0.00697897
0.00643469
0.00574168
0.00538222
0.000843034
0.0012433
0.00124555
0.0017931
0.00293503
0.00287971
0.00700655
0.00664909
0.00454909
0.00478071
0.00497865
0.0054037
0.00694334
0.00104681
0.000748655
0.00688543
0.005546
0.00252263
0.00253917
0.00281622
0.00688986
0.00471454
0.00178787
0.000883996
0.00337228
0.00200237
0.00339594
0.00150656
0.000543477
0.0030906
0.00594356
0.00678352
0.00617167
0.000883926
0.00510434
0.00435008
0.00414063
0.00698471
0.00086732
0.000390347
0.000459833
0.00163384
0.00462665
0.00575509
0.00661683
0.00213105
0.00365932
0.000896198
0.000839873
0.000847908
0.000519193
0.000830649
0.00164036
0.00646273
0.000770118
0.00739759
0.000323721
0.00390475
0.000765982
0.0044422
0.00164592
0.00525856
0.00288506
0.00224757
0.00225489
0.00436936
0.00559522
0.00398881
0.000869807
0.00102611
0.00500264
0.00516345
0.000467059
0.000472983
0.00352759
0.00162305
0.000750857
0.00155372
0.00452912
0.00650135
0.000893081
0.000748728
0.0015138
0.00703505
0.00137227
0.0060308
0.000783295
0.00108678
0.000595771
0.00232617
0.00546935
0.00145832
0.00637877
0.00460125
0.00370298
0.00210352
0.00562265
0.00347367
0.00425567
0.00375041
0.0040815
0.0063508
0.00609542
0.00322357
0.00648963
0.00553582
0.00415672
0.00381517
0.00148414
0.00375064
0.00235832
0.0039952
0.00471893
0.00389398
0.000930375
0.00338896
0.00328021
0.00182905
0.000550809
0.00412083
0.00421781
0.00300031
0.000945526
0.0016904
0.00125164
0.00450862
0.00619238
0.00426475
0.00332604
0.00527797
0.00334295
0.00309212
0.00359105
0.00675813
0.00443646
0.00433739
0.00435305
0.00311221
0.00415221
0.00361968
0.00063699
0.00339638
0.00392296
0.00408262
0.00285802
0.0010712
0.00295323
0.00365368
0.0044114
0.00305009
0.00122686
0.00109055
0.00373621
0.00317818
0.000363404
0.00148678
0.00203287
0.00401732
0.00146391
0.00307433
0.00396594
0.00259919
0.00110132
0.00469213
0.00403205
0.00252134
0.00626977
0.00234337
0.00267155
0.00305113
0.00332915
0.00194436
0.00401354
0.00584211
0.00676405
0.00173695
0.00320696
0.00417392
0.00613733
0.00481793
0.000784904
0.00293937
0.00332208
0.000434196
0.00170087
0.00536663
0.00341348
0.00093826
0.00160656
0.00226132
0.00676275
0.00289566
0.00100085
0.00476965
0.00698117
0.000658352
0.00175662
0.00130362
0.00267329
0.00461394
0.00448055
0.00151728
0.00062497
0.000743034
0.00493304
0.00522292
0.000595636
0.00497502
0.00175536
0.00307669
0.0014872
0.000921277
0.00455723
0.00333543
0.00115655
0.00396156
0.00490149
0.0044446
0.0035525
0.00540945
0.000861949
0.000284751
0.00338131
0.00354467
0.000701054
0.00050781
0.000666476
0.00198475
0.00105799
0.0019242
0.000528873
0.00352553
0.00353175
0.000848742
0.00223803
0.00226914
0.00110762
0.000965559
0.000426427
0.00535598
0.0049355
0.000758942
0.0065867
0.00421607
0.000799419
0.00516618
0.00326342
0.00395642
0.00290217
0.00498635
0.00601257
0.000454175
0.000582591
0.00240876
0.000678672
0.00238577
0.0035324
0.00427127
0.00423617
0.00325919
0.00420893
0.00494301
0.00384345
0.0044318
0.000675471
0.000625109
0.00408901
0.0016409
0.00386112
0.00419066
0.00251884
0.00350804
0.00362427
0.00436781
0.000458258
0.00105889
0.00420575
0.000603168
0.00279171
0.00139691
0.00286757
0.00336196
0.00107066
0.00279373
0.00103926
0.00358345
0.00289762
0.0028973
0.00607294
0.00112608
0.00688533
0.00523957
0.00229473
0.00423458
0.00141633
0.00327213
0.00240348
0.00338233
0.000840044
0.00381061
0.00340646
0.00362978
0.0068235
0.00433875
0.00332618
0.00173763
0.000440878
0.00272431
0.00074065
0.00328549
0.00424747
0.00504854
0.00436673
0.00479895
0.00445414
0.00329235
0.00118428
0.00177923
0.00117033
0.000599782
0.00383979
0.00389297
0.000157493
0.000837185
0.00502283
0.00512901
0.00119857
0.00373906
0.000689956
0.000438765
0.00265321
0.0007666
0.001269
0.00271216
0.000722851
0.0016276
0.00549366
0.00348351
0.00100317
0.00124503
0.00598047
0.000928082
0.00630722
0.00262934
0.00420744
0.00261843
0.00178176
0.00080352
0.000981498
0.00589219
0.0056891
0.000234375
0.00665502
0.00453124
0.00114287
0.00556274
0.00274992
0.00429943
0.00309172
0.000519051
0.00143442
0.000929981
0.00165181
0.00315235
0.00106742
0.00546029
0.00465963
0.000978434
0.00637417
0.00361058
0.00261387
0.00494313
0.0012412
0.000632777
0.00651422
0.00218508
0.00680735
0.000715684
0.00378929
0.000564046
0.00276696
0.00299582
0.00539117
0.00246611
0.00265069
0.00606134
0.00419509
0.00317542
0.00684385
0.00138053
0.00321408
0.0034603
0.00622885
0.00379607
0.00345055
0.00236612
0.00284985
0.001813
0.0029966
0.00334041
0.00361971
0.00138177
0.000545555
0.000773525
0.000686094
0.0011135
0.00080768
0.000930283
0.00249379
0.000206275
0.000710532
0.00146962
0.00168617
0.00246721
0.00100834
0.000959355
0.00218682
0.0014478
0.00204926
0.00600705
0.00249245
0.0017546
0.00374288
0.000902898
0.00331708
0.000627523
0.00180836
0.00113657
0.00136908
0.00139636
0.000727139
0.00177065
0.000630352
0.0026046
0.00281591
0.00378953
0.00160677
0.0048736
0.00532263
0.000901013
0.00324896
0.000939405
0.00180427
0.00502578
0.00232934
0.00387551
0.00147376
0.00122167
0.00642663
0.00526155
0.00156537
0.000916998
0.00361427
0.00265499
0.00118734
0.00105111
0.0040797
0.00677383
0.0038261
0.00397799
0.000749707
0.00693385
0.000861929
0.000355223
0.00488084
0.00240203
0.00402204
0.00328384
0.000859533
0.00275658
0.000762004
0.00316122
0.00415167
0.000500784
0.00102699
0.00506433
0.00229483
0.00503265
0.00626228
0.00125244
0.00318785
0.000733694
0.00351673
0.00595019
0.00260463
0.00639504
0.00460704
0.00501343
0.00449836
0.00271033
0.00200821
0.00139796
0.00424484
0.00104321
0.00518061
0.00638385
0.00214071
0.00122756
0.00080039
0.000834886
0.00188852
0.00193014
0.00102481
0.000887571
0.000821089
0.00081573
0.00291685
0.00299137
0.00388913
0.00135374
0.00502202
0.00261311
0.00307761
0.00127866
0.000501531
0.00348142
0.00288214
0.00347541
0.00421912
0.00334625
0.00349704
0.00571836
0.00439796
0.00248124
0.00282861
0.00263037
0.00518341
0.00285822
0.00151421
0.000733961
0.00414222
0.000556493
0.00744383
0.00277779
0.00684205
0.00438453
0.000864778
0.00268032
0.0010999
0.00358889
0.0033729
0.00319015
0.0043096
0.00456133
0.00405425
0.00312181
0.0119117
0.00723039
0.000751611
0.00283622
0.00117094
0.00277672
0.00106845
0.0054262
0.00444795
0.00331806
0.00377319
0.00285867
0.000931742
0.00615668
0.00412176
0.00119511
0.00246716
0.00243077
0.00248399
0.00243944
0.00221635
0.00205306
0.00473063
0.00736436
0.0062941
0.00190791
0.0014198
0.0044448
0.000486862
0.00688223
0.00169603
0.00659975
0.0058931
0.00175615
0.00435078
0.00635556
0.000912583
0.00742105
0.00401229
0.00133979
0.00372847
0.00658176
0.00123184
0.0065111
0.00724965
0.0010378
0.00265615
0.00285689
0.000722495
0.00704307
0.00184681
0.00126293
0.00161921
0.000899034
0.00113549
0.00425515
0.00582477
0.00278966
0.00561875
0.00173671
0.00283895
0.00482804
0.00550659
0.00348112
0.0011482
0.00294786
0.00418065
0.00314222
0.00338609
0.0024099
0.00738817
0.00209993
0.00106865
0.00356553
0.00319614
0.00446218
0.00405788
0.0027784
0.0043233
0.0021472
0.00314902
0.000591048
0.0037896
0.00703161
0.000943788
0.00286875
0.00064766
0.000951421
0.00644149
0.00327534
0.00116727
0.00309252
0.000653314
0.00136656
0.000561347
0.00135996
0.000623513
0.00301662
0.00141071
0.0015202
0.000517296
0.00110314
0.00283277
0.000619718
0.00065876
0.00257548
0.00031878
0.00116833
0.00444854
0.0032388
0.00130772
0.000898343
0.00709326
0.00361474
0.000935445
0.000704865
0.00104427
0.00122395
0.00150295
0.000771706
0.00273411
0.00358435
0.00420379
0.00663421
0.00303917
0.00615904
0.00096404
0.00291806
0.00425877
0.000645297
0.00371811
0.00226801
0.00410812
0.00579488
0.00309968
0.0041067
0.00175484
0.00609409
0.00166712
0.000586359
0.00454958
0.00606818
0.00319947
0.00471193
0.000978357
0.00401128
0.00509734
0.00580898
0.000539389
0.00589338
0.00333044
0.00626755
0.00159782
0.0030089
0.00423177
0.00561875
0.00485607
0.00149689
0.00345592
0.00251112
0.00731617
0.0066987
0.00645163
0.00479053
0.0043567
0.00345967
0.00574407
0.00327419
0.00354677
0.00226237
0.00119836
0.00105062
0.0030553
0.00168362
0.00410089
0.00259343
0.00345148
0.00368832
0.00611573
0.0031344
0.00422865
0.00601235
0.00207554
0.00446996
0.00298913
0.00100926
0.00466276
0.00266729
0.00111713
0.00346555
0.00107765
0.00178187
0.00114201
0.000322871
0.0027078
0.00492701
0.00202793
0.000433358
0.00258711
0.00680714
0.00578518
0.00481066
0.00322858
0.00431492
0.0068608
0.00682951
0.00347854
0.0027084
0.00719633
0.00636195
0.00709706
0.00496221
0.00273136
0.00165742
0.00291375
0.00585746
0.00320508
0.000897108
0.00498794
0.0056385
0.00379662
0.000579511
0.000587945
0.0037487
0.00539701
0.00442738
0.00284068
0.00425534
0.000894119
0.00163992
0.00464972
0.00397389
0.00545086
0.00332978
0.00172722
0.00450665
0.00316506
0.00339166
0.00123101
0.00192792
0.00143566
0.000894586
0.000220516
0.00207784
0.00188704
0.00383269
0.00373784
0.0032663
0.0031892
0.0052966
0.0041955
0.000463185
0.00612795
0.00175406
0.000700086
0.00324608
0.00291812
0.000736428
0.00197847
0.00387249
0.00374588
0.00710184
0.00289333
0.00104536
0.0037474
0.00143004
0.0072461
0.00249801
0.000716185
0.000813743
0.00315581
0.00289634
0.00101756
0.00437249
0.00064997
0.000568114
0.00116736
0.00741959
0.00640985
0.000304133
0.0054999
0.000498227
0.00185699
0.00299564
0.00104038
0.00113396
0.00581763
0.00696151
0.000926888
0.00584741
0.00562409
0.00456138
0.00612484
0.00421306
0.00345683
0.00202264
0.00526704
0.000347695
0.00304443
0.00357864
0.00365664
0.000299022
0.0040277
0.000542373
0.00453164
0.00289235
0.00348606
0.00105145
0.00559075
0.0040789
0.00461655
0.00094571
0.00177204
0.00174998
0.00127255
0.00262819
0.00589631
0.000767465
0.00324474
0.0031471
0.00328338
0.00436732
0.00300941
0.00379119
0.00717918
0.000355528
0.00120772
0.00420288
0.00457517
0.0033066
0.0036594
0.00265311
0.00264532
0.00434904
0.00220874
0.00416017
0.0046043
0.00409145
0.00154705
0.00434484
0.00422279
0.00433184
0.00338765
0.00675139
0.00536811
0.00456614
0.00273556
0.00398119
0.00268915
0.00252277
0.00344963
0.000780235
0.00465531
0.00256282
0.00160293
0.00116411
0.00146763
0.00353754
0.00728027
0.00174112
0.000846167
0.00390863
0.000972874
0.00394721
0.00689855
0.00264274
0.00170749
0.00376321
0.00406687
0.00703802
0.00460576
0.000338854
0.0045829
0.00624463
0.00229812
0.000496184
0.000494047
0.00333116
0.000285943
0.00151151
0.00112337
0.00220833
0.00124353
0.000503729
0.0045142
0.000759863
0.00382941
0.00478692
0.00790431
0.000479478
0.00198752
0.00657701
0.00543418
0.000975933
0.00377824
0.000479119
0.0048281
0.00286418
0.00392884
0.00286566
0.00061578
0.00712613
0.00310736
0.00277759
0.00519077
0.00362631
0.00534923
0.00279148
0.000444843
0.000449841
0.000765488
0.00136575
0.00123986
0.00553289
0.00584572
0.00479901
0.00358837
0.00664856
0.00135577
0.0069847
0.000843404
0.00413988
0.00620635
0.00547538
0.00467196
0.0063047
0.0031766
0.00291728
0.0072008
0.00304377
0.000847717
0.00494044
0.000977765
0.000911245
0.00616505
0.000312841
0.00053639
0.00271242
0.00286405
0.00352933
0.00118603
0.00463054
0.00189348
0.00114509
0.00506674
0.0015525
0.00691688
0.0019174
0.00392765
0.00221425
0.00212142
0.00086894
0.00332799
0.0037097
0.000634022
0.00121601
0.00188724
0.00144031
0.00566126
0.00198293
0.0039383
0.00176345
0.00315896
0.00612339
0.00124387
0.00257158
0.00229159
0.00646586
0.000548215
0.000796076
0.000530867
0.00538144
0.00382171
0.000825336
0.000531398
0.00192819
0.00361226
0.00248651
0.00099926
0.000633848
0.00166032
0.00466553
0.00560981
0.0042268
0.00458282
0.0039904
0.000537088
0.00489311
0.00160993
0.00309048
0.00651044
0.00255971
0.00253858
0.00465727
0.0038534
0.00495237
0.00227241
0.0020952
0.00468837
0.00584857
0.00218974
0.00293947
0.00272447
0.00191828
0.00216217
0.00354247
0.00574385
0.00554383
0.00505674
0.000729493
0.00344541
0.000903015
0.00205967
0.00356115
0.00474143
0.00319028
0.00703673
0.00241765
0.00747111
0.00194167
0.00232716
0.00358894
0.00407814
0.0023465