/*--------------------------------*- C++ -*----------------------------------*\
| =========                 |                                                 |
| \\      /  F ield         | OpenFOAM: The Open Source CFD Toolbox           |
|  \\    /   O peration     | Version:  2506                                  |
|   \\  /    A nd           | Website:  www.openfoam.com                      |
|    \\/     M anipulation  |                                                 |
\*---------------------------------------------------------------------------*/
FoamFile
{
    version     2.0;
    format      ascii;
    arch        "LSB;label=32;scalar=64";
    class       volScalarField;
    location    "0.075332";
    object      omega;
}
// * * * * * * * * * * * * * * * * * * * * * * * * * * * * * * * * * * * * * //

dimensions      [0 0 -1 0 0 0 0];

internalField   nonuniform List<scalar> 
47425
(
59.3628
67.0339
71.1365
159.444
144.998
70.3096
97.0199
100.194
49.394
581.4
135.379
43.7179
72.4126
78.7031
95.264
87.0926
67.9785
47.3813
1363.5
196.866
83.7147
44.1484
103.169
62.3661
44.9493
43.4166
76.9795
689.516
69.4916
54.7103
42.9601
44.4048
47.7433
68.039
55.5388
66.0572
43.7959
67.558
65.5111
73.8853
70.8124
122.243
208.167
144.994
1882.21
102.307
94.795
77.5997
78.1026
46.5881
570.063
234.165
49.0079
686.772
111.612
122.274
44.3934
57.8899
78.3719
60.6577
882.257
1208.18
840.826
43.6086
49.3523
44.3645
61.4083
87.3673
743.328
44.0768
77.8032
52.1064
48.7422
89.8095
603.382
49.4036
851.939
80.3062
1335.54
275.805
620.473
64.6593
42.7872
46.9237
56.8861
80.9685
54.0548
53.5413
128.234
401.54
43.7361
75.4659
41.2426
113.935
146.309
193.613
47.0944
52.7489
87.5459
77.6363
60.0961
91.8609
51.87
96.5425
49.6296
52.0802
51.1266
93.0027
73.6214
43.9704
336.377
61.8768
74.0305
154.255
43.4455
878.17
42.6837
227.093
77.0026
62.036
79.091
48.5449
58.0983
62.8835
95.7797
58.0201
84.397
49.1901
104.606
41.4503
44.6127
94.0321
124.213
118.127
110.763
68.0162
47.4384
61.3674
68.3691
96.0559
70.9429
128.686
69.7782
93.3366
51.2489
49.3287
117.686
62.6888
148.862
72.3637
93.7763
503.385
48.7557
691.436
46.0105
83.2649
59.1051
887.645
90.4077
70.6293
43.7264
42.8531
49.3923
45.9328
426.279
810.636
45.4598
609.041
105.608
727.723
671.069
84.1616
73.8605
45.4607
70.5486
65.6275
725.315
69.5535
52.2996
42.7879
989.152
48.4513
59.7742
45.3087
45.9363
48.3841
56.2617
75.2592
148.16
56.8698
47.9246
71.4619
82.4702
77.0203
45.4329
41.9023
61.8686
71.1328
42.9266
83.0393
65.4591
122.833
69.6727
42.3185
48.9504
158.457
52.8487
42.1009
86.6001
48.4399
62.7638
65.5036
47.2046
92.8666
63.8093
63.4183
76.3382
255.213
46.3047
92.9257
290.06
119.711
136.573
95.8137
166.212
244.429
45.1552
128.414
47.8549
60.856
71.8713
71.4141
101.317
49.3224
163.827
91.2798
335.868
110.278
279.996
180.093
82.8154
59.5759
41.5228
101.039
44.3351
49.4523
68.065
60.6021
42.6602
76.6435
41.5968
225.632
66.4263
49.2833
91.0069
41.7683
44.8333
119.027
93.5974
48.3484
123.732
47.2064
78.2309
134.279
72.5218
88.6828
43.3565
72.6745
62.6337
81.3469
79.4343
245.04
321.417
48.5149
229.928
177.903
230.71
110.389
304.477
182.343
919.729
58.7417
886.022
121.774
78.8832
84.1351
103.115
90.18
89.394
44.7419
628.058
43.316
50.3438
56.1102
67.0527
96.4765
109.968
46.1516
64.9345
55.2582
85.8387
43.228
84.2492
59.8688
832.333
1017.13
657.58
41.5995
47.7681
42.9601
98.7853
681.533
85.4268
115.063
284.403
72.0992
103.605
121.315
92.7271
449.108
247.54
43.4078
59.698
46.8596
80.0308
42.8777
77.345
62.9217
52.3895
71.2737
83.1296
728.289
55.131
73.7652
129.126
41.8402
725.091
49.5442
45.2371
52.555
44.5612
44.9768
45.3026
51.9091
51.2561
49.9389
59.0247
46.4383
82.951
81.8598
45.4915
44.665
61.6138
46.4669
46.5458
45.9568
79.629
42.6832
47.5618
93.3984
53.671
60.3574
76.1503
93.8097
47.8746
48.1869
129.597
48.2153
66.3784
43.8524
128.26
932.301
77.4554
42.8916
200.232
42.9371
106.124
93.028
72.5499
43.9756
63.5002
43.7535
42.1042
73.7854
84.5363
82.8568
82.5274
52.1794
48.7482
81.4039
47.9371
46.1998
79.1725
56.7183
64.9501
48.0751
61.5526
87.2915
68.2693
48.5829
482.584
44.4851
434.536
68.4256
103.989
101.097
46.3335
144.388
45.5881
92.4815
45.9582
492.618
363.886
42.4627
49.439
79.2839
84.8923
81.9224
73.6142
80.1762
88.3044
66.1624
45.8719
99.9926
70.4288
47.8601
92.6483
77.329
51.8586
146.028
1215.6
45.1586
282.289
1004.7
88.4928
1029.87
708.62
46.9148
79.2732
74.9352
78.1344
644.986
85.4007
49.2391
48.1335
74.1596
74.572
79.2366
79.4704
493.867
712.877
155.394
65.5406
72.208
125.151
57.515
43.1829
68.4136
42.7169
83.9822
75.8087
132.705
69.194
49.3502
79.9289
59.233
75.9813
42.7851
64.3621
66.7136
66.6379
63.5359
108.577
117.795
61.4792
81.9258
42.7149
553.116
129.896
75.2789
46.3432
132.29
243.514
46.5529
42.2137
46.6564
47.2999
67.2881
48.9153
103.451
83.8923
47.3763
55.0556
139.818
98.7648
46.5262
49.626
56.8313
53.4649
48.9193
51.0425
43.1039
68.7261
59.2487
109.586
61.2207
45.5085
42.8998
42.6574
73.0288
125.22
43.8749
41.5867
55.8168
59.1045
57.6754
58.8096
68.1257
71.6411
51.3158
76.9249
100.902
428.74
60.6345
68.4986
52.5175
49.345
135.195
133.13
74.8583
50.4294
78.8469
106.648
46.3874
144.391
48.4578
262.142
47.1065
50.2648
58.0953
129.079
40.8744
71.81
72.6561
63.9591
42.5072
51.3217
1117.64
62.4128
143.885
44.9302
100.658
46.2697
58.5482
85.674
72.5608
69.198
44.5272
390.073
54.5821
58.5406
55.6408
47.7216
43.5457
57.3487
119.897
48.3124
64.5506
67.0875
42.8296
271.082
44.0477
63.7019
473.456
70.7426
41.9586
334.414
590.186
42.9763
643.472
675.109
69.9131
46.5989
51.6185
43.7227
84.9801
86.7191
699.932
43.4467
124.186
48.8257
117.559
56.1042
85.3082
66.1542
478.916
304.202
51.4105
93.4796
100.918
83.9913
120.174
123.499
47.7191
96.6138
132.906
98.6173
67.4408
138.532
50.895
47.5133
139.225
92.1977
77.3244
117.636
99.4746
67.7063
73.4177
60.888
53.09
67.624
46.5749
48.3232
1300.56
62.0476
78.4851
1014.92
988.194
42.1042
75.9532
1591.62
166.271
94.1175
302.185
119.462
763.41
59.2769
47.9248
60.0455
175.881
113.729
112.841
45.9401
117.056
67.1317
82.5427
47.9609
78.7172
57.9034
461.667
711.952
119.985
48.5763
84.8631
42.4971
109.473
47.4196
58.2106
63.5003
65.0541
44.0121
172.972
75.5039
47.2735
66.3741
183.443
686.35
236.967
85.2422
42.501
74.227
42.8285
706.295
69.4199
665.424
82.6641
112.931
66.5557
67.9011
57.9885
87.0767
53.9394
87.8014
56.8495
205.639
91.1699
49.2336
72.5711
88.6877
472.171
66.5623
200.91
69.5227
48.664
43.2521
138.83
79.4847
72.4743
45.9303
62.346
67.7484
71.2391
80.2691
78.8218
64.4589
125.951
196.778
70.4029
98.2507
67.0729
111.332
90.086
47.7901
152.104
61.3249
77.0276
77.1414
43.8011
297.358
398.181
93.4868
65.9168
46.0667
89.9968
55.6289
133.36
43.2234
268.248
79.3462
43.6494
75.9551
45.9594
58.7393
69.0008
49.459
88.0727
41.3976
45.3084
48.2647
164.886
40.9416
346.49
269.629
267.996
383.379
77.44
223.613
58.8745
45.7891
143.286
311.723
406.392
104.417
62.3325
129.35
113.436
166.107
126.241
93.3807
54.2553
69.8505
104.449
111.595
55.4855
80.0162
307.653
56.8499
62.7058
153.541
118.645
114.906
184.858
730.329
458.797
220.039
242.933
80.6901
118.023
43.9407
45.7315
70.2794
429.738
173.19
70.073
71.7469
42.1563
371.339
420.702
41.8913
166.991
88.5027
41.7766
163.468
41.6657
42.9353
71.9293
71.3061
83.1501
47.2377
42.017
60.4914
68.0064
66.6125
136.363
106.732
42.5897
240.528
47.7826
46.4784
47.0623
191.841
77.972
212.673
118.633
54.191
43.0002
67.6716
1423.89
70.5715
81.2838
69.6505
63.9862
61.1331
112.065
117.338
127.943
300.115
97.6472
812.947
49.4171
65.0966
56.4312
64.5011
44.9146
163.63
123.366
44.0428
282.961
93.1218
71.6577
234.593
78.7116
54.6719
69.6079
68.7026
68.4471
111.059
318.494
65.787
74.133
205.095
218.438
666.288
213.143
87.3537
169.177
44.5564
46.8397
108.1
184.66
85.7398
82.1816
90.5208
102.372
47.9145
67.9272
101.816
98.1157
89.0845
356.294
472.653
91.3937
145.539
184.046
644.282
373.831
199.442
91.5759
67.1563
96.5894
91.4882
251.881
45.6369
47.5581
96.4887
374.176
119.259
77.8168
96.8858
53.3788
108.158
125.576
78.6073
526.686
53.7892
65.152
131.331
97.2574
65.4223
66.1365
104.734
105.743
88.5332
57.0764
122.742
44.3057
44.3977
44.542
78.8178
57.3655
148.807
52.2412
213.082
282.954
254.105
99.2733
83.702
44.6998
70.3035
113.416
487.37
252.626
835.853
44.8312
57.7288
54.4472
312.88
87.8553
325.413
236.044
230.129
131.738
213.799
89.6578
85.3267
72.3355
45.9661
126.66
66.9511
75.3081
261.91
70.5804
68.687
50.8584
266.595
390.849
151.999
208.093
653.39
189.986
89.8616
67.1671
88.9064
103.094
182.49
186.359
393.512
45.6992
58.2796
71.7838
47.8173
62.1998
100.28
94.7679
54.34
122.596
52.7453
75.5582
50.6111
47.2952
122.716
67.3851
113.208
43.9903
44.7867
160.404
46.0256
98.0282
103.677
43.7289
62.4218
98.3525
79.3109
68.569
79.4876
495.519
182.912
123.301
106.09
1854.89
996.74
618.829
449.567
100.603
49.2619
1225.83
408.497
53.252
62.7069
105.688
86.477
396.98
137.197
44.5706
112.089
58.6759
49.6859
201.15
959.835
137.547
1218.83
150.69
249.672
661.605
56.9245
75.7883
132.988
338.048
91.0081
45.2379
45.6049
751.089
114.85
372.946
72.9769
159.92
48.0588
52.9079
528.087
548.024
81.1649
51.9299
76.4128
559.085
43.4175
51.6107
427.192
538.724
72.594
43.3236
1040.67
685.239
587.319
98.8464
298.272
521.11
602.763
79.3839
86.1933
108.884
64.1372
106.395
524.382
1312.81
64.2256
60.271
58.7257
51.8168
46.5318
81.0133
123.951
65.5805
49.5561
48.2918
96.4972
384.77
1208.07
50.8397
226.016
105.479
71.8879
164.384
57.2773
89.713
76.0116
45.7087
197.415
53.3262
531.713
43.1665
785.321
437.953
644.464
201.592
102.643
62.0541
101.865
68.8055
221.512
1455.15
103.541
396.095
175.98
496.336
161.778
751.925
616.568
90.4405
73.8271
1696.77
88.5372
48.8453
72.9481
648.209
1120.56
79.0466
52.114
484.492
75.9921
642.926
763.538
107.216
112.025
833.611
102.631
44.0221
621.452
51.1945
458.484
986.38
42.8993
69.5021
83.5183
56.4976
122.192
100.931
42.0955
120.815
89.008
117.293
57.6114
42.6349
203.195
228.478
582.422
50.5913
93.4607
234.641
44.965
848.937
85.4677
111.013
150.757
454.366
86.1858
337.433
180.998
146.523
56.8451
489.696
223.446
266.221
88.4331
162.908
62.425
76.0321
73.3776
352.007
214.221
111.789
718.677
150.1
109.333
254.727
121.529
141.723
698.613
287.037
67.1665
154.351
83.8658
148.415
309.613
691.702
58.2451
45.2304
62.395
466.664
63.5152
293.126
57.9065
62.3117
47.6547
155.427
54.3487
204.308
312.969
53.7183
59.9688
91.4149
79.3687
965.162
413.156
115.849
753.818
351.105
121.981
234.068
64.245
56.4004
880.75
56.381
350.025
375.769
44.7831
58.4087
110.078
96.2751
56.2586
70.8078
159.761
71.6662
77.5358
65.9976
80.2861
236.727
66.199
188.419
153.219
226.507
55.4785
726.457
442.066
53.7061
588.497
257.399
56.7521
104.184
615.936
215.443
45.866
180.636
486.962
203.785
542.189
56.9416
583.464
117.977
54.6489
68.9904
107.189
188.517
119.468
65.0758
230.776
51.0483
229.827
105.798
1307.37
141.898
80.2694
117.315
268.956
55.0911
298.108
110.865
107.283
577.461
78.2869
78.5354
1139.61
43.0212
102.271
370.7
61.9792
302.659
496.335
149.842
69.5782
82.8521
938.702
237.64
504.629
255.598
77.3553
69.8126
99.0407
686.546
674.624
309.795
87.9442
48.2484
85.2605
86.2909
129.292
328.375
92.4897
55.4636
62.28
61.1108
44.4579
85.0357
43.5031
46.8155
119.786
79.1115
45.556
127.19
235.325
60.1244
47.3425
129.279
64.2091
48.1056
54.4523
98.7698
93.0921
49.2885
96.9015
519.532
87.5658
48.5178
54.2565
43.1005
250.666
66.4072
52.7107
631.906
500.129
288.7
47.3069
614.274
147.194
65.4445
935.741
90.5605
916.971
90.3505
66.5789
81.4643
66.7466
44.1883
81.8858
83.2592
90.3506
112.954
88.4566
102.648
165.694
79.5715
82.0519
432.3
86.5122
1434.79
70.6342
699.94
46.0941
117.354
175.53
51.6311
67.5931
189.864
42.3636
493.769
332.203
1141.32
50.3637
615.245
59.2136
107.877
178.865
58.9473
592.108
89.2854
294.742
73.8015
752.557
694.759
79.0894
42.8906
456.531
67.6008
455.019
85.0785
94.7425
69.3859
72.0782
55.9518
43.9456
88.3869
295.35
75.1717
176.505
82.0269
86.8898
41.2543
154.738
370.887
89.0017
319.485
127.213
67.6132
119.035
77.7236
73.3399
55.112
148.557
130.241
48.5681
84.7861
82.3799
66.377
92.6662
379.799
349.095
79.6501
88.3834
328.31
86.7237
52.0449
63.8853
47.4709
163.475
164.702
203.932
104.431
69.0352
74.1038
63.8941
56.8402
58.1706
58.0238
485.556
129.826
662.463
516.376
631.563
58.0514
67.5264
73.1373
71.0502
47.6096
327.346
81.2189
46.3539
77.4016
111.657
77.2981
288.376
76.0951
155.884
116.118
95.6306
49.233
69.7643
87.8564
86.4864
67.4419
111.088
97.1348
178.626
86.2256
68.9087
78.5732
148.455
167.577
64.7796
78.9312
132.953
95.7297
168.502
46.7751
56.5207
134.416
68.3435
53.4962
74.9677
43.8062
49.144
88.3393
73.2271
377.078
71.1612
88.6249
50.0969
69.545
615.93
78.312
84.1371
59.7258
60.1116
86.4796
85.024
926.963
106.915
407.324
50.8286
59.4975
70.2252
41.7412
48.1778
108.046
79.8487
47.8998
44.7419
307.869
106.788
513.52
118.056
255.364
104.343
78.302
109.078
532.352
180.429
94.4458
77.6691
933.922
63.7043
79.0048
84.8521
81.2895
62.6049
927.997
66.3535
89.0319
46.7627
121.806
54.4966
896.676
992.697
66.4544
53.0556
43.1316
89.037
91.7512
60.3271
1156.25
708.395
63.9734
136.165
472.407
64.0503
186.676
123.18
43.1254
61.2749
46.4222
73.1705
206.265
84.2402
76.719
44.4205
55.3793
73.9643
48.613
331.166
63.4577
143.232
170.793
443.465
334.645
100.682
134.642
76.5838
133.155
116.923
43.1146
599.165
339.449
131.227
90.3868
106.053
88.7707
86.2686
247.202
41.4072
44.862
62.1877
65.0117
135.987
73.4203
354.32
385.425
44.9409
131.226
43.2423
42.6226
80.263
61.1016
62.8728
54.0471
41.7724
246.948
344.465
42.1128
63.6087
250.228
387.598
47.6039
41.9803
96.5016
178.986
917.088
92.4548
394.409
325.206
570.851
392.067
71.708
48.8777
42.3064
58.4304
949.215
56.3975
85.6803
79.6226
41.5753
656.88
1108.01
1085.43
195.073
275.191
50.2405
45.0309
53.2546
83.7489
707.107
575.214
432.335
532.846
407.831
54.1119
47.7642
847.999
47.8092
895.817
95.2422
892.771
79.4259
150.121
105.869
181.829
169.166
169.716
149.552
63.0036
88.7174
70.2758
65.162
72.105
66.0492
1277.15
761.954
90.8449
348.723
637.023
339.286
66.9655
45.5474
600.815
491.204
514.797
43.0352
783.555
49.7547
1014.83
578.321
696.678
288.396
53.3813
61.9345
46.1688
71.1335
86.9656
171.761
73.0523
84.4241
69.3297
93.4618
77.7754
45.5802
47.4786
123.395
44.8738
51.6173
77.6112
100.822
96.5424
85.8722
150.733
89.77
66.9354
126.66
97.1877
89.3282
92.3539
145.705
1007.71
59.0428
331.581
69.0467
88.9514
496.788
63.7708
57.0453
46.9566
112.282
94.2066
54.1547
108.464
100.026
82.8953
45.9958
66.4849
72.5794
71.0148
103.14
72.6505
97.0329
276.561
88.9241
79.3445
74.7063
109.72
77.3761
351.186
43.7332
67.3294
104.396
315.319
257.252
88.6289
100.365
931.543
228.819
185.039
89.7767
71.5506
108.394
87.4026
53.7537
128.743
77.6427
86.733
431.469
50.4251
163.393
127.389
108.274
106.181
200.991
77.3817
57.6069
43.7202
52.9831
98.951
79.4531
448.668
62.2452
91.9055
127.911
103.531
868.548
56.2597
110.585
105.271
269.566
398.666
143.311
43.4772
135.34
65.1965
45.2835
42.5082
560.597
99.6797
57.6009
417.353
128.74
68.1545
145.162
718.482
1122.84
181.3
71.4541
779.877
91.1529
243.757
139.983
595.392
257.468
120.068
93.6803
517.202
90.795
66.5797
83.5373
99.1401
53.7829
62.2611
343.344
44.2144
100.445
553.169
155.133
566.47
88.0103
440.946
48.6224
1142.43
105.892
106.079
649.511
243.019
300.821
517.395
432.558
262.182
71.6267
72.9836
416.703
55.3639
84.9763
319.611
66.7535
56.9361
77.2552
163.404
70.3319
49.9187
735.24
485.188
185.551
281.618
166.345
92.5731
80.7274
80.8761
113.051
75.5179
57.2026
85.8912
63.0505
280.041
289.816
127.797
54.1591
104.804
81.0639
126.275
105.058
97.2593
78.9171
280.353
58.3985
66.6441
272.345
131.248
587.71
201.424
98.5083
736.101
137.34
111.857
368.946
133.894
128.135
49.5947
524.191
42.2493
56.3734
50.376
85.302
67.2743
99.7325
231.484
104.709
119.618
80.1274
110.546
99.3179
42.3659
376.358
153.35
573.706
1041.91
108.542
393.97
142.477
69.3098
443.994
67.8712
60.8239
103.67
123.27
696.102
481.629
53.684
316.298
350.762
94.1622
1932.94
402.993
152.634
360.166
61.7116
88.3922
242.741
336.999
145.669
734.618
53.26
51.883
154.251
50.6076
48.1241
106.157
323.294
558.712
47.7083
137.91
43.2215
144.359
62.6503
143.761
320.895
93.1956
313.081
59.6348
63.398
776.036
44.1218
53.6066
104.197
53.4064
122.351
249.427
46.0791
940.51
554.107
868.333
478.706
119.396
66.4513
52.963
61.7952
85.5243
46.3946
84.8542
148.416
61.7922
69.8981
658.099
45.4656
169.736
43.7997
136.115
71.4635
727.967
127.407
114.106
44.9779
128.965
150.505
48.7822
59.8627
97.4162
42.5977
196.367
96.5472
103.937
54.8109
44.8439
101.309
46.0969
126.574
447.112
44.0791
75.2749
50.1232
62.6696
290.097
215.783
122.68
458.292
858.475
295.488
82.8741
429.437
324
651.236
74.1338
210.977
298.152
341.652
307.006
823.286
54.1808
44.3685
209.349
728.458
53.2341
434.026
119.979
452.368
79.6748
65.262
659.524
586.253
288.477
56.7874
271.278
130.192
368.339
44.1302
200.919
63.7409
56.5573
94.352
95.2259
288.37
102.097
63.4192
160.438
79.2913
272.177
406.192
43.2911
77.7486
53.4199
858.611
94.94
130.708
214.101
136.668
71.0545
43.4391
90.5736
75.5095
492.713
42.8205
104.321
312.135
64.3789
49.6155
76.9666
73.4396
685.021
137.411
209.694
94.8387
73.3408
965.462
579.538
59.7062
142.494
59.8753
47.7932
409.307
92.0611
537.309
56.4078
50.3582
93.8849
58.0113
46.677
60.6579
70.9993
135.42
255.894
252.853
379.55
69.3377
71.0783
46.8551
169.902
614.13
941.347
66.9455
407.032
178.173
686.353
76.3771
347.308
109.553
173.85
129.24
80.9291
256.227
76.6661
192.065
112.94
59.5212
1019.59
107.579
488.615
107.394
77.4921
108.514
160.187
69.7738
67.771
374.339
104.438
120.659
57.3153
122.704
486.911
125.61
79.0142
157.127
46.4719
62.961
44.3283
74.4017
77.2009
147.037
69.5232
92.8245
95.401
74.4359
75.3877
63.6737
73.2028
59.9165
418.552
48.832
106.915
48.2339
67.0513
121.621
72.7424
53.6368
77.9307
98.6815
86.2483
125.197
347.683
46.9929
182.18
442.017
158.582
156.246
50.7232
156.802
92.5922
333.636
64.4604
44.1558
52.4173
169.679
54.9783
65.7878
869.974
222.023
373.499
44.3248
50.5968
191.15
81.1304
55.6359
135.116
49.1072
78.9009
53.8889
392.804
44.9801
154.56
44.9757
43.5875
75.1781
66.8417
132.014
106.125
42.3885
302.943
63.701
66.7105
88.6036
806.058
64.9107
61.7965
124.55
62.6166
57.1981
121.482
60.0643
51.5782
107.57
212.917
124.556
82.2079
403.427
108.708
239.686
48.5037
182.4
63.7015
94.1891
238.87
49.3468
121.127
66.0741
82.1149
153.807
70.9645
569.9
111.535
44.3854
519.726
131.392
979.094
306.042
221.451
85.8403
93.0707
122.129
368.411
59.3604
448.009
92.3189
351.901
65.1719
417.57
63.1097
253.288
219.08
121.219
328.406
532.597
366.701
1111.03
537.594
372.784
467.954
456.525
324.474
42.6268
94.6417
336.501
68.8755
650.893
58.1049
510.545
620.721
117.002
99.0369
75.319
43.6098
113.551
47.1093
250.461
130.426
82.656
187.309
84.4351
153.03
71.9621
53.9117
110.46
48.4695
217.305
47.601
68.369
704.846
65.3576
42.7155
103.183
63.6666
818.951
294.973
73.65
70.5087
172.248
49.9853
85.1484
49.3636
50.3626
104.108
75.5686
54.9323
62.0826
318.366
87.9925
54.0462
43.1154
43.9331
45.8862
205.044
71.1655
94.4232
53.441
82.6604
97.7632
55.0635
222.57
71.9441
47.6585
59.1839
82.308
135.204
110.647
98.6699
49.8421
119.006
84.1754
51.6129
51.0428
75.5293
86.2621
101.867
67.6289
121.859
65.5908
90.2645
115.367
306.052
773.626
1113.8
120.895
60.094
516.344
169.069
203.912
44.7162
50.8028
43.1308
89.537
71.9368
43.2895
44.0028
44.7288
109.942
42.193
47.4282
42.6895
59.4051
190.013
51.9208
112.095
52.0002
96.9951
238.323
59.3952
53.5479
65.0296
1084.09
861.67
99.8161
67.1174
68.435
59.036
105.097
466.891
62.8318
67.2021
89.9622
42.5904
94.3177
49.9607
88.1131
110.784
90.933
61.9383
201.787
265.052
63.246
2063.03
269.376
197.518
61.5134
84.2033
98.576
113.647
54.2726
74.71
298.836
45.3501
189.92
633.653
104.329
122.902
617.041
63.7977
78.938
90.7823
42.4035
115.932
406.87
91.1922
91.775
460.654
223.031
1041.24
626.451
99.4105
48.1775
138.984
67.8164
186.043
151.044
565.392
49.8488
45.6578
641.573
53.0378
191.199
78.3135
102.757
660.615
765.112
50.3362
43.1347
918.341
49.9585
53.4737
65.8221
48.0145
80.946
158.944
273.403
61.0426
578.187
103.284
51.6078
84.3116
722.113
78.6611
603.33
65.1572
61.5771
85.5154
84.0983
59.8845
116.387
64.608
561.688
116.383
120.286
526.263
121.645
53.2286
720.279
115.186
104.288
84.6387
175.448
106.484
79.9156
44.5738
265.408
72.8614
71.7344
63.9428
125.651
84.3646
58.7946
45.5195
67.4906
144.562
72.1632
65.772
79.9679
486.268
72.1601
71.4533
69.3985
92.4575
46.171
63.9762
63.595
131.275
104.753
140.993
147.632
89.1669
465.118
63.4636
56.3382
434.253
391.625
485.406
88.3912
331.81
52.1035
557.01
94.1511
300.659
95.0798
43.8989
113.847
197.419
92.8643
69.8753
43.0033
63.5103
416.271
63.7399
49.4508
53.5778
1412.53
290.704
44.4814
1462.89
562.763
325.306
244.134
673.701
270.181
76.7885
269.123
87.7426
97.4318
391.53
913.98
62.3175
44.2152
54.4134
486.587
45
913.326
140.203
127.496
147.025
123.717
331.961
42.3303
114.517
122.043
55.862
103.898
53.3807
119.454
2017.13
1830.09
820.67
97.3526
707.1
43.128
49.112
62.0385
99.6476
44.2032
55.2355
43.1257
73.9262
89.5035
47.1894
54.4904
75.9163
46.558
100.393
119.749
43.3185
114.015
119.68
43.4967
53.0178
870.412
55.8473
847.458
597.356
124.34
131.28
83.5817
122.065
68.3738
51.833
614.937
58.5117
57.1231
47.435
50.2146
77.9093
137.81
132.844
174.252
112.831
46.7265
570.196
60.7967
327.572
394.437
63.6796
424.332
83.1622
53.4427
60.8327
57.4089
62.4521
46.4524
128.196
50.7961
318.757
220.18
342.356
56.7789
56.5856
82.9007
294.442
500.31
93.6984
146.567
64.3243
277.466
64.0656
179.31
426.103
83.7288
56.2458
91.6085
931.333
62.4664
59.133
119.306
47.2366
136.775
124.144
143.523
84.3273
304.309
169.947
416.101
71.3847
279.845
427.813
311.241
53.4694
173.562
88.6028
102.069
53.6079
65.2144
62.9467
493.762
85.2588
98.0603
300.35
82.2136
62.4384
96.2043
45.2465
141.675
48.2482
63.9993
163.377
103.559
78.6098
164.735
96.9948
94.9942
80.2491
125.274
44.1086
295.335
239.184
105.372
103.608
44.7367
263.974
59.5872
43.9598
84.63
46.5756
106.856
88.5142
50.2696
55.2749
98.3101
294.375
221.96
49.6423
810.183
44.3517
97.5321
94.8077
48.1617
764.071
146.852
662.703
49.9538
67.7787
537.682
676.673
86.4563
101.162
186.59
127.983
49.0413
102.581
63.2083
144.342
81.8425
132.851
49.8271
134.49
100.09
105.513
60.5931
87.5037
42.9539
59.9911
592.965
412.508
105.295
107.618
99.5171
85.6775
85.2216
163.336
43.7282
49.5891
59.4687
85.6663
80.1616
66.3482
110.901
51.4436
58.0836
51.8441
71.9845
57.7768
69.2184
195.436
87.6949
67.7924
964.003
77.2276
64.4197
77.8318
43.6892
82.5641
205.643
45.6559
74.6498
80.7322
403.782
64.3298
63.3134
94.248
1440.68
94.7965
156.597
117.884
64.9727
78.2072
78.7525
62.2604
856.529
93.6794
68.3195
63.0401
42.7594
283.087
45.9199
349.911
422.337
112.119
72.6608
59.3146
118.011
87.3173
56.2052
439.51
118.783
294.351
43.1823
137.625
503.416
119.028
48.7653
98.8421
53.5583
497.79
56.0576
54.5663
89.0423
42.4128
60.0917
87.5471
51.4418
409.447
42.4783
383.338
45.9003
72.443
66.622
147.383
85.9921
124.749
112.684
573.769
110.888
117.881
74.6094
44.5807
104.255
58.4541
52.7439
79.9028
75.5903
62.8415
121.582
46.9013
66.1009
47.3295
297.44
86.6833
580.783
549.866
316.253
155.606
67.8332
70.4166
60.7409
191.946
89.0898
43.6272
42.0346
112.185
147.492
46.0628
70.7724
1030.46
129.666
65.8483
74.5201
464.308
837.729
59.1503
554.985
545.304
200.115
373.533
160.645
547.413
71.7852
216.668
738.918
74.3544
42.1312
61.4787
109.369
314.287
42.962
44.1147
70.6085
141.495
152.486
874.18
108.241
1054.5
118.437
69.1766
83.3867
76.3082
76.7817
500.845
206.004
400.765
469.348
66.4879
355.712
1098.72
65.6668
175.218
119.38
406.163
150.228
130.167
694.52
1031.83
108.845
628.283
124.739
437.713
80.6703
43.8404
151.352
801.131
694.776
62.4694
100.856
144.984
99.1186
258.291
48.5154
72.4642
964.059
370.773
345.681
72.4821
327.943
66.1675
342.811
55.6069
117.364
184.753
286.094
86.7755
122.74
278.442
105.623
850.962
71.0099
59.3382
399.346
46.3843
143.933
44.9631
54.6788
42.9055
80.8421
431.104
436.567
320.252
58.1806
63.2911
312.805
56.9382
522.656
72.3562
53.1224
79.8939
210.117
153.844
633.953
50.2506
72.0089
63.096
269.89
99.1232
577.579
910.458
423.582
104.579
59.9982
433.709
323.432
149.819
46.5271
61.3449
42.421
683.968
282.223
436.319
1160.17
240.455
93.7632
78.8156
768.797
411.101
62.8412
87.495
100.837
363.123
60.5706
47.2859
88.218
80.8085
770.041
265.734
222.055
221.251
326.396
322.347
161.042
88.8272
828.234
395.436
713.576
200.302
356.904
668.886
149.472
57.385
107.774
58.149
59.2314
78.8899
77.5055
134.17
288.827
84.0729
178.333
181.742
146.327
113.022
190.915
115.04
103.066
128.171
770.966
1122.01
414.21
69.3694
117.322
82.3126
244.376
588.729
156.52
573.605
80.1133
481.859
411.693
173.483
47.0731
43.187
69.451
63.5986
709.384
95.7969
58.0264
461.79
71.6634
870.556
466.439
108.055
467.385
63.473
45.1453
45.8897
42.5951
96.7709
60.3887
89.7945
128.713
72.6706
45.1326
141.332
626.949
542.997
43.7269
105.452
47.9715
62.0938
56.6254
646.873
47.9093
54.2992
52.916
103.581
45.3531
54.6038
99.4139
55.8459
58.0546
52.3464
239.318
43.7635
56.1904
135.317
408.453
331.608
63.6282
483.158
685.324
53.5537
52.2499
164.63
78.3665
334.281
71.5205
90.0224
82.4254
244.584
67.6009
90.2632
1014.29
507.8
83.4241
627.263
45.9791
46.1448
60.9931
45.2088
47.0865
70.0816
53.0207
79.8154
215.876
88.5184
331.898
245.152
200.658
80.5354
42.9983
538.953
128.994
82.1608
536.542
100.822
687.858
60.9353
423.154
44.2661
183.252
85.4906
223.645
46.4974
84.7729
76.4285
587.013
49.0445
42.7161
194.872
80.9662
138.432
60.514
73.4288
91.5375
46.9576
141.629
48.0899
63.1369
145.859
93.9285
353.736
68.2602
45.3269
60.8473
44.1413
51.3629
309.258
42.6055
96.175
43.1748
218.224
113.802
49.1991
109.631
110.97
56.0801
70.3419
75.6998
126.927
146.449
51.0018
48.369
90.6938
66.3649
283.937
628.518
506.879
59.5973
44.5448
58.5537
64.7438
89.0225
933.173
236.701
62.9066
52.5963
77.539
45.8059
47.9727
75.8908
153.373
203.36
513.453
351.209
56.5025
78.3226
71.7964
42.7544
219.916
71.9974
117.759
112.327
48.8877
990.67
76.7641
57.287
70.16
73.1517
157.943
615.165
44.6234
454.522
54.1249
730.152
125.213
532.973
69.1719
43.4316
60.3296
104.677
48.2344
48.5082
123.911
44.2371
43.5003
54.4233
60.9067
238.058
52.2611
750.824
70.295
59.9784
157.115
171.477
48.3929
395.768
957.787
740.997
475.861
432.591
54.9746
380.935
288.008
72.055
56.9607
52.7553
659.665
89.8383
95.4831
48.0995
78.4192
278.005
776.371
159.881
85.7902
45.8471
65.0397
209.565
45.1285
55.6233
618.666
451.649
232.237
769.12
73.4383
46.4038
69.7288
80.6496
1130.22
50.6346
45.6604
43.0558
265.561
46.4042
49.8266
90.1464
100.019
44.4378
111.986
45.6263
142.596
85.524
140.633
49.5829
238.232
86.736
111.172
160.956
109.931
207.569
48.0516
623.159
93.9374
278.161
303.003
307.549
85.4757
128.091
207.405
65.3842
44.4221
50.9522
53.3219
85.621
570.677
115.417
45.8987
81.975
64.802
48.4082
119.637
61.9851
133.659
102.757
46.4101
96.9547
48.3017
78.4423
297.506
593.599
71.5963
99.1596
79.7914
102.805
519.69
272.784
420.462
835.294
140.676
46.2542
47.8194
43.644
104.116
822.075
79.2072
754.945
112.988
44.2847
116.939
449.721
45.6591
46.0378
55.2254
74.0711
59.7938
235.681
75.3967
90.0314
319.032
52.8851
96.3248
65.7754
128.299
194.794
50.679
693.075
81.4732
108.568
54.6892
125.31
45.6819
134.551
123.23
93.6675
90.2495
80.1126
66.101
69.7945
49.754
224.583
61.8597
49.8667
114.388
197.735
228.532
165.144
98.1016
109.891
193.761
70.6741
262.496
131.163
131.98
99.8659
103.495
136.503
72.4562
158.69
348.23
98.1564
53.0328
48.7436
271.152
88.6118
100.38
49.1566
98.6994
87.5186
48.0096
92.8492
411.939
97.7089
71.1848
84.9648
665.581
76.6555
88.9058
147.362
58.1149
153.722
46.8164
781.869
85.4606
77.7595
81.5588
54.4448
111.945
54.4864
472.762
43.1571
75.8007
661.94
59.499
108.087
196.157
98.6636
49.1987
596.283
59.0949
44.2405
102.615
128.843
61.1722
337.848
44.483
345.074
97.2607
43.397
69.3366
115.688
727.395
182.328
71.72
43.6658
130.582
408.991
332.88
115.941
122.9
972.371
212.592
261.566
126.975
80.4556
101.888
59.7943
514.706
1055.51
152.996
159.543
100.198
1131.59
451.893
547.235
394.075
185.386
64.533
50.0857
152.802
73.7492
549.118
305.67
73.8174
921.099
105.812
118.674
71.0112
50.5337
104.412
86.8487
90.1659
80.5072
149.126
184.326
874.499
57.3934
119.11
639.726
614.609
182.268
175.517
61.273
613.057
47.4577
65.89
342.227
148.443
43.1503
330.546
424.729
72.5133
122.815
48.275
92.7785
54.9936
80.927
172.448
80.9256
609.553
44.036
50.0257
85.6644
474.784
172.938
122.289
161.394
279.096
120.647
78.1631
436.445
107.294
68.4476
211.988
794.477
227.628
59.5226
352.763
160.407
93.9181
65.6173
127.82
46.93
110.863
79.6115
73.1154
63.7164
60.0817
85.2868
43.4017
43.2976
49.4743
100.246
49.8039
160.565
389.462
731.831
94.77
88.2752
59.2813
48.3908
102.381
642.291
51.7033
142.282
71.966
238.012
66.9432
140.787
220.221
437.622
47.7936
57.282
278.521
52.9009
69.358
141.146
95.9661
406.101
87.0633
241.064
473.327
198.432
639.123
197.361
379.497
98.2453
168.523
146.579
53.5084
491.299
141.517
83.6517
176.185
102.775
92.9907
43.4599
51.6503
49.2903
44.6056
87.7982
348.638
42.3365
951.958
109.526
350.776
113.48
381.591
1082.19
54.8516
248.39
813.395
155.587
351.405
76.6411
69.7894
762.92
996.315
289.363
168.404
51.6933
465.21
103.053
632.897
52.9772
53.1005
243.679
1014.22
61.0199
84.5675
50.7384
242.699
526.02
47.7338
444.682
200.731
537.705
719.217
49.529
341.414
73.9922
649.181
305.626
199.38
428.522
263.528
513.706
346.832
228.878
82.0609
78.4939
73.9444
48.6038
53.6251
1429.6
74.2206
111.675
79.7035
80.7923
141.068
1179.01
152.714
212.636
292.895
157.334
242.123
124.007
43.5445
78.9365
1058.98
640.005
306.194
192.126
250.97
88.7163
492.565
60.8339
259.995
354.539
58.0483
549.001
90.102
313.598
309.241
177.705
260.112
263.43
163.028
49.678
133.333
60.4074
560.158
72.2985
195.225
83.9571
269.198
54.631
67.0532
324.732
119.33
279.622
44.5456
1372.15
46.1339
59.0209
57.5401
54.2125
99.9219
520.678
185.81
102.379
656.351
73.5886
49.6408
56.4103
872.168
90.2889
99.2258
847.489
365.799
910.091
547.77
180.66
254.722
157.048
185.375
729.224
65.7795
440.542
141.602
66.1199
180.021
64.29
159.304
78.6469
662.862
468.768
573.842
371.394
296.965