/*--------------------------------*- C++ -*----------------------------------*\
| =========                 |                                                 |
| \\      /  F ield         | OpenFOAM: The Open Source CFD Toolbox           |
|  \\    /   O peration     | Version:  2506                                  |
|   \\  /    A nd           | Website:  www.openfoam.com                      |
|    \\/     M anipulation  |                                                 |
\*---------------------------------------------------------------------------*/
FoamFile
{
    version     2.0;
    format      ascii;
    arch        "LSB;label=32;scalar=64";
    class       volScalarField;
    location    "0.075332";
    object      p;
}
// * * * * * * * * * * * * * * * * * * * * * * * * * * * * * * * * * * * * * //

dimensions      [0 2 -2 0 0 0 0];

internalField   nonuniform List<scalar> 
47425
(
0.477882
0.663687
0.0554916
-7.95535
-24.9827
0.0612001
-22.8534
0.0450018
11.5763
-40.8426
0.0184031
12.0394
-18.0734
0.0153555
-3.77148
10.7711
0.0468474
22.5661
-119.112
-40.9192
0.983759
14.1812
-0.0281628
0.738831
12.9496
0.678933
0.0625039
-49.557
0.0388976
0.164686
14.1449
10.9224
12.2239
0.340098
0.0402724
0.0309338
14.9167
12.0012
5.25056
0.780749
0.996889
-3.85061
0.571826
11.9189
-42.0165
0.896828
0.0709903
11.8125
0.676318
0.420606
42.7912
-1.91547
0.233929
-37.2826
0.520785
7.03305
0.569095
0.1033
-10.8877
0.110479
-39.11
-37.0693
-58.1313
19.4067
11.4242
1.44322
12.3014
-4.20707
-47.3459
21.4237
2.10101
0.593432
-0.57301
1.14385
-50.5126
11.2551
-57.0207
0.168839
-66.7022
-25.1358
-52.3978
8.93524
19.3121
11.1381
1.3362
0.11769
-0.706314
0.775736
-6.5902
-30.8827
13.4234
0.387394
0.425301
0.117704
0.178608
0.473316
0.334298
0.241877
0.480286
10.0964
11.0165
19.4292
7.76282
44.2615
7.80735
-1.0233
0.918639
0.440956
1.07661
12.2729
-34.5464
11.9177
-1.41726
0.173394
-2.76572
32.1569
-2.35296
43.9804
6.53958
-5.46908
0.12817
12.2467
11.7879
-11.3694
9.74891
-2.97024
0.272656
11.316
0.72196
0.548991
20.1694
-0.846287
53.0657
6.58574
-3.29475
-14.2248
1.16891
-2.8685
9.77143
-2.41043
12.2882
-5.44247
4.50116
-2.68394
9.7309
11.3766
-23.7785
11.5451
4.51243
12.1727
-2.10533
35.1293
11.6161
-10.3317
19.7869
0.901734
-0.773684
-127.207
0.364444
0.243048
-4.25521
0.782758
0.503089
9.42621
-53.4039
-95.2417
11.6005
-51.2358
0.683177
-49.9307
-51.5237
0.49425
11.3702
16.9574
0.316169
12.1483
24.8673
0.0282846
0.143776
0.299493
18.2359
0.793023
0.0695682
0.175076
0.283178
11.0034
8.79663
47.8458
0.380827
0.713067
12.1286
0.398311
-13.8862
12.3538
0.336936
-3.52599
12.3366
0.59741
-4.27693
0.391991
0.267698
-0.472134
1.47193
-3.24543
7.28239
0.385931
0.0265638
-2.75903
10.8763
11.2625
0.414805
-3.69984
11.3356
0.774054
-0.378814
-4.64794
0.300551
-29.3614
19.8821
12.1371
-27.5866
-6.17147
2.07117
-0.0100527
0.733896
-25.4187
0.389082
-4.43268
-6.74886
-11.2279
0.650347
0.137636
-0.277591
11.9587
0.122726
11.058
-30.3964
0.477479
-27.5017
0.130156
0.0801253
0.343823
0.438254
-7.91338
6.74935
11.2655
0.371922
11.1623
0.553338
0.0847799
0.767324
-23.3775
0.048732
12.3152
0.25111
0.138004
13.5096
0.226293
6.10207
11.1956
0.195358
11.8526
8.41218
8.32696
-13.7655
-0.165364
0.0626281
-13.5824
0.362372
8.35203
8.92129
-27.5972
-30.1486
8.85155
-25.19
9.02173
-26.3909
32.4931
-28.6181
30.5045
-35.9751
0.645477
-40.9007
0.586917
0.527419
-5.30515
0.534842
0.0111405
1.05416
-2.52639
53.5535
18.3014
11.4494
0.10306
0.0754816
10.1435
-6.37273
9.19669
11.6739
-11.6101
0.611875
0.67268
0.126766
0.0521385
-48.1639
-61.3576
32.8771
0.362879
0.508588
9.96886
9.25759
45.5465
-0.0110974
-0.00998495
-19.8822
0.458598
0.394156
0.209263
0.169792
-34.3914
-18.9279
10.5627
10.2316
0.0665976
0.175205
0.0146971
10.4558
0.677029
0.469716
0.116401
-8.3348
-55.3065
3.43559
0.113476
12.1698
0.0275231
-54.4055
11.8882
0.526235
0.656572
10.5243
10.3046
0.883509
12.1476
0.469054
0.0167758
0.165186
14.6238
0.0310918
0.199103
10.7972
6.01477
10.8994
11.7811
11.2183
-3.55701
0.353661
18.839
11.5683
11.5451
17.406
-6.00912
0.665664
0.104788
7.15437
-0.655029
0.116744
11.5882
11.8767
8.53781
0.0824034
-44.2605
-0.82783
9.65935
11.3896
9.48515
-5.03428
10.8913
11.2584
14.5188
11.1791
9.45107
0.708188
11.7422
0.831634
11.7729
0.093556
8.8287
12.2184
0.100341
4.88178
6.2979
0.0277606
5.66101
0.400771
5.45471
12.2189
0.0531652
-14.8179
0.258137
-32.384
0.396437
-36.916
0.220424
1.10985
0.226242
0.183241
0.177876
0.0256303
0.138269
6.29649
-55.5828
55.6526
0.666161
5.82007
3.04796
1.50454
0.617981
0.0461113
0.396215
0.150035
0.560318
0.765589
1.43912
0.0391775
0.0555609
-9.42162
-6.67509
-3.15608
14.8522
-54.8683
-0.557168
25.0647
-54.2403
1.16443
-56.3509
-34.9643
0.619922
-1.55187
-0.532988
-4.62336
-57.765
0.397525
0.647386
0.433094
-5.19427
-2.85838
0.693731
0.809975
-28.4119
-55.8597
-28.4927
12.0583
17.5412
-4.38732
0.637755
-0.559397
-14.8947
-0.359331
12.0287
12.2931
12.3104
5.84256
12.2306
0.679382
9.47802
0.187937
-2.4851
0.522568
0.432509
12.0942
12.2132
11.0897
6.96389
10.2062
0.630175
-1.56233
-28.4467
11.1601
-14.8533
12.2533
-2.81663
-10.716
11.8515
0.592218
10.3019
11.5882
11.1721
8.18492
0.502931
-1.66946
10.4285
0.556009
6.36021
19.8943
0.664009
12.9245
11.083
14.4139
0.647905
0.278
0.847192
0.0819556
2.56677
0.0248225
0.0994016
0.665927
0.855214
-1.58072
0.0943204
0.0855567
22.5429
0.00607934
1.18364
0.902168
0.682899
0.088034
0.216764
10.2675
6.52297
11.3506
11.3493
42.9557
0.128354
0.0331941
11.5788
11.8064
-21.8373
-25.5956
0.34247
0.878878
0.845488
-11.9284
10.9106
-28.9138
12.2212
-31.0124
25.7695
18.6705
0.0993267
-22.8405
0.274877
0.673158
0.337005
1.54277
0.0770048
0.56403
-55.499
0.256583
0.00565923
0.307375
-20.1245
0.627642
0.0979965
-20.4765
-16.754
0.211295
0.214491
-30.2232
0.350006
-1.6046
0.130708
0.381192
0.354883
-12.0903
-13.6794
18.4801
1.08419
0.718884
0.0520988
-29.0591
17.4943
1.61842
-29.9636
0.117116
0.228574
-30.1981
-42.53
12.8849
-29.9673
-29.9492
0.175251
12.1719
0.115777
16.0287
11.1477
0.0468398
-45.135
10.5945
0.0316217
0.48562
-17.9794
-11.2989
12.215
5.56497
-51.4351
-27.1829
0.859054
0.443177
-0.14891
1.74094
0.496901
0.516558
11.1429
7.23628
12.2105
-3.02839
11.3552
-30.0721
4.80869
3.01876
-31.8538
9.89262
0.466589
6.53613
9.33957
0.473999
11.6143
-3.80274
28.3511
11.3744
-2.0451
1.03163
-78.8146
8.37474
-13.5887
-44.2945
-45.1205
0.220889
0.77116
-47.2998
0.0248137
2.81492
-29.8436
11.6675
-41.0468
0.135491
0.178316
11.4788
-37.8489
12.3187
12.3894
0.382263
0.207389
0.652091
-0.00926981
0.552434
0.837637
0.0579884
-33.9753
-28.0637
1.09285
13.3957
0.206694
17.2038
10.6723
12.2976
12.2969
12.3574
12.2866
18.5918
2.10715
12.2243
8.8192
-5.95737
0.113215
-58.9121
-31.3564
-0.00177529
17.6339
3.75577
0.149961
-59.8501
-0.00272335
-52.6756
0.372937
-15.487
-15.8502
0.564448
12.6684
8.72891
25.1082
0.232729
0.47782
0.0498865
-19.6097
12.1565
-18.7516
-0.066096
-56.9393
-14.1193
-0.0709547
-16.7482
12.2458
0.688717
4.99462
0.0862213
-17.9584
12.112
10.7827
-17.2999
0.214264
-0.120578
0.0275341
0.563662
27.617
26.1054
15.1776
14.5724
0.0910768
-0.0244914
1.22732
0.121519
-2.30198
0.101874
0.66823
0.0617628
0.756787
29.6953
-13.4565
-0.00805246
11.0585
0.63953
0.631115
0.646707
0.0102089
-4.47754
-26.8221
0.713226
0.225155
0.0481464
0.758511
14.2019
0.0929972
-0.486981
0.604673
0.576001
0.784365
17.4708
34.5082
0.638605
-29.3684
-12.2738
-35.5976
-29.3222
0.002634
-6.83451
3.66061
-0.222064
41.3585
-30.0127
53.7116
-13.0512
0.165854
-22.423
0.33008
55.8736
1.1895
-0.587726
0.921708
0.195279
-13.18
0.921591
0.629341
0.695735
-30.2214
24.7577
11.5305
11.7994
43.6972
40.0312
-17.8211
-47.8214
-29.8629
45.1291
42.094
11.6868
0.458072
17.1574
0.355977
5.65639
-30.135
0.51473
4.85319
6.16404
0.314578
-30.8125
-30.6013
0.127544
4.97885
0.675416
0.378328
6.2011
0.336971
15.3171
0.0285879
0.551946
30.7334
0.132011
0.0540519
0.118259
0.291
0.257565
50.754
-21.2218
0.0974974
4.19371
0.538051
14.9972
15.4544
-17.3064
0.299342
-28.8609
-18.7543
5.36069
1.50265
23.0686
-44.6488
0.0506232
0.0373196
-7.6952
0.641949
11.8676
3.34303
-0.0101949
12.3873
-32.6127
-19.4142
-45.7951
12.3585
25.5273
0.132228
-12.7817
16.7343
-18.124
-0.0105339
18.2638
-36.0074
-9.18642
-19.6871
-30.163
-18.2646
-0.273387
0.0807344
-14.2351
0.0313243
-19.5241
-28.5455
0.00880528
-21.4437
0.71925
0.785194
-39.6549
0.696486
0.419726
15.4223
15.0843
11.3089
-25.962
-8.072
0.820039
-12.7491
46.6959
-1.2591
13.386
0.936099
-0.985786
0.715601
0.667621
-31.5682
-56.8257
-10.943
-1.08949
-20.2562
-21.2471
-31.1511
5.76982
0.6405
11.9288
12.1178
0.726081
-13.6216
15.8556
22.8675
11.9831
-29.1548
-18.9483
2.20729
0.52847
0.404657
0.296563
31.8452
11.706
-21.6711
0.202412
2.12949
11.8123
11.7962
11.6956
11.5023
12.0238
-21.3683
-4.29517
22.9749
26.4989
16.7064
6.38129
-2.3774
34.3706
-0.446426
-9.1366
-1.31327
-17.8971
-11.7462
-12.4865
-1.4866
12.028
14.6218
11.8354
0.35736
-36.5986
-33.1241
-44.8015
9.89178
-10.6236
4.80717
-21.8756
0.47957
-39.5261
0.439139
0.254564
-11.6851
8.35892
0.377389
9.05408
0.343071
4.41421
-12.8891
0.592461
-4.16245
-26.9718
-7.07497
-2.32463
16.3209
49.1643
-53.9017
39.7836
-29.6835
-60.0719
0.314948
0.537881
23.2753
0.389366
50.7283
0.423863
0.356144
-56.0744
14.2453
1.44575
0.402761
11.6091
21.3045
10.1511
0.526886
12.6557
-21.2731
9.03164
12.5331
12.732
12.2512
0.588919
-15.902
-8.52975
28.0637
13.6917
0.590683
9.77209
0.442977
0.463758
7.34106
-11.816
-4.89738
-12.6889
-12.512
9.78152
-43.7193
0.546386
0.511764
0.494464
-48.7768
-50.6151
-28.0395
-29.7604
-0.455077
-1.48107
-41.2063
-30.759
-7.07849
10.9121
0.525265
-0.20966
-42.7029
3.20452
-2.82565
0.698978
8.2532
-0.141424
30.9708
-113.526
-17.8855
-33.4018
0.761002
53.5821
-54.5193
1.16134
10.0958
1.54867
-34.619
10.1327
-6.83098
17.0039
-29.0122
0.329773
-30.8836
1.46324
-12.8335
0.102728
6.32664
-32.848
-31.5884
9.43287
18.1212
-13.7317
-47.3553
8.84245
0.505074
-33.3332
-41.1896
10.898
8.18794
-62.4451
-54.5788
-43.725
9.60767
-11.2559
-24.6971
-43.6227
9.06148
24.274
-22.7678
-10.8099
-8.63551
-30.416
-41.9741
-6.83555
7.12112
11.4651
11.6969
13.0616
9.42491
-4.54288
12.2175
12.1779
13.0682
-0.567045
-28.9358
-39.1562
10.0721
40.9483
-21.9812
10.5617
-18.3173
4.96937
9.45349
-11.233
-3.80792
9.61388
8.52637
-55.8536
12.5835
-37.0595
-56.5905
-37.1514
9.14765
-13.0711
11.1138
1.02531
1.5074
-20.4626
-42.098
0.269541
-30.5423
-20.9393
58.6652
-24.2748
-48.2068
-31.9036
-0.0234046
0.305298
-44.5756
-0.807604
13.9896
0.0449713
-46.1625
-42.7588
-0.0102561
-0.601786
-36.143
-14.3732
-44.6763
44.4157
0.304316
-5.83247
-48.1865
-1.15308
21.6593
-34.1061
14.1028
-59.1958
-19.8425
10.2005
0.309526
0.237145
-0.252326
0.32267
-0.0941258
-1.30174
0.30668
6.4905
33.5831
14.2828
23.9805
-21.3739
-11.6249
28.2104
-5.31277
3.44016
-14.3705
12.3818
-71.3477
0.634344
0.184608
0.745443
-40.5705
0.552087
-61.3886
0.636885
5.79842
6.37402
-55.7172
49.8995
-30.7752
-26.2977
33.5741
-5.4388
11.7001
-11.1181
-27.28
-28.7532
-29.0374
43.1421
11.5557
-19.9192
-30.8118
-7.25873
-7.33695
-40.9205
-31.1182
1.96522
-17.396
11.4283
11.7068
-24.2803
-48.6444
-2.62017
9.36679
11.5879
-55.1055
11.7293
-11.9331
-14.2022
11.7139
11.9631
-23.9833
3.08228
49.2798
-22.8164
2.9103
29.0156
25.8528
8.94363
-89.8203
-43.3062
-18.1177
-119.691
60.4226
12.0305
-21.6535
12.0338
22.7214
-59.0464
1.93809
-57.64
-30.2316
-4.8211
20.121
-9.34847
11.8824
11.9331
14.3843
-23.5487
2.78624
0.15305
25.3775
0.246358
-13.816
12.5069
-15.092
-2.3295
-26.9782
14.9757
-61.3002
-44.2201
5.06738
-39.4119
-29.6902
0.139405
47.5436
-39.1621
-5.94324
28.5969
-12.9599
-19.7497
-26.3109
-35.1022
6.56963
-47.8114
-24.0846
5.07207
-3.1577
0.527378
-26.5165
-5.51037
24.0883
-16.7315
0.507734
23.5436
0.61811
-63.6854
0.136316
0.156383
-8.54949
-25.9898
20.3312
-9.53465
-15.6107
-9.6194
-58.7231
0.0854814
-15.4809
-67.7359
0.671279
-9.90766
56.642
-8.60152
-32.3547
-53.4223
0.151401
9.45917
0.00124829
-130.572
-29.799
-28.2476
-29.2656
18.6065
-7.35056
-1.63001
-41.2164
-52.2334
-17.3704
0.343011
11.7607
0.931225
0.466948
1.39568
52.3557
12.1576
11.4736
-10.018
0.475224
15.032
12.3309
21.2552
11.9099
0.30715
21.0585
12.7821
9.56059
-19.7065
1.18671
11.2028
9.06713
-12.6062
11.2846
0.490141
0.762933
9.78624
12.0521
12.0424
-56.1911
11.2449
16.9665
0.82877
0.282737
-27.6952
12.9491
12.4666
-53.6881
-50.9363
57.7597
13.8687
-55.1269
22.584
0.751505
-51.4028
8.95092
-53.3858
0.419608
0.399306
11.7819
17.9603
9.9528
0.510646
0.486383
0.939547
5.38338
8.10241
0.706747
-21.1781
0.630009
-14.9428
57.0171
11.2751
-47.7731
-13.4109
-73.825
0.751086
10.0153
0.137987
12.6668
0.665292
11.339
0.929227
-44.2202
-27.0336
-40.2758
-5.72021
-12.8387
0.920448
1.30307
-33.8194
1.14427
-54.6399
-2.65747
-49.1781
1.11922
-60.4361
-89.6736
-0.556794
0.0736101
-34.4216
0.278515
-34.4621
11.0244
0.379332
0.766673
-0.27078
-1.64044
-2.24433
-14.8678
-34.0041
-9.50085
11.0506
0.990237
11.1301
0.610033
11.0045
-35.9714
8.87272
-35.2942
0.0137418
1.12921
8.55709
0.44534
8.84768
8.10018
0.193173
0.877084
11.8666
0.719597
-5.29886
0.636301
0.584419
-31.7384
-32.7256
-3.47787
-0.123512
-24.5906
0.603343
0.458732
0.37481
0.372574
0.111943
0.629018
11.2097
10.9265
0.740662
0.611567
40.3987
0.403362
0.633827
0.871494
-50.0613
-0.388809
-54.9866
-39.7042
-49.1084
8.22005
0.291846
-0.135599
0.123798
0.736215
-45.6642
-13.6129
0.628781
0.562631
-0.181338
-0.234917
-28.7069
-0.271613
-0.0157162
-18.7345
0.640034
0.4371
0.281936
0.467136
0.18447
0.346838
0.523397
-13.7783
-19.3931
0.0175903
11.1008
-5.01067
-11.9267
-10.6333
0.561848
0.791809
-13.645
0.455375
0.0156449
0.901117
0.621776
-12.8816
0.0407865
1.01703
0.603346
0.513284
0.971295
-8.0835
-0.0252314
-45.6724
0.450583
-17.8454
0.110503
0.00480319
-47.7245
-0.00875398
-0.596987
0.0965585
0.65812
0.682083
-0.529338
49.5525
-0.485381
-36.0118
0.559235
0.209254
1.13121
0.600595
0.399983
-0.300901
0.395868
0.582635
0.170437
-20.2964
-11.7687
-41.8067
9.61645
-16.166
-0.268374
0.595971
-0.266835
-33.5538
0.14531
0.152012
0.0594378
-59.622
0.0989335
0.281626
-0.0214837
0.293617
0.810323
-149.752
0.0865374
0.971014
11.2285
-0.000348311
-8.624
28.9445
24.1591
0.0648812
6.22953
0.031271
0.653098
0.432119
0.20769
-58.2799
-51.6868
0.0444799
0.588322
-45.626
-0.0058608
-8.742
-24.8038
0.0826809
0.668571
4.109
0.000386752
-11.2626
-0.00341009
0.154245
18.565
1.6331
0.0515287
11.2414
-27.9031
11.2899
-30.8288
-26.9017
-30.7323
-27.0655
0.531766
11.2173
-20.7939
11.362
-1.14734
15.4367
-37.4154
-28.7152
11.6734
-11.4402
11.6535
0.434848
0.682522
-29.7587
0.632458
0.446989
11.4906
11.5086
39.8298
42.7321
61.1917
-18.6136
26.8833
11.6881
13.7776
21.6845
11.5541
0.431016
0.0593631
0.405915
0.0480744
-29.7248
-29.5429
0.560463
1.9481
-5.99234
-54.3509
-3.14377
0.609499
-1.73826
-25.0258
-59.4711
0.473776
-40.4231
-11.9985
-32.5633
-43.8115
-14.8466
0.33186
0.472552
12.1625
-61.0215
0.177745
12.2665
0.328092
0.206897
-51.3146
-51.1692
-53.7028
-0.817412
-33.4313
15.1696
8.82796
0.456509
-17.5162
-56.4421
-55.4099
-29.5311
58.81
-29.7358
32.7368
11.1261
-44.9994
11.8155
-63.8959
11.2047
-59.8026
11.1035
-29.3354
1.61126
-22.5208
11.6987
11.628
0.637978
11.4899
11.3681
32.5677
1.80589
11.6042
11.3805
-72.4491
-45.9762
-16.7179
-27.7018
-46.859
-27.6523
0.72764
13.8055
-40.0631
-32.9019
-39.9301
12.7295
-52.1161
4.92418
-54.3871
-55.6926
-40.1759
-24.2111
14.0173
2.02413
8.25953
11.5386
1.21653
-34.4573
-3.27122
-1.23018
1.09029
0.118293
0.17469
0.836469
0.336084
-28.2831
0.336574
0.160021
0.409278
0.501254
-23.2024
0.862279
0.0197419
0.192771
1.1587
-12.7955
-8.6901
0.473844
12.1205
-33.7575
-55.1022
-3.32884
-47.4207
-13.4946
-3.16923
-25.6662
35.8483
8.17416
7.44387
-9.96216
-0.0330862
0.0969829
-5.8487
-0.0540857
-0.0092278
-2.07934
0.0233835
1.1102
1.35519
10.8269
-6.95926
0.268164
41.5715
-0.00217684
11.5105
0.0803274
-0.0188325
41.9498
-46.2311
23.1037
-0.00196549
-0.292776
-28.7178
-28.741
-2.50053
0.46904
10.1329
-14.4743
0.171954
0.164365
-15.087
11.3984
0.139873
12.1432
53.4711
-0.118541
-0.572911
-19.5539
-3.24353
0.473863
0.429295
-0.733975
11.3541
11.3411
9.78651
11.4684
11.8163
3.20622
2.00119
-6.99482
-53.7862
3.95288
-7.89965
11.3947
11.2977
59.7033
2.12577
-0.155434
-0.423823
-22.2908
-40.5747
4.36228
15.0449
-0.621217
27.9947
-6.81544
13.9463
-36.0324
46.3278
28.7084
-22.8316
3.92545
3.22642
-22.1551
-54.0463
-83.7097
-0.865884
-13.6107
-55.1226
1.1394
-17.8829
-9.73648
-41.1441
-28.6618
2.07865
14.7217
-56.531
9.43667
-9.74123
1.23776
9.777
-2.1801
15.398
1.88331
13.5535
8.85335
-38.8074
2.36675
56.1427
-22.0442
54.059
31.08
-76.5785
12.3709
12.4141
-62.9299
-16.2871
-3.63012
-33.06
-27.6846
-0.576119
1.88531
1.52193
-33.6752
-4.95416
5.83565
57.1017
-10.508
11.8443
-8.63656
-22.0892
6.66199
6.76235
-37.8179
-32.3915
-29.8365
-29.7353
0.295682
-19.1907
0.00365677
-20.1028
-11.6039
1.15736
-0.348604
-18.1792
-6.81839
-29.6814
-29.4405
-4.27028
5.92106
-0.67064
-14.3514
-24.8298
8.12042
7.85614
-18.8193
-29.1526
8.33362
-10.1584
-29.0629
0.183054
-41.1678
-1.98126
-7.01161
-48.7511
0.352996
51.0641
-11.8635
-0.493158
-0.521488
-1.61221
-55.5621
0.637325
0.684544
-4.9869
0.328331
10.3402
0.514104
-33.6101
10.4396
34.8602
10.7451
10.6224
10.3893
0.603973
-20.4731
-11.7113
-12.9377
-53.2261
-3.35025
-42.6255
-14.0239
-0.00314397
-57.8549
0.0198202
0.532289
-1.24904
-10.9297
-57.4738
-29.5023
10.1011
36.6879
-16.926
0.765487
-36.722
-44.1822
-12.4765
-46.0261
32.5928
11.2176
-13.5802
41.5706
11.239
-72.262
19.1666
10.1159
47.4942
33.1131
11.0708
11.4093
59.0198
-41.8224
0.770683
52.7546
6.37808
11.3737
-11.8563
11.2557
-33.632
6.80929
58.427
11.4649
11.6161
35.639
9.64859
17.0656
-5.47195
-3.94735
14.3519
-28.6577
23.0095
-24.2153
-57.5805
-74.1789
-28.3588
11.7022
35.4194
13.2091
3.59047
6.18445
10.9075
11.0172
0.242258
0.382388
39.4997
-45.7378
11.8663
-30.8449
0.690795
5.98471
-20.1732
-72.8398
0.363466
-18.125
12.6123
4.9228
0.168735
9.45425
-10.0481
0.403626
0.821277
-25.4531
1.39922
0.646938
-9.08487
9.6585
0.619723
21.3679
0.638082
-23.0364
26.5197
0.865817
14.9011
35.84
-28.3576
55.6762
40.2504
-33.6031
-65.8707
-28.5826
-29.3809
-28.4688
-28.5388
-31.8981
-25.6699
-36.3805
-28.7454
57.5361
-4.72322
-50.1604
10.4951
-1.18932
-40.791
-49.2388
-5.55673
-29.9866
-18.906
-29.1617
-16.6295
40.3775
-48.6139
-40.6199
-28.2275
22.9392
-28.1305
0.693678
-53.3273
22.1689
4.99889
0.442662
-3.02336
44.3723
8.19809
-20.5941
-9.22578
12.0805
0.421149
-9.03567
-28.3425
-33.6694
-2.83455
-6.87336
17.8753
-30.6305
-10.0858
0.621237
-25.475
45.3238
-3.71498
4.57529
0.658172
1.34777
-40.1156
9.48043
7.39773
0.781183
0.557743
4.08955
-3.85176
-4.45016
61.53
2.21558
-17.3403
-8.26361
1.01041
-54.9946
-53.82
8.20439
8.40121
7.58344
10.4878
-26.2806
-12.0175
55.1357
-9.48323
10.2672
-18.0648
-5.15849
-6.55575
8.00287
-14.4413
7.99974
-23.2441
-28.7727
-41.2408
30.5263
-14.5572
16.8072
8.2711
-57.9193
-72.0155
32.0807
-53.3417
8.7983
-63.2131
31.8435
-3.82134
18.0764
-22.2688
-0.633211
0.330182
-8.78057
-15.513
-41.5832
-0.756181
7.98491
-95.3255
12.2146
-38.0689
12.0673
-3.06119
9.61783
0.146468
-1.97336
0.243074
-10.4818
7.13851
0.585836
14.6703
-1.00498
-50.0371
34.0117
10.5621
40.2132
11.5025
-1.38431
10.5034
12.2739
30.1453
-1.13758
30.0383
0.535895
-0.894616
-21.7059
0.6542
0.211703
-16.1793
-9.77664
-27.9642
-5.67959
32.31
6.27403
26.5447
0.572234
17.8134
14.1087
0.632165
0.579437
0.351596
0.77383
56.1079
0.345537
-11.6607
-30.5342
11.5644
11.923
14.0331
11.773
-24.0819
-33.2168
-1.98321
-5.49657
-5.51729
-17.2226
33.1256
0.232496
-62.5045
-10.8711
-37.4013
-1.14506
8.02812
-25.1122
11.6593
11.816
-22.0944
11.9109
0.0751198
6.0434
-43.8932
16.6763
54.063
-0.829159
-1.39469
33.1488
5.59416
-0.254941
33.3841
7.22043
-17.0467
36.2728
-12.1357
38.1234
-46.7154
0.769457
12.2974
-1.53338
-9.56704
-1.66262
0.748598
-2.39719
0.22291
12.2982
-36.5294
3.81289
0.477342
-39.2435
-0.453573
6.891
11.7507
11.8791
24.1246
3.21164
-0.862858
-7.04617
-1.98474
-14.4777
11.5478
0.557602
-22.5318
58.69
-22.8656
-0.187763
57.3127
11.7838
-52.5525
53.3403
-3.27612
4.52867
35.0677
11.9125
-29.1253
37.164
-29.3402
-6.85899
-29.1097
-15.4176
-36.9569
32.9037
-7.27923
59.5289
0.639532
-29.1756
-29.423
-57.4875
-50.4687
-37.5368
-58.8201
-41.9993
-32.5314
56.2076
9.02216
9.70405
49.2987
23.0367
-49.3909
6.3622
-51.5763
43.4152
0.826726
10.0726
0.0675367
0.671313
0.60233
0.599524
57.6534
0.519299
0.617161
10.2417
0.815722
0.854989
10.2566
-6.96606
0.720231
-8.885
0.637728
6.3553
25.4145
-49.2818
-1.11966
1.1366
-7.81536
-1.06766
-40.3591
-23.9461
-24.5399
-1.47451
37.0128
13.0122
-3.41754
-6.25029
7.40244
3.30368
0.746137
11.004
10.4617
-29.3088
0.833386
17.5763
-4.18143
1.92567
11.1181
-2.35505
7.3136
11.0072
10.8244
-15.0321
10.5769
7.87305
51.1737
23.9952
12.5729
21.5492
10.2214
-2.46888
10.6593
0.604817
-4.77036
0.598293
4.54012
0.034485
22.0141
10.2222
-18.65
22.047
0.137796
9.09575
26.9408
-16.098
32.8711
-28.316
-54.794
-40.4283
-0.983517
0.0684261
-28.9526
34.9075
-11.6786
-3.3252
8.31728
0.900538
-0.490377
0.0963832
8.85442
12.1549
28.2536
8.13708
0.619758
10.9947
10.848
0.0403245
-36.6206
34.2167
-0.015583
7.03212
-13.7156
41.6706
12.1279
9.49678
-11.4418
-49.9292
-51.3971
11.2364
11.1708
-5.06154
-8.98413
-10.8505
-31.772
31.0184
0.671198
-0.119218
-2.09886
0.534564
18.36
-18.1037
0.567821
0.398778
29.2584
0.413577
-10.7586
25.4842
-37.0891
-27.1788
0.519766
-12.7519
13.0345
-0.0385578
0.536277
11.7056
8.48896
-2.71098
19.8819
3.02312
-47.0546
0.650603
0.603837
-36.1631
-3.92601
12.8567
0.652427
7.20746
11.3474
58.9139
0.60398
-11.9085
-37.6247
-41.8179
-95.4573
-62.6102
0.609478
15.6548
45.4028
0.00356018
6.45959
8.71201
-41.2995
12.4117
5.51563
-40.6179
12.2948
23.4793
-18.4792
8.56251
-41.0317
-56.8714
13.8378
17.9625
-45.0671
14.1516
10.1261
1.75938
13.4941
11.6559
0.175935
-37.2913
-8.04267
5.53788
13.2539
10.8574
12.0672
0.125533
-0.00199318
33.4601
0.0484312
-9.72122
-0.63422
35.4345
11.8069
-13.5334
3.77434
56.7142
-25.6712
-30.8703
-43.1934
2.32853
-6.6589
-57.538
-20.6739
13.5253
-17.1166
-8.85269
0.0052489
-11.16
11.0698
3.88182
1.93
0.0865212
0.245751
-21.0709
-6.30531
-12.9242
0.31427
-0.857098
0.286037
-1.05669
-7.22266
12.3601
-46.2097
12.7488
-1.37829
-1.31018
10.5423
10.4895
11.5136
0.716507
-1.22312
-12.0527
3.06602
-1.07162
-1.50265
-29.0185
2.96742
-8.64293
-41.07
-30.1288
-30.1062
13.4278
-29.4434
17.3857
-31.3975
0.450727
-29.1209
0.437103
1.93248
-1.12038
-6.305
0.484165
2.91688
-2.97696
11.0993
8.71683
12.5941
-6.147
-6.86087
-50.188
-28.8884
22.4996
35.6828
-35.9993
-27.2008
-31.1138
-53.051
-28.632
-10.3069
-28.8307
0.515396
0.15685
-49.1961
-57.242
-6.17081
-1.27974
10.943
51.8723
-4.11439
-56.7785
-2.37815
4.00569
-4.70973
-1.24901
-29.6809
-0.183268
0.237165
0.308389
1.3284
6.08651
-0.620705
0.804226
-45.9005
-46.9433
-42.9488
21.0992
-36.8095
11.9251
0.657306
13.618
5.53961
3.38216
20.4017
11.192
21.4683
0.3205
2.81418
4.39995
-0.132827
1.1261
-14.0797
8.02332
12.6223
8.02895
41.6103
0.785874
22.8184
-58.9247
-6.32048
-49.2644
40.1726
9.69855
8.48663
5.60254
-16.151
-10.0791
11.432
-36.5279
6.68689
7.9794
-5.89138
17.259
8.75663
-6.4578
-18.0161
-15.7553
12.2955
-2.45785
-60.3183
-0.825008
-46.089
-31.4603
12.1799
-57.451
-8.67889
32.6609
-2.08334
12.148
14.0889
16.5526
-7.75424
11.4054
-28.8823
-15.841
-28.8399
-5.50154
-8.7395
15.6441
-28.2989
-26.0142
0.596899
-0.219323
14.6526
-28.619
5.87654
-5.35082
-47.56
0.393862
-0.149341
10.8484
-53.9211
-6.86663
-2.9999
0.322085
-2.57823
10.5126
10.2173
-2.99352
10.5726
-29.9814
10.5544
-57.3436
10.8375
-31.9841
-32.2298
-9.09227
10.155
-9.66984
0.172808
10.1775
-3.31963
-0.630333
-9.60108
50.7452
0.145335
32.9996
-11.4531
0.127435
-4.3352
0.224337
11.7265
10.3762
11.4972
-9.76644
0.114538
11.0691
-1.83234
0.0868941
0.654181
-26.3695
0.626215
0.20001
11.8311
-27.7015
-31.0898
0.172303
-6.70902
0.562299
-30.5101
0.383044
0.25228
0.0969232
0.314839
0.273239
0.0998901
0.0429458
0.603866
10.4582
-22.4698
-18.033
11.7984
43.859
15.085
11.5518
0.00928557
12.242
36.2029
0.0716857
32.0477
-0.555911
0.187917
-1.69987
23.913
0.6418
0.00724042
53.8132
12.3236
26.7894
-11.2759
-15.156
0.128427
-4.27126
-0.0294631
0.685173
1.06202
0.541396
48.346
0.636407
0.464955
0.440537
11.0637
-42.7061
-25.3425
-5.8364
2.83544
-0.221291
0.446416
14.1097
-31.1977
24.5262
15.6549
2.37179
0.435324
41.223
-15.2926
39.1035
30.5681
11.0525
11.6692
0.313302
-6.77474
0.636583
-16.0957
-14.3124
11.668
-51.4735
0.249828
0.547647
0.633777
9.98765
0.597281
46.6279
-5.60799
44.4212
0.593959
-56.8915
-10.4942
-15.5573
0.517952
-45.6513
0.599485
27.2926
11.2619
30.9954
0.656399
-19.3798
3.51215
-48.5801
29.5294
11.2042
10.7985
-1.8878
-26.4021
10.8939
-58.9201
-36.0734
11.2652
32.6006
11.128
-24.073
42.0352
6.50808
-7.81783
41.9937
36.7048
0.280986
1.89191
-55.4705
41.9939
9.13511
38.4803
-6.48744
-54.7311
28.6085
-3.73308
0.0119281
0.290002
0.0582774
-0.245741
13.0028
-34.9663
-1.46246
-37.1408
15.42
37.165
-12.0404
35.4459
0.020354
-0.0358072
-16.0924
56.5319
-20.0482
46.4307
15.2401
3.33568
23.4642
3.4316
15.8395
0.0360768
0.0128175
0.00658349
-0.0171783
7.93618
-16.3441
12.3891
-33.6092
2.59576
-42.0159
8.41578
-24.6936
43.4332
-4.10142
-3.18428
0.14769
37.1728
0.0653622
21.8397
-2.92297
8.0963
-10.769
-0.604917
30.5435
34.4902
-16.2449
0.188972
-0.79652
-38.2908
-63.3021
-8.78632
50.4083
25.7656
53.6481
57.156
42.7989
-39.3396
-2.2604
42.5907
-44.5778
0.00275054
4.59346
0.061846
-29.625
-15.4406
-2.40724
0.652033
-10.1095
-0.013649
10.5691
-37.5869
40.6629
-46.493
10.5229
-2.93943
9.07263
0.30191
-7.56853
-59.1744
0.0882888
-35.6287
-17.9273
10.883
-58.6159
-47.3347
10.8777
-14.2855
-15.5204
21.7779
10.9122
-15.154
25.6441
-57.4128
-33.1391
-45.1919
38.7335
-36.7428
3.91856
24.4746
3.35392
-58.2297
-48.7751
-1.13706
-1.25043
48.0714
-3.99815
-39.3947
-3.39725
-18.3983
-66.2113
-32.2272
-29.8414
1.51746
-29.8742
0.274798
-29.8086
13.6457
-23.6609
48.3419
-28.5889
19.4353
-33.1556
-28.1862
-21.1192
-46.7589
32.1879
29.9793
-34.8072
9.99902
24.7161
16.1673
5.18571
12.7527
-3.22117
-31.5406
-81.9349
-29.7973
14.7481
18.5342
-41.8457
22.6875
-31.5555
-16.8258
5.31492
5.05501
-31.264
11.885
-30.7315
13.2896
29.4942
31.5398
58.9481
28.3032
-30.1483
-60.7128
42.0722
11.8661
35.8152
-50.3271
-29.7441
50.0699
29.3252
-4.71642
21.131
23.5664
-44.5489
-32.1861
-48.6285
14.6354
10.2558
34.664
-59.3726
43.032
27.5442
12.2036
35.8718
-30.2672
1.18384
1.55938
12.1551
-13.9746
-54.6743
-28.9206
43.8204
-10.0024
-20.2773
-47.2468
41.149
45.3229
37.0507
-35.2921
-99.235
43.5286
-34.493
-57.6962
44.9473
-2.43436
-10.789
11.7172
0.00236895
-0.218373
-9.85921
42.5795
-28.6281
0.941437
0.0975749
-0.135543
0.310633
-1.17952
3.37272
-34.3192
-7.51129
-0.266956
-55.3689
-73.1014
-28.309
-20.8396
-1.90262
-18.5664
-29.7163
-43.7728
-0.164843
-36.0545
-2.89763
-35.5511
-30.091
41.7282
18.2594
25.5352
0.0494212
3.9262
-72.742
-26.1339
-10.6744
-48.339
0.0205488
-62.8591
-45.1125
-27.3274
-44.9682
-6.02657
15.27
11.1526
14.5227
10.3719
41.9016
0.0667174
-0.0092194
0.0617692
14.0668
-10.4576
-51.0837
-56.8919
15.5894
36.3631
23.8108
28.5914
-1.1096
-51.4934
-6.42967
11.7508
3.09495
-2.0212
18.3261
6.50295
-15.9271
14.0527
-12.2807
-10.382
-8.47134
16.8025
35.319
-32.7119
51.5813
-27.7989
18.3545
-59.5701
-47.8506
-11.1942
14.023
32.8228
-10.3971
-34.0183
6.12632
13.7912
-18.7959
-28.7835
15.3298
45.8279
57.7313
-36.9189
-2.0822
-58.3273
13.9767
0.217747
-10.4288
10.3096
6.578
-16.5864
2.7012
7.47069
-44.4701
-10.5168
-28.2814
-14.0927
-28.9652
0.0373546
11.4626
-59.34
-19.0048
-0.0165259
58.6931
11.9923
44.7651
10.364
-24.1446
16.2838
-0.944369
32.6443
54.3974
14.813
32.7901
0.0136521
-47.5159
11.9488
11.7914
-6.1871
5.46991
-39.1393
-5.53892
-10.2792
12.107
3.05698
-23.7064
4.37722
8.93073
-8.43911
-13.7826
-27.9002
-0.000849392
13.4058
0.0215505
13.7237
0.0314134
-21.2908
11.8299
-24.6266
11.213
-29.1567
-0.0236777
32.7133
-9.51914
34.1983
0.0482407
7.49637
0.0768509
-0.000999837
-5.18452
7.01953
16.3368
32.6377
29.2674
-29.6309
-53.3
40.6281
23.2007
20.8066
4.16202
0.0260811
0.109392
-77.0098
41.9719
17.5286
13.5037
0.0957418
17.8797
0.149552
0.10558
-23.2068
-25.6053
-39.7062
-34.5581
5.89997
1.1155
-5.7031
11.6844
41.6309
10.146
-18.9743
10.0305
-7.76377
-78.8255
-16.9831
0.253946
2.74999
-10.7939
-8.19766
-36.9774
12.1676
-35.9394
22.314
-77.8194
-32.6451
-30.2729
0.232633
20.9423
1.65527
12.0127
33.6659
12.0694
-12.5215
10.0824
11.0032
7.59114
11.9688
-41.596
17.1848
2.60252
41.6535
11.3768
-24.2448
12.1618
12.0794
-30.2142
-79.6239
-30.7777
-29.2554
-30.316
8.63705
56.9567
-30.019
-4.13403
10.6709
18.3883
-30.2931
0.388495
0.267844
10.1205
-24.5385
-29.1972
-50.2499
29.8754
-3.37777
0.760921
1.57047
-29.1223
26.8414
8.89416
-57.0051
-28.1514
-28.7992
58.2455
13.1956
9.79322
1.07656
13.3104
-53.6156
15.8635
10.3518
18.0436
-3.54516
16.3826
21.6253
42.8962
34.6397
9.74714
-18.9921
21.1713
-11.0867
0.462439
0.4516
30.0643
-32.9787
-13.8493
0.431889
53.7667
0.471996
-29.2557
29.2659
18.6847
37.5346
-28.5912
-20.4255
-29.0194
30.1124
-13.9122
-34.1262
-6.70349
10.5539
0.930021
13.1728
-0.0807613
12.8707
-0.397963
10.5675
-0.41811
-13.7813
0.211186
33.2375
1.45847
3.3095
-27.1775
8.21273
0.381644
9.67607
-7.33453
-34.0309
-46.839
-21.9918
3.60087
35.2935
0.831536
56.7131
-33.8025
56.925
50.4984
0.862971
3.70559
5.62602
0.688698
0.806593
-92.318
9.49168
-26.3553
-12.1494
3.7863
-0.064304
-29.3256
5.97552
5.91004
8.40582
5.76628
0.660894
-31.7527
-5.65918
0.224875
-24.143
0.677096
-0.132804
0.386399
0.194641
-11.6855
6.92806
-57.7605
-0.27422
0.200565
-13.1007
-13.6043
21.8801
-19.7874
11.3562
11.2433
-0.0283255
0.213819
-11.9254
-18.0753
8.75018
0.199367
-3.67887
9.65277
0.164602
55.1574
0.0878777
0.173247
0.162156
-0.0112509
-31.3479
0.00820642
-28.6559
-9.84369
51.0847
3.69023
-2.47758
-4.33461
-0.853133
-9.6298
-37.4912
0.946481
0.110416
6.47316
-28.8533
0.0779793
7.09732
26.4636
40.6246
-11.8094
8.71551
7.95216
-42.4311
-26.082
0.00572727
46.0696
-59.9682
-23.3482
-9.14679
48.0334
-11.0857
-12.1233
30.4948
-66.5693
-3.96894
0.0488476
0.111578
0.0635338