/*--------------------------------*- C++ -*----------------------------------*\
| =========                 |                                                 |
| \\      /  F ield         | OpenFOAM: The Open Source CFD Toolbox           |
|  \\    /   O peration     | Version:  2506                                  |
|   \\  /    A nd           | Website:  www.openfoam.com                      |
|    \\/     M anipulation  |                                                 |
\*---------------------------------------------------------------------------*/
FoamFile
{
    version     2.0;
    format      ascii;
    arch        "LSB;label=32;scalar=64";
    class       surfaceScalarField;
    location    "0.075332";
    object      phi;
}
// * * * * * * * * * * * * * * * * * * * * * * * * * * * * * * * * * * * * * //

dimensions      [0 3 -1 0 0 0 0];

oriented        oriented;

internalField   nonuniform List<scalar> 
92401
(
0.148691
-0.0979633
-0.00684419
-0.0438833
-0.0635937
0.0607427
0.0397854
-0.0369343
0.0221856
-0.0396783
0.0429713
-0.0254787
0.00659299
-0.0131593
0.0129857
-0.00641932
0.00135722
-0.000541092
-0.00594692
0.0051308
0.0194108
0.00970003
-0.0252954
-0.00381545
0.00589458
-0.00483367
0.000296301
0.0322423
-0.0255493
0.0127179
0.0480778
-0.0386425
0.0324583
-0.0418935
0.000345343
-0.0006692
0.000155266
0.000168591
0.00468524
-0.0415468
0.038602
0.0242685
0.024339
-0.0872095
-0.0174967
0.0110712
-0.000146658
0.00657216
-0.0344006
-0.0400118
-0.0163648
-0.0202786
0.0597592
-0.0231158
0.0021132
-0.0667209
0.0646077
-0.00251498
-0.00776804
0.00205538
0.00348629
0.00222636
-0.000960455
0.00155032
0.000216666
-0.000806533
-0.00497704
0.010921
-4.4289e-05
-0.00589969
0.0164905
-0.00577324
-0.00501301
-0.00570422
-0.0407862
0.00835807
0.0369824
-0.00455426
-0.0393749
0.0109374
-0.0547295
-0.0540715
-0.00273939
0.0549197
0.00189118
0.0907152
-0.0893143
0.0220287
-0.0234296
0.0503195
0.0601335
-0.0715644
-0.0388886
-0.0326004
0.0511303
-0.0579048
-0.00275532
-0.00101054
0.00402627
-0.000260403
0.0314308
-0.0635639
-0.000467323
0.0611859
-0.0601508
-0.0324124
0.0313773
0.012512
-0.0173178
0.00135314
0.0034526
-0.0361113
0.10675
0.0618113
-0.13245
-0.0846926
0.107529
0.00897043
-0.0318065
-0.131072
0.0323757
0.02958
0.0691165
0.0148772
-0.0621569
0.0374236
0.0098561
0.0602895
0.00927032
-0.0546826
-0.044244
0.0100954
0.00249033
0.0316583
-0.0504142
-0.0411757
0.0654839
0.026106
-0.0332284
0.0406252
-0.0137676
0.00637082
-0.0202553
-0.102616
0.0658747
0.0569964
-0.0856351
0.0865158
-0.000880726
0.0336375
-0.00450204
-0.0758932
0.0467578
-2.84489e-05
0.0279246
-0.0197172
-0.00817898
0.0268849
-0.0503983
0.0235134
0.000173945
1.49161e-05
-0.000140138
-4.87234e-05
0.000838864
-0.0584563
0.0576174
-0.0685365
0.0429209
0.0623297
-0.0367141
0.0901234
-0.0254253
-0.0128056
-0.0518925
-0.000435284
0.070787
0.000808549
-0.0711602
-0.0476885
0.0731901
0.039808
-0.0653096
0.000558401
0.00111186
-0.000387498
-0.00128277
-0.00211217
-0.00353999
0.000140834
0.00551133
-0.0382905
0.08398
-0.0462626
0.000573165
0.000337324
-0.000785661
-0.000531729
0.000980066
-0.0548661
0.054223
0.000643053
0.075535
-0.00784468
-0.0186769
-0.0490134
-0.0994015
0.0918707
0.00462616
0.00290458
-0.0548602
0.0273446
0.0110733
0.0164423
-0.00282056
-0.0149867
0.00767347
0.0101338
-0.0125796
0.025892
0.0374377
-0.0507501
0.000898223
-0.000368529
-0.00019237
9.69466e-05
-8.85156e-05
0.000791336
-0.000799767
0.000459652
0.000159956
-0.000376355
-0.000243253
0.00415351
-0.0091991
0.00504479
7.95911e-07
0.0679074
0.0050618
-0.0171989
-0.0557703
-0.015049
-0.00475452
0.0106911
0.00911236
-0.0409671
-0.052885
-0.0547709
0.148623
0.0034084
-0.0346569
-0.00305417
0.0343027
-0.000305914
0.000520682
0.000421008
-0.000635776
0.00427158
0.00450068
-0.0279167
0.0191445
0.0188299
-0.00646916
-0.00961577
-0.00274497
0.0417941
-0.0765408
-0.0275896
0.0623362
-0.0292734
-0.00310943
0.01028
0.0221028
0.0122527
0.00829063
0.0130679
-0.0336112
-0.000336475
-0.000312423
5.36192e-05
0.000595279
0.0252309
-0.00973252
0.0365642
-0.000530033
0.000316158
-0.000603429
0.000817305
0.0441852
-0.0330868
-0.0681469
0.0570484
0.000393505
-0.000245583
-0.000147921
-0.00112433
2.1629e-05
0.000562258
0.000540442
0.000640989
-0.000199207
0.000264546
-0.000706328
0.0226725
-0.0231052
-0.0622988
0.0627314
0.00106084
-0.0126836
0.00289575
0.00872702
0.0430118
0.0586011
0.0185023
-0.120115
-0.111936
0.0253748
0.124405
-0.037844
-0.00540765
-0.0447151
0.00376308
0.0463597
0.0550659
-0.0303849
0.0262343
-0.0509152
0.0264662
-0.0033092
-0.153598
0.130441
0.00887076
0.0158226
-0.0287594
0.00406608
0.000686343
-0.00019661
-0.000754424
0.000264691
0.0381083
0.0123115
-0.00133574
-0.049084
-0.00253269
0.0844816
-0.0860331
0.00408424
-0.0181649
0.0495997
-0.116111
0.0846765
0.0425471
0.00533922
-0.053294
0.0426868
-0.000139707
-0.00233147
-0.0292907
0.0417557
-0.0101335
0.0709111
0.0171107
-0.0315808
-0.0564411
0.131564
-0.145346
-0.0299098
0.0436918
-0.0151496
-0.0457555
0.0585736
-0.0824757
-0.000686638
0.0831623
0.00109064
-0.097848
0.163102
-0.0663449
-0.00254567
0.00338988
-0.00062797
-0.000216237
0.0898717
-0.149176
0.0304288
0.0288756
0.00155531
-0.000444816
0.000905434
-0.00201592
-0.0872506
0.142812
-0.104059
0.0484978
0.03093
0.00276863
-0.0414167
0.00771807
0.0860561
-0.0149467
-0.0830659
0.0119566
0.00575267
0.031815
-0.0527172
0.0233849
0.027749
-0.117694
0.0665603
0.0872129
0.113255
-0.0800732
-0.120395
0.000905544
-0.000240922
-0.000703393
3.87716e-05
-0.0936387
-0.0286325
0.110757
0.011514
0.00130327
-0.00590645
0.016058
-0.0114548
-0.0141112
-0.0340949
0.0584022
-0.010196
-0.00561574
0.0174832
-0.0146144
0.002747
0.000408418
-0.000681157
-0.000609487
0.000882226
0.0223174
-0.0264066
-0.00152657
-0.0018863
-0.000698956
0.00154738
0.00103788
-0.0577873
0.0604257
-0.00263834
-0.0025859
-0.00635188
-0.00215851
0.0110963
-0.036931
0.0284028
-0.00558297
0.0183383
-0.0472349
-0.055796
-0.0513055
0.0415577
0.0983432
-0.0885955
-0.00764244
-0.00181916
0.00513732
0.00432429
0.0468668
0.0110724
0.00221087
-0.0601501
0.000557106
-0.00957253
0.0070551
0.00196033
-0.0402126
-0.0540367
0.0114953
0.0827539
0.0647063
-0.0388769
0.0266308
-0.0524602
-0.0096377
0.0597983
-0.0587839
0.00862324
-0.0589831
-0.033983
0.00781367
0.0851524
0.0162121
0.00490602
-0.0329277
0.0118096
0.0629839
-0.0631947
0.000210806
0.00186147
0.0017831
-0.00157582
-0.00206875
0.0406217
-0.0439665
0.00334476
-0.0580921
-0.0374514
0.108039
-0.0124955
0.000837723
-0.00996651
0.00988473
-0.000755947
0.00275546
0.00590169
0.00275587
-0.011413
0.00170901
0.00671828
-0.00787019
-0.0245778
-0.0579506
-0.00897368
0.0915021
0.0257973
-0.00802127
0.0185711
-0.0363471
-0.083998
0.0925557
-0.101271
0.0927136
0.077661
-0.050216
-0.027445
0.00161167
-0.0346426
-0.0101449
0.0431758
0.00815818
-0.00562129
-0.00957718
0.0070403
0.0464192
-0.0701343
-0.0621713
0.0858865
0.0740236
-0.0647093
0.0293662
-0.0386805
-0.0137624
-0.00909759
0.0334596
-0.0105996
-0.0581664
-0.0867625
0.0572873
0.0876416
-0.0416039
0.0543291
-0.0111135
0.0976978
-0.0482777
-0.0494201
-0.00475392
0.0155657
-0.00265358
0.00100971
0.000685824
-0.000714027
-0.000981511
0.0473386
-0.0157939
-0.00524551
-0.0262992
0.00365173
-0.00190119
-0.000454274
-0.00129626
0.00537514
-0.0101994
0.00873074
-0.00390652
0.0723126
-0.0424732
0.0259728
-0.0558122
0.00893619
-0.000442616
-0.00687924
-0.00161433
0.00165892
-0.000608383
-0.00105054
-0.0659049
0.0652986
0.000606288
0.0119011
0.0056812
-0.0966436
0.0790613
-0.0119152
0.0143724
-0.0102864
0.00782916
-0.0730404
0.0163387
0.083483
-0.0267813
0.0185919
-0.0975872
0.075608
0.00338725
-0.0526671
0.0429663
-0.00839003
0.0180908
0.00875726
-0.00182757
-0.00297925
-0.00395044
8.91957e-05
-0.000771636
0.00068244
0.0283253
0.170839
-0.245596
0.0464309
0.000291197
1.33164e-05
-0.0248922
0.0603064
-0.0526918
0.0172776
-1.20338e-05
0.00522937
-0.00447423
-0.000743109
-2.38565e-05
0.00137995
-0.0015553
-0.0709223
0.000618877
0.0703034
-0.0323757
0.113763
-0.0477399
-0.0336476
0.000534959
0.000479476
0.00947442
-0.0104889
0.000482552
0.0918108
-0.0922933
0.00240722
-0.00162918
-0.00122836
0.000450312
0.00138038
0.000706038
-0.000714017
-0.0013724
-0.0367187
-0.00154991
0.0324551
0.0187245
-0.0637592
-0.0723947
-0.0162964
0.00654742
0.0821437
-0.000630126
0.00201051
-0.100739
-0.0419149
0.112822
0.0298321
0.0271672
0.170502
-0.0850676
-0.0578278
-0.0276066
-0.0183023
0.119168
-0.0435014
-0.0573647
0.0397316
0.0299163
0.0386218
-0.10827
0.104668
-0.24896
0.109478
0.034814
0.00164897
-0.00146362
-0.00138503
0.00119969
-0.0123087
-0.0354047
0.0554928
-0.00777945
0.0262455
0.0404345
-0.0264731
-0.0402069
-0.0353591
-0.0257983
-0.0197675
0.0809248
-0.0533728
-0.0139552
0.0550193
0.00117741
-0.0120203
0.00922603
0.00161687
0.0553708
-0.0284425
-0.0508462
0.023918
-0.0895779
0.105529
-0.050252
0.0343011
0.0168226
-0.0234291
0.00687103
-0.000264561
0.0517842
-0.060053
0.0636397
-0.0571775
-0.00349823
-0.0138121
0.0744878
-0.00533592
-0.0132635
0.00252108
0.0160784
0.000181199
0.059028
-0.0584058
-0.000803332
0.135233
-0.0537779
-0.00244375
-0.079011
0.059967
-0.00758753
-0.0490863
-0.00329319
0.0507767
-0.0222986
-0.069076
0.0405978
-0.010029
-0.00173314
0.0151139
-0.00335173
0.00542118
-0.00169944
-0.00477466
0.00105292
0.00257617
-0.0441965
0.0408041
0.000816255
-0.000765636
-0.0862738
0.00346033
0.0197181
-0.0129245
-0.0631309
0.0465106
0.0166203
-0.0595505
-0.0170395
0.0109791
0.0656109
-0.101085
-0.000754673
0.104395
-0.00255531
0.00372151
0.0238537
-0.0128498
-0.0147254
-0.0713241
0.149766
-0.0659893
-0.0124522
-0.00470177
0.0133151
0.0224501
-0.0310635
-0.0523206
0.100362
0.039227
-0.0872684
0.0293077
0.00139087
-0.0144325
-0.0162661
-0.0363872
0.0380596
0.000903722
-0.00491863
0.00754007
-0.0102408
0.0076194
-0.000253655
-0.00457876
0.0102076
0.0360095
0.0378195
-0.073829
0.0010827
-0.00190621
3.46329e-05
0.000788872
0.0200541
0.00834629
-0.0192423
-0.00915813
0.0226469
0.0105868
-0.00168108
-0.0315526
-0.0525985
-0.00207237
0.00707509
0.0475958
-0.000204581
-0.043992
-0.000992476
0.000532434
0.00154274
-0.0518476
0.0370685
0.0519393
-0.0371603
-0.0448422
0.0302685
0.017571
-0.00299732
0.0013798
-0.00361833
-0.00992381
0.0121623
-0.00983681
-0.00508558
-0.00296677
0.0178892
-0.0436819
-0.00489802
0.0121927
0.0723895
0.0395968
-0.0720668
-0.0399195
-0.0455725
-0.000229496
0.045802
0.0861894
-0.0486821
0.0595931
0.0036812
-0.00764492
-0.0372431
0.0412069
0.0359375
0.0112995
-0.0053043
-0.0419327
-0.00047427
0.000344046
0.00102117
-0.000890946
-0.016854
-0.0449833
0.0618373
-0.000216896
-0.0013817
-0.00410844
0.0308044
-0.0230148
0.00617972
0.0278778
-0.0417024
0.097873
-0.0906705
-0.0020559
-0.00514664
-0.0214736
0.101478
-0.0185445
-0.0614596
-0.0319763
0.00679737
0.0137152
0.0114638
-0.0391019
0.0359182
0.0138409
-0.0106572
0.0325707
-0.0251261
0.00134324
-0.00878791
0.0192605
0.0726609
-0.123029
0.0311081
0.0762995
-0.0752748
-0.0243153
0.0232905
-0.143409
0.00206359
0.00363623
0.137709
0.0305541
0.0123921
-0.0412311
-0.00171512
0.0399692
-0.0576088
0.0203803
-0.0027407
0.00215056
-0.00121453
0.0002452
-0.00118122
-0.0146624
-0.00112145
0.0733983
-0.041642
0.0188075
-0.0505638
-0.01198
0.0477356
0.000413792
-0.0361694
0.0051738
0.0959233
-0.0932778
-0.00781927
0.0495225
-0.0989594
0.057921
-0.00848415
-0.0483591
-0.000409415
0.0367886
0.0150826
-0.00338205
0.00867299
-0.0203736
-0.0234217
0.0477916
-0.0133102
-0.0110597
-0.0483046
-5.44485e-05
-0.00556877
-0.122868
0.175885
-0.0474483
0.0101099
0.00980983
-0.0635435
0.0436238
0.0494617
0.00547114
-0.044823
-0.0130838
0.00678175
-0.00368073
0.00998273
-0.058204
-0.000566126
0.0587701
0.110588
0.0443172
-0.136876
-0.0180282
-0.00940263
0.000284186
-0.00396531
0.0185571
-0.116242
-0.0226095
0.120295
0.0127048
0.0664358
-0.0693307
0.00281593
-0.0558356
-0.0105238
0.000535649
0.00193614
-0.00268869
0.00206147
-0.00177784
0.000252023
-0.0507886
0.0261798
0.073826
-0.0492172
-0.00193331
0.000982103
0.000972839
-0.0341904
-0.00772703
0.0447334
0.000298946
-0.000296116
0.000356863
-0.000898654
0.000121741
0.000420051
0.000256352
0.00210406
-0.00182049
0.0014655
0.000141203
0.000213787
0.000324685
-0.000129399
0.000702937
0.106336
0.122754
-0.0803998
0.000170641
-0.000705385
0.000859429
-0.0528686
0.0527079
0.000160664
-0.0105668
0.0760899
-0.0715424
0.00601931
0.00168497
-0.0197009
0.00530177
0.0127142
-0.0603728
-0.00306256
-0.0172552
0.00401654
0.047464
-0.0342253
-0.0629135
-0.00295425
0.0658677
-0.00707893
-0.0166195
-0.0127551
0.0364535
0.000342853
-0.000395506
-0.000546493
0.000599147
-0.00390376
-0.00740836
0.00913046
0.00218165
0.0549848
0.043906
-0.0175077
0.0483342
0.0896063
-0.0380575
-0.099883
-0.012704
-0.0442295
-0.0189402
0.0185578
-0.0538374
0.0542198
-0.0112083
0.0286694
-0.00573215
-0.0117289
-0.0150904
-0.0134578
0.0133991
0.0151491
0.0965962
-0.0946912
0.0187776
-0.0206826
0.00123938
-0.00441144
-0.000467508
0.00363957
0.00123248
-0.0670128
0.0657803
-0.0725162
0.00336009
0.0667517
0.00240439
0.038944
0.038294
-0.077238
0.0191111
-0.059973
0.0281579
0.00197666
-0.00111616
0.000456153
-0.00131665
0.000250539
-0.000156922
0.0010656
-0.00115921
-8.92183e-05
0.000442788
-0.00102634
0.000672771
0.0640653
0.0566613
-0.0392734
-0.0814532
0.00591289
-0.0870469
0.0824572
-0.00132328
-0.0137996
0.000725053
0.0264884
-0.0134138
0.0535367
-0.0526826
0.0191248
-0.0199789
-0.000540913
0.001398
-0.000700654
-0.000156437
0.020281
0.0478995
-0.0490694
-0.0469308
-0.00169972
0.00103161
0.00148437
-0.000816259
0.00137496
0.0808619
-0.0822369
-0.0499569
-0.0150709
-0.0222622
0.0872899
-0.0499739
1.70411e-05
0.0116338
0.0167563
0.0167047
-0.0450948
0.000554419
-0.00273461
0.000450776
0.00172942
-0.00179797
-0.000496182
0.000594433
-0.106197
-0.00936028
-0.043151
0.158708
-0.00974786
0.00729335
0.136964
-0.134509
-0.0386557
0.0418905
-0.0647111
0.0614763
-0.0798891
0.0795272
0.000361899
0.00125784
-0.0499617
-0.0305452
0.0671373
0.0192653
-0.00598952
-0.080413
0.0506722
0.0950713
-0.157475
0.0117311
0.0416196
0.0158157
0.0332744
-0.0907097
0.103946
-0.10842
0.0434181
-0.00365952
0.0133561
-0.0121259
0.0024293
-0.00138988
-0.000153712
-0.000559917
0.00210351
-0.00289124
-0.00567243
0.00173603
0.00682763
0.0608088
-0.00618845
-0.0183825
-0.0362378
-0.056745
0.0282148
0.0285302
-0.0929428
-0.00762488
0.0119182
0.000707389
-0.000565053
-0.00153221
-0.118164
0.0265275
0.0051787
0.0864582
0.00124887
-0.0532731
-0.0102813
0.0623055
0.0456294
0.029103
-0.10165
0.0269177
0.0384785
-0.0433938
-0.0191151
0.0240305
0.0484088
-0.0600506
0.0501203
0.031739
-0.056425
0.0496087
-0.0249227
0.0347164
-0.0360242
0.000289393
0.0010184
0.0162156
-0.1422
0.0913202
0.0346643
0.00142856
-0.0617821
-0.0039066
0.0520822
0.000359859
-0.107302
-0.0339298
-0.00867009
0.00689156
0.0357083
-0.0485528
0.0443813
0.0500254
-0.0458539
-0.0423404
0.082027
-0.0396866
0.0103995
-0.102004
0.048211
-0.017053
0.00742541
0.0246813
-0.0150537
-0.0880126
0.0936258
0.0361876
-0.0418007
0.0587259
0.0328593
-0.0828156
-0.00876961
-0.0460716
0.141658
0.00414353
-0.0997299
-0.000546989
0.00290932
0.00366786
-0.00603019
0.0536901
-0.0720128
0.0829756
-0.0646529
0.00778833
-0.0389712
-0.00827129
0.0394541
-0.0433605
0.0313937
0.103332
-0.0913654
-0.0499878
-0.0264418
0.0528601
0.0235695
-0.00955189
-0.000479624
0.0061967
0.00383482
-0.0112153
0.0240012
-0.0183779
0.00559208
-0.000124654
0.0743379
-0.0742132
0.0148927
-0.043972
-0.0194736
0.0480444
-0.0343373
-0.000568462
-0.0131387
0.00171022
-0.0266521
-0.0211124
0.0460543
0.034525
-0.0344622
-6.27869e-05
0.0611748
-0.0417182
0.0643165
-0.0837731
-0.0990197
0.0971577
0.0984582
7.50729e-06
-0.0108389
-0.00176931
0.0126007
0.0494178
-0.000258157
6.00811e-05
0.000256779
-5.87028e-05
-0.00055616
0.0487396
-0.112233
0.0640495
-0.00855718
-0.000675849
0.00500198
0.00423105
0.0268859
0.00996086
-0.0368468
0.00123802
-0.000922528
-0.00887267
-0.0322896
-0.0400392
0.0142367
0.0572418
0.00100804
-0.0582498
0.0728442
-0.0441346
-0.0511893
0.0224797
0.00168107
-0.0252044
-0.0207207
0.0693867
0.0430319
-0.0395744
-0.00804364
0.00928916
0.133441
-0.119466
0.0369753
-0.0509501
-0.0450176
0.0364868
0.0218881
-0.0133573
-0.0526116
0.0523899
0.000221652
-0.047777
0.0296442
0.010711
-0.046724
-0.0108371
0.04685
-0.00211793
0.161183
-0.161126
0.00206069
0.107658
0.0159359
-0.0160654
0.0507685
0.008576
-0.0512113
-0.00813315
-0.0145475
0.0047115
0.0107579
-0.000921854
-0.00956183
-0.00542765
0.00471334
0.0102761
0.0660154
-0.0377321
-0.0526103
0.024327
0.0295393
-0.0152674
0.0240578
-0.0383297
0.0267518
-0.0936808
0.0896377
-0.0227087
-0.00593291
0.000487802
-0.00910244
-0.0943256
0.106896
-0.0228783
0.0103078
-0.0114677
0.0481144
0.014055
-0.0507017
-0.00405709
-0.000730122
0.00320879
0.00157842
0.0839903
-0.00465508
0.0508677
-0.130203
3.61791e-05
-0.000677386
-4.8656e-05
0.000689863
-0.0671493
0.0589146
0.0742274
-0.0659927
0.00319101
0.000724658
-0.00220094
-0.00171473
-0.0776111
0.0754501
0.00216099
0.0635341
-0.060134
-0.00340012
0.0604814
-0.000790017
-0.0596914
-0.0107733
0.123532
-0.000566756
-0.112192
0.00987073
-0.0310929
0.0328559
-0.0237677
-2.45428e-05
-0.0562303
-0.0675128
0.0115386
0.0663718
-0.0103976
-0.0133513
-0.00214348
0.000100445
-0.000400196
3.12836e-06
0.000296624
0.00122657
-9.2408e-05
-0.000254839
-0.000879328
-0.0634868
0.00788553
-0.00150585
0.0571071
0.000356756
-0.00549596
0.00196317
0.00317603
0.0122972
-0.0147454
-6.03037e-05
0.0025085
0.0082386
-0.00673501
0.0107936
0.0556884
-0.00957158
-0.0225856
-0.0235312
0.0361772
-0.00533418
-0.0364058
0.00556283
0.000110245
0.06682
-0.000290408
-0.0666398
0.00757382
-0.0712455
0.0191564
0.0445153
-0.0431562
-0.031687
0.0415755
0.0332677
-0.0354831
0.0218298
-0.0912525
0.104906
-0.000992106
0.0153451
-0.00785572
-0.00649724
0.0489741
-0.0587854
0.0472988
-0.0374875
-0.0626519
-0.00678118
-0.00802307
0.00100033
-0.000342762
0.00437796
-0.00503553
-0.0122007
-0.00274621
0.00177696
0.0131699
-0.00823682
-0.00939495
0.0109004
0.00673138
-0.000146516
-0.00223755
0.00146375
0.000920321
-0.000279854
0.00034742
-6.75655e-05
0.00161661
-0.0741349
-0.0276726
0.100191
-0.000150191
-1.30246e-05
-0.00146851
0.00163173
9.26228e-05
-0.000287777
-8.47004e-05
0.00273931
-0.0656528
-5.91303e-05
-7.4735e-05
0.000481285
0.000593782
0.000195623
-0.000373444
-0.000415961
-0.0281805
0.0631735
0.0785474
-0.11354
-0.00925233
-0.00220115
0.0072894
0.00416408
-0.0146684
-0.000354103
0.00577021
-0.00539173
0.00551217
0.0133327
-0.0134531
-0.000354051
0.000528056
-0.000233135
-0.0667672
0.0675567
-0.000789552
0.0303591
0.0472655
-0.0600953
-0.0175293
0.011568
-0.075397
-0.0213919
0.085221
-0.0136631
0.00272323
0.00554811
-0.004551
-0.00646717
-0.00264489
-0.0166139
0.0586804
0.0128427
-0.0549092
0.0693477
0.00488679
-0.0541655
-0.020069
0.000251529
0.000411029
-0.000709527
4.69693e-05
-6.91806e-05
-0.000192247
-0.00267317
-0.00117031
-0.0013965
0.00523997
0.0650913
-0.0459285
0.0120502
-0.031213
-0.000851105
-0.00268996
0.00138781
0.00215326
-0.0173494
0.0104181
-0.00269841
0.00962974
0.00123064
-0.101519
0.101433
-0.00114374
0.00317363
0.000806296
-0.0106525
0.00667253
0.0104171
-0.0109096
0.00154899
-0.0010565
0.00992405
0.00405371
-0.0108041
0.0367726
0.0562776
-0.0279589
-0.0272754
0.0548039
0.02819
-0.0557185
0.0277555
-0.0550309
-0.000901197
0.000620605
-0.0329478
0.0124732
-0.0100479
0.0792176
0.023407
0.0073892
0.0696908
-0.0542073
0.0978176
-0.113301
0.00483252
0.092556
-0.0973886
-0.0069812
-0.0072622
0.0136378
0.000605582
-0.0342092
-0.0869536
0.0275803
0.0935824
0.0218569
0.0615586
-0.0243681
-0.0590474
-0.0235282
0.113238
-0.052937
-0.0418496
0.0448983
0.0517552
-0.055838
0.0558143
2.37106e-05
-0.0391189
0.0367277
0.00239118
0.0396461
-0.0779767
0.0725741
-0.0342435
0.0676475
-0.0842614
-0.0100143
-0.00812598
0.0111591
0.000735026
0.000622685
-0.000488469
-0.000869242
-0.00581878
-0.0426525
-0.00736673
0.00123082
0.00149366
-0.00263458
-8.98931e-05
-0.0574082
0.051874
0.0855309
-0.0799966
0.0366938
-0.0336628
-0.00303103
0.0130456
0.0199395
-0.0138101
-0.0191749
0.00421934
-0.00039841
0.00218339
-0.00600432
-0.0644374
-0.000789537
0.0200878
0.0451391
-0.00295134
0.00667242
0.000498255
0.0389722
-0.109387
0.104738
-0.0343232
0.0460694
0.0133511
-0.0593722
-4.83267e-05
-0.00364836
0.00697572
0.00171433
-0.00504168
0.000152709
0.0606337
-0.0607864
0.03816
0.00671709
0.0150846
-0.0599617
0.0043313
-0.00734062
0.00261091
-0.18443
0.0283314
0.163583
-0.00748433
0.0399
-0.0109346
-0.0289655
-0.00126204
-0.00151512
-0.00117838
0.00395555
-0.0421178
0.0463309
0.125168
-0.129381
-0.00192137
0.000690794
-0.00191993
0.00315051
0.0914271
-0.0021014
-0.0432563
0.000506502
-0.00126124
0.00204902
-0.00129428
-0.0191484
-0.116735
0.0160697
0.119814
0.00370127
0.0524432
-0.00409137
-0.0520531
0.0486356
-0.0702642
0.0605005
-0.038872
0.031906
-0.0365457
0.0487132
-0.0440735
0.00832119
-0.00148356
0.00559784
-0.0124355
0.0012434
-0.0443907
0.0533807
-0.0537052
-0.0362213
0.0971356
0.0177697
-0.0244121
-0.0904932
0.0465335
0.0187936
-0.133624
0.0682972
-0.00189728
-0.0086362
0.00631136
0.00422211
0.0277835
-0.0498283
-0.0032506
0.0288235
-0.0265894
0.00737613
-0.00587989
3.18655e-06
-0.00149943
-0.0863289
0.00263836
0.000161426
0.0711723
-0.149013
0.0776791
-0.0277487
-0.0874933
0.0409722
0.0742698
-0.0728639
0.02037
0.00316594
0.0493279
-0.0431612
0.0290522
0.0102935
-0.0826342
0.0955968
-0.0129626
-0.0209429
-0.00946116
0.117715
-0.0873106
-0.00365347
-0.00381448
0.00611689
0.00135106
-0.0258024
0.0591796
0.0406464
-0.0721682
0.0280335
-0.000824386
-0.000407251
-0.00103873
0.00227036
0.0465661
-0.0490038
0.0545199
-0.0376214
-0.00719915
-0.0448515
-0.123432
0.0476859
0.0757461
-0.0429207
-0.0325211
0.0276648
0.00304493
-0.00222225
0.000866256
-0.00168893
0.00291814
-0.000458894
0.000585682
-0.0864598
0.00362607
0.0828337
0.0613061
0.0125289
-0.122171
0.0483363
-0.0710893
0.000569013
0.0705202
0.00130292
-0.00165287
0.00857314
-0.00822319
0.0486864
0.156518
-0.226465
0.0212609
0.00188969
-0.00233453
0.00137359
-0.000928751
-0.0916438
0.0649432
0.0265297
0.000170863
-0.000498793
-2.18592e-05
0.00195861
-0.00143795
-0.000630964
0.00834994
-0.00851623
0.000797259
0.00760534
0.00789781
-0.014762
-0.000741164
0.0407731
0.0124635
0.00304985
-0.00279437
0.00163422
-0.0985654
0.10527
0.00715493
-0.0138598
0.0123946
-0.0674328
-0.0234175
0.0784557
0.00196661
-0.00451474
0.0876452
-0.0850971
-0.0389809
-0.0358029
0.084949
-0.0101652
-0.0407211
0.0245481
0.0406135
-0.0244405
0.0535744
0.0206882
-0.072132
-0.00213068
-0.00122529
0.000176967
0.001415
-0.000366671
-0.123547
-0.0432225
0.0396868
0.127082
0.0483522
-0.0376412
-0.0319374
-0.0376325
-0.031005
0.100575
-0.0018285
0.00426041
0.000463396
-0.00289531
-0.0309752
-0.0805229
0.0287062
0.0827919
-0.029704
-0.0284926
0.0205751
-0.000720983
-0.00332976
-0.00163952
0.00309629
-0.0038148
0.00235803
-0.00575097
0.00559307
0.0253758
-0.0774334
-0.0854498
0.137507
-0.00052882
-0.000109909
0.000312648
0.000326081
0.0571908
-0.0603491
0.0480872
-0.0449289
-0.014916
0.0446914
-0.00788944
-0.0218859
0.0869775
-0.0863431
-0.0187749
0.0181405
0.0265742
0.0222625
-0.0635079
0.0146712
-0.127354
0.0739089
0.0184169
0.0350282
-0.00533397
0.00325046
8.95349e-05
0.00199398
-0.00825524
0.00970743
-0.000149267
-0.0134701
-0.00372135
0.0179504
-0.000758928
-0.0616823
-0.00481945
0.0139166
0.0525852
-0.00809227
0.103084
-0.00508215
-0.0899096
0.00893076
-0.0474315
0.0807846
-0.0422839
-0.00145772
0.00417857
-0.00147749
-0.00124336
-0.0152523
0.000339295
-0.00205204
0.016965
-0.105976
0.00493417
0.0130728
0.0879686
-5.31669e-05
-0.000297742
0.000522125
-0.000171216
0.0372819
0.00801749
0.0270901
-0.00507574
0.0464131
0.0527691
-0.0941065
-0.000227074
0.000386353
-0.000212447
-0.000507783
0.00219457
-0.00149826
-0.000188525
0.0172376
0.11137
-0.0479279
-0.08068
-0.000252232
-4.55101e-05
0.000126802
-0.000379034
0.061775
0.0170198
-0.0922126
0.0134177
-0.157163
0.08601
0.0772059
-0.00605267
-0.0181273
0.000189125
-0.0515481
0.0694863
0.0248702
-0.0145152
0.0167178
-0.0270728
-0.066459
-0.023095
0.089554
-0.0779783
0.0386747
0.0393035
-0.0017992
-0.000402771
0.000765363
0.0014366
-0.0378957
0.0410095
0.00777757
-0.0108913
0.0464755
-0.0544788
0.00800334
-0.060434
0.0336402
0.0450345
-0.0182407
0.004533
-0.00280779
-0.00156233
-0.000162888
-0.00326794
-0.00246689
0.000400855
-0.0422111
-0.0417869
0.0470759
0.0141872
0.00263385
-0.063897
0.00191333
8.27783e-05
-0.0016636
-0.000332506
0.00346343
0.00666018
0.00257222
-0.0126958
0.00711184
0.0228716
-0.0409743
0.0109908
-0.0190147
-0.0154557
-0.00924007
0.0437105
-0.0749532
-0.0100467
0.0293956
0.0556042
-0.00183627
0.0152005
-0.00829719
-0.00506706
-0.0529373
0.000626158
0.0332965
-0.000229354
0.0253526
-0.135695
0.126349
-0.0160067
0.0285974
-0.0345681
-0.0518165
-0.0271111
0.0548665
-0.000420547
0.0406952
0.00372486
-0.0439995
-0.055123
-0.059959
0.115082
-0.00323864
-0.00103417
-0.00176069
0.0060335
0.00316317
-0.00479322
0.00171424
-8.4183e-05
0.0369415
-0.00638492
-0.0281776
-0.00237898
-0.00326831
-0.00232185
0.00235152
0.00351902
-0.0108013
0.0659842
-0.058702
0.0761432
-0.00028263
0.0271763
0.00981085
-0.00686523
-0.0301219
0.0586201
-0.000796048
-0.057824
-0.0530145
0.113702
-0.028424
0.0596855
0.0200933
-0.0513548
-0.0169517
-0.0254413
0.0178996
0.0244934
0.00307691
0.00377111
0.000862141
-0.00771016
-0.0342138
-0.0379649
0.0993381
-0.0271595
0.0454071
-0.0367928
-0.000621005
-0.00799323
-0.0489162
0.116187
-0.0518829
-0.015388
-0.00132652
0.00159639
-7.70814e-05
-0.000192783
-0.000531666
0.0214182
-0.0048572
-0.0160293
0.00307331
0.003802
0.000283178
-0.00715848
-0.000293573
-4.17952e-05
2.95515e-05
0.000305817
3.9663e-05
-1.10914e-05
-0.000322145
-0.009243
0.0230496
0.0702968
-0.0841035
0.0799773
-0.0814554
0.00147816
0.000285733
-0.000275697
-1.0036e-05
-0.0127233
0.000977255
0.00231087
-0.00132483
-0.00196329
-0.00832675
-0.00646302
0.00620882
0.00858095
-0.0557568
0.0273327
0.000302433
0.000218725
-0.000786397
0.00026524
0.0335104
0.055171
-0.0352749
-0.0534065
0.0117556
0.159488
-0.179865
0.00862095
0.0582926
0.0632949
-0.061902
0.00190916
-0.0136653
-0.00187335
0.0136295
-0.0334039
-0.0301135
0.0635174
0.0311188
-0.0645227
-0.0544286
-0.045023
-0.0655114
0.164963
0.0497279
-0.0555339
0.00580603
-0.0728953
0.134782
-0.0714585
0.0329494
-0.0299898
0.0860465
-0.00350837
-0.0690266
-0.0135115
0.0696735
-0.0699867
0.0116354
-0.0113222
0.000137148
-0.00623502
0.00716415
-0.00106628
0.000581359
-0.00449122
0.0067908
-0.00288094
-0.000239782
0.000225874
0.000647929
-0.000634021
0.0222028
0.023351
-0.0337768
-0.0117769
-0.00541519
-0.00490126
0.00620778
0.00410866
-0.0108956
0.0320871
-0.042759
0.0215675
0.00114234
-0.00857482
0.0106874
-0.00325498
0.0485103
-0.00415502
-0.0443553
0.0380458
0.03574
-0.126564
0.052778
-0.0978988
0.0599833
0.0759613
0.0329809
-0.0997609
-0.0469281
0.107883
-0.0370661
-0.0238893
0.00163034
0.00923779
-0.0124605
0.00159241
0.0272241
-0.00228946
-0.0249347
-0.0305188
0.0435741
-0.0039165
0.0202937
-0.0314676
0.000940119
-0.000201458
0.00110782
-0.00184648
0.0117563
-0.0383457
-0.000538783
0.000170118
0.000336444
3.22208e-05
0.00279752
-0.000417737
0.00108524
-0.00346502
-0.000735887
-0.00256437
-0.0782178
-0.0127612
0.00155418
-0.0119062
0.0231132
0.020121
-0.0905985
0.0208962
0.0495813
-0.00340981
0.0581826
-0.0818286
0.0270558
0.000697737
-0.000432808
0.000336736
-0.000601665
0.0791807
0.0125647
0.00227799
-0.0940234
-0.000346047
-0.000780246
0.00122026
-9.39643e-05
0.00499918
-0.000826525
-0.0690826
0.06491
0.00679573
-0.00117311
-0.00506364
-0.000558979
0.00651029
0.00462364
-0.00369468
-0.00743925
-0.110416
0.0964068
-0.087541
0.10155
-0.0540875
0.109173
-0.0550855
0.00231555
-0.0437322
0.00865321
0.0327635
0.0037326
-0.00352398
0.000687838
-0.000896449
0.0493119
-0.00275614
0.00117984
-0.12953
0.00243904
0.0740766
-0.0342055
0.000110553
0.0013406
0.0326471
-0.0264647
-0.00752295
0.0781821
-0.0307726
0.0342075
0.00419039
-0.00511943
9.75494e-05
0.000831491
0.034353
0.0238711
-0.0759153
0.0176912
9.90211e-07
3.34816e-05
-9.89517e-05
6.44799e-05
-0.000475845
0.0015365
0.00544964
0.000147533
-0.00809336
0.00657771
0.00570604
0.074625
0.0407458
-0.0370554
-0.0783154
-0.130912
0.141936
-0.00936416
-0.00166067
0.0315439
-0.0326968
0.00115296
-0.0368899
6.93924e-05
0.000378643
-0.00323653
-0.00226155
0.0146552
0.206763
-0.158924
-0.0624946
0.0293333
-0.0610153
-0.018068
0.04975
-0.00309107
0.038942
-0.00102669
-0.0851832
0.0472679
-0.0231635
0.0101447
-0.0380233
0.0476847
0.0461518
-0.0558133
-0.066801
0.0895047
-0.152049
0.129346
-0.000202396
4.75264e-05
-0.00145369
0.00160856
0.000183506
0.00231349
-0.000622046
-0.00187495
0.0432158
-0.0143986
0.0379988
-0.066816
-0.00357024
0.00034151
0.00344589
-0.000217165
-0.0118009
0.0104715
-0.036694
0.0122054
-0.0462158
0.00593502
-0.00325989
0.0185838
-0.0212589
-0.137758
0.0189195
0.129741
-0.010903
0.030994
-0.0214812
-0.0131222
0.00360934
0.0345098
-0.0529233
0.00661262
0.00438733
0.0077029
0.0521465
-0.0642367
0.0247221
-0.00709457
-0.0251558
0.00752826
-0.0794935
-0.0084047
0.0148578
0.00124915
-0.00111914
5.34935e-05
-0.000214048
0.0029046
0.00213392
-0.00482447
0.0184389
-0.0321167
0.0383999
0.0179832
-0.143325
-0.0230061
0.148348
-0.113604
-0.0150362
0.0261958
0.102444
0.0571458
-0.0348781
0.0284296
-0.0506973
0.111984
-0.00612403
0.00314521
-0.109005
-0.0169854
-0.0370856
-0.00423265
-0.0163985
0.00827945
0.0123517
-0.00131207
0.000455556
-2.1406e-06
0.000858651
0.0153168
-0.0778026
0.0624858
0.108715
-0.00708002
-0.112408
-0.0264029
0.0558242
-0.0464068
0.0397151
-0.122224
0.015045
0.0674643
-0.00395323
-0.0122191
-0.0269094
0.0430818
0.0037845
0.0502828
0.0860332
-0.134615
-0.00170133
0.0492358
-0.0829505
0.0890088
-0.0552941
-0.0959744
0.0959532
-0.00740022
0.00742139
0.0026133
0.00447961
-0.0950147
0.0879218
-0.00177144
0.00362208
0.00611893
-0.00796957
0.000251232
-0.000966252
-0.000288434
0.00100345
0.0890994
0.000688723
-0.0173832
-0.0724049
-0.000781209
0.000756718
2.99473e-05
-5.4559e-06
0.000723995
0.00329896
-0.00230242