/*--------------------------------*- C++ -*----------------------------------*\
| =========                 |                                                 |
| \\      /  F ield         | OpenFOAM: The Open Source CFD Toolbox           |
|  \\    /   O peration     | Version:  2506                                  |
|   \\  /    A nd           | Website:  www.openfoam.com                      |
|    \\/     M anipulation  |                                                 |
\*---------------------------------------------------------------------------*/
FoamFile
{
    version     2.0;
    format      ascii;
    arch        "LSB;label=32;scalar=64";
    class       volVectorField;
    location    "0.075332";
    object      U;
}
// * * * * * * * * * * * * * * * * * * * * * * * * * * * * * * * * * * * * * //

dimensions      [0 1 -1 0 0 0 0];

internalField   nonuniform List<vector> 
47425
(
(10.2739 0.213928 0.00553121)
(10.1134 -0.239314 -0.00512818)
(9.99797 -0.000128485 -0.012498)
(11.6104 -0.53579 -0.242754)
(12.6504 0.343475 0.706195)
(10.0295 0.00599448 0.00101445)
(12.5527 0.181278 0.697512)
(10.0222 0.00816123 0.00157357)
(10.0047 0.0086574 0.00585303)
(1.3626 3.7163 -1.95602)
(9.99938 0.0106407 -0.000491762)
(9.9898 0.0671484 -0.00764494)
(12.3462 0.32742 0.235871)
(10.0039 0.00287544 -0.00832629)
(11.2105 0.0732825 -0.151919)
(10.1125 -0.217123 -0.00343765)
(10.018 0.00295341 -0.00829306)
(8.79943 -0.540393 -1.51838)
(8.70345 1.33332 -5.14075)
(13.7191 -0.518435 -1.12356)
(10.9469 -0.698188 -0.623246)
(9.7996 -0.0423547 -0.0255314)
(9.95618 0.019409 -0.00350457)
(9.95261 0.0102816 0.0126384)
(9.90357 -0.0836331 -0.00461391)
(10.0138 0.0340197 0.00449544)
(9.99241 0.0229621 -0.00415264)
(11.5402 -0.421443 -8.95671)
(10.0014 0.0196647 -0.00323867)
(10.0147 0.0222235 0.0188632)
(9.69077 0.752794 0.00681048)
(10.0451 0.0899147 -0.00258725)
(10.0019 0.00663539 0.00605943)
(9.98983 0.00584995 0.0107781)
(10.0128 0.00513682 0.00568198)
(9.9707 -0.00487797 0.0107235)
(9.7386 -0.0234025 -0.0922563)
(10.0017 0.0165414 0.00764876)
(10.5532 0.443436 -0.0193785)
(10.1041 0.0658238 0.0122848)
(9.85865 0.18389 -0.00883761)
(9.38565 0.166819 -0.835359)
(5.70189 -2.76404 -0.565521)
(9.98337 0.0133648 0.00525928)
(0.0847633 -1.95296 -0.0233371)
(9.96927 0.087486 0.00225802)
(9.96341 -0.00435579 -0.0151064)
(9.99535 0.0294005 0.00591455)
(10.1194 -0.0802881 2.56608e-05)
(10.0691 0.0114584 -0.00788527)
(2.15983 -0.629346 -5.90926)
(9.02848 1.27769 1.36697)
(10.0492 -0.0126388 0.00839836)
(6.44957 -4.83658 1.5839)
(10.0017 0.0595462 -0.00793985)
(10.212 0.0168839 0.0224171)
(10.2852 -0.182764 0.0305004)
(10.0101 0.00513876 0.0233)
(11.9956 1.37869 1.55811)
(9.9933 0.0253483 0.0119209)
(5.37155 -4.77604 1.03912)
(5.40073 -0.739212 2.25877)
(3.34724 -2.25531 0.295483)
(9.04146 -1.19022 -0.0972912)
(10.0074 0.0107125 -0.00696679)
(10.8354 -0.37287 -0.00738947)
(9.98699 -0.0111686 -0.00667868)
(10.7769 0.269737 0.631811)
(7.64822 -3.7346 1.94692)
(8.98298 0.566909 0.298093)
(10.8173 -0.657813 0.134736)
(10.0654 0.0156245 0.00351696)
(11.0242 -0.16934 -0.0211844)
(10.8713 0.298371 -0.641997)
(3.32618 1.15777 0.00664242)
(9.99894 -0.00376572 0.000650354)
(3.48362 -2.05309 0.946158)
(9.97387 -0.0194836 0.00608912)
(5.94253 -2.23206 1.31114)
(11.9892 -0.118973 1.50549)
(3.78001 0.769787 0.137364)
(10.2252 0.346221 -0.0125917)
(9.18392 0.147098 -0.34246)
(10.0138 0.0123252 -0.0064858)
(9.58335 -0.00105496 0.0865491)
(10.321 -0.0652621 0.0170115)
(10.8589 -0.111078 -0.0476797)
(10.1794 0.130179 -0.00348834)
(11.1364 -0.06668 -1.59967)
(11.0795 -0.739984 2.03795)
(9.75312 0.447629 -0.0510044)
(10.7097 -0.00673533 -0.0373199)
(10.0521 -0.00317889 0.0101507)
(10.1853 -0.0540736 0.00469042)
(10.1403 -0.0541976 0.0145059)
(10.0931 -0.00971315 0.00176829)
(10.0468 -0.0129642 -0.00517365)
(10.4 -0.319404 -0.00482599)
(10.232 -0.0407012 0.0118369)
(10.0431 0.0177882 0.0257833)
(10.0208 0.036994 0.00274186)
(8.73822 0.122402 -4.15574)
(10.3034 0.185239 -0.00704387)
(5.32235 1.94685 -0.80388)
(10.3094 0.166588 -0.0324256)
(10.7675 -0.765255 0.0314214)
(10.1653 0.294826 0.0717008)
(10.2053 -0.0745941 0.00728055)
(8.72089 -0.135088 -0.451114)
(9.96045 0.0782893 -0.00403513)
(-0.309852 -1.0534 -0.54848)
(10.0048 -0.0808663 0.000715128)
(10.6948 -0.960969 0.0737856)
(10.3547 -0.0206952 -0.00563227)
(11.026 -0.436482 0.021568)
(1.7978 -4.151 -5.93456)
(11.0251 -0.388894 0.010806)
(4.07011 0.0369465 -4.43329)
(10.3889 0.160338 0.000492356)
(11.2148 0.388268 0.415056)
(10.4403 -0.0576019 -0.00300443)
(10.0002 0.00378617 0.00571442)
(9.99918 0.0530925 -0.00514672)
(11.8593 0.769693 -0.75234)
(10.0648 -0.0477565 -0.00192882)
(10.976 -0.815301 0.0468484)
(10.271 -0.102714 0.00193737)
(10.0072 0.00391854 -0.00699283)
(9.94754 0.00380103 0.00637017)
(10.0095 0.0308892 -0.00795921)
(9.19568 -0.310194 0.29523)
(10.6766 0.405644 -0.0435474)
(4.29786 0.0491066 0.48029)
(10.3844 -0.536298 0.025098)
(10.007 -0.0981415 -0.924731)
(12.1782 -0.531799 -0.942924)
(10.8939 0.898305 0.259612)
(10.9925 -0.859389 0.178844)
(10.15 -0.0908597 -0.00718281)
(11.1601 -0.0280725 -0.0575761)
(9.98209 0.00695103 0.00282785)
(12.0184 0.278276 0.297623)
(10.5143 0.0430004 -0.0351688)
(10.7116 -1.22731 0.121923)
(10.1941 0.227023 -0.0117967)
(10.0046 0.00526203 0.00582772)
(12.4618 0.193614 0.785637)
(10.0116 -0.0297686 0.0065692)
(10.4668 0.0229813 -0.013586)
(9.97574 -0.0174068 0.00662904)
(10.6273 -1.24854 -0.0200403)
(2.9293 -0.38845 -6.91777)
(10.007 0.014772 -0.0103681)
(5.60888 0.0967979 -11.4863)
(8.96947 -1.18168 -0.767807)
(9.97423 0.0949931 0.0128097)
(11.0333 0.474334 -1.70733)
(7.37454 -3.95666 -2.66385)
(10.1561 -0.0693971 0.0149847)
(9.98586 -0.00943945 -0.00455912)
(11.2937 -0.25663 0.000174653)
(10.0208 0.0588603 0.00887839)
(10.0148 0.0109638 0.0113586)
(10.1581 0.307025 -0.0106481)
(12.0676 0.192891 -0.515723)
(-0.517486 -1.72567 -2.08288)
(10.0145 -0.0289617 0.000121119)
(3.73542 1.00236 -0.0198503)
(9.94885 -0.00916187 0.0273598)
(12.1802 0.730329 -4.35005)
(4.79793 0.772799 -0.158153)
(9.98945 -0.00296793 0.00372044)
(10.0005 0.0236021 -0.00351574)
(9.44459 -0.991411 -0.66997)
(10.3071 -0.0282034 0.0265791)
(9.2994 -3.05395 -1.40365)
(2.77261 0.970899 -7.71357)
(10.0037 0.024809 -0.00574817)
(10.0275 0.0157586 -0.000367249)
(10.0475 0.00892909 0.000740969)
(2.61629 0.430776 -11.0471)
(10.071 -0.140131 0.0240445)
(10.013 0.0176113 -0.00745605)
(10.02 0.00826583 0.0123082)
(10.0376 -0.00112421 -0.00172081)
(10.0264 0.0239776 0.00423387)
(10.216 0.0867731 0.00172338)
(5.65796 -0.533068 -0.68162)
(9.82929 0.00473955 -0.00587142)
(10.1623 0.188709 0.066721)
(10.0008 -0.0102804 -0.00381847)
(9.98209 0.00242783 0.00163473)
(12.2483 -0.75629 -0.663785)
(9.9969 0.00155084 0.00365528)
(10.0227 0.0049226 0.0256794)
(11.2128 0.00877081 -0.0380835)
(10.0017 0.000989192 0.00749185)
(10.0162 -0.00722435 0.00816538)
(11.3799 0.0861027 -0.0426102)
(10.3796 -0.248641 0.075068)
(9.98211 0.0092703 0.00593152)
(10.4353 -0.051034 0.0138583)
(9.16991 0.316307 -0.214687)
(11.1832 -0.146494 -0.0380804)
(10.3277 -1.47742 -0.971036)
(10.6763 -0.0150177 -0.0453866)
(10.0009 -0.0111196 0.0120236)
(11.1565 -0.0476707 -0.0374954)
(9.99858 0.0899097 -0.0144771)
(10.0026 0.0131281 -0.00312056)
(10.3494 -0.171943 0.00395909)
(11.1575 0.12355 -0.00985284)
(10.0067 0.0249161 -0.000817096)
(9.95451 -0.017138 0.0190142)
(10.7467 -0.0595171 0.0242538)
(11.3894 0.153258 -0.162429)
(10.8239 0.0260744 -0.0621986)
(11.2559 0.186826 1.73827)
(8.69885 -1.29712 -0.691048)
(9.94451 -0.0400627 0.010141)
(11.8477 -0.511619 1.4852)
(11.2251 0.185055 0.180562)
(9.98549 -1.19133 -1.02181)
(10.9069 0.173717 -0.0221854)
(10.6626 -0.0070785 -0.0316275)
(11.9447 -0.749026 1.39295)
(10.0348 0.00387271 0.00776649)
(11.3068 0.170154 -0.0632358)
(11.5 0.225912 0.0658189)
(12.015 -0.0489461 -0.310371)
(10.823 0.0276522 -0.0614625)
(10.0069 -0.0143984 -0.004808)
(10.5498 -0.0899608 -0.00882245)
(10.0011 -0.00449086 -0.00047804)
(9.77667 -0.00602849 -0.00178853)
(10.0142 0.264801 0.0114458)
(11.7914 -0.0756135 1.54389)
(9.98105 0.0349266 0.000134023)
(12.1149 -0.00433107 1.37411)
(9.76815 0.000626974 -0.0455905)
(9.85993 -0.0112245 -0.00542991)
(10.005 0.0128604 0.0140519)
(10.0726 -0.0239811 0.0033682)
(11.7641 0.811257 0.0640453)
(10.4036 0.452968 0.00920784)
(10.0077 -0.0027299 0.0118707)
(10.3845 -0.0777065 -0.000820744)
(10.0107 -5.662e-05 0.00294987)
(10.0283 -0.0173743 0.00668581)
(9.96815 0.00256598 -0.0143012)
(9.99675 0.0688526 0.0207017)
(11.9731 -0.434504 1.51892)
(9.96909 -0.0062463 0.00849891)
(10.0032 0.0041784 0.00572166)
(9.91774 0.00091182 0.0118783)
(9.98282 -0.00396534 -0.00881725)
(9.85316 0.0664774 -0.0306467)
(9.73336 0.016744 0.0108614)
(10.4469 -0.694468 0.122914)
(10.0098 0.00099133 -0.00701833)
(9.73948 0.0252256 0.00676286)
(9.99859 0.0259324 -0.000621749)
(10.2305 0.0539384 -0.00947322)
(10.1278 0.0124296 0.00583806)
(11.9288 0.0323982 0.828354)
(10.4026 -0.493094 -0.135123)
(10.0347 -4.74803e-05 -0.00902933)
(12.0077 0.0571389 0.653593)
(10.0213 0.00178676 -0.0024824)
(10.2428 0.0879368 -0.00808135)
(10.1961 0.055215 0.000172352)
(12.2028 0.128056 1.14388)
(11.6737 0.111603 1.38567)
(10.1708 -0.167242 -0.0233477)
(12.0635 -0.17548 1.51505)
(10.0579 0.00362076 0.00525349)
(12.1351 -0.0137346 1.34199)
(6.63726 3.35567 2.17891)
(11.6498 -0.0100266 1.46458)
(5.93294 1.27752 -5.27382)
(4.68622 -4.94428 0.928928)
(10.2548 0.182334 0.00697221)
(3.62581 -4.60394 0.186688)
(9.87482 -0.00945676 0.0162362)
(9.99396 0.000328779 0.011592)
(11.3385 -0.166798 0.0165564)
(9.899 -0.00723928 0.0172853)
(9.96207 0.00196622 -0.0151032)
(9.80276 -0.202782 -0.00242754)
(11.0596 -0.520609 -0.123364)
(1.38292 1.73736 -3.70121)
(9.22546 0.81888 -0.0168772)
(10.0029 -0.00159582 -0.00213368)
(10.0142 -0.00535715 -0.020856)
(9.99932 0.000997416 -0.0154936)
(10.1903 0.386017 0.42478)
(11.6876 0.903785 0.241299)
(10.2017 -0.708476 0.0924418)
(10.0097 -0.137456 0.0102027)
(11.9394 -0.138627 0.0911261)
(10.141 0.165425 0.0330475)
(10.0783 0.0339958 0.00887248)
(9.95531 -0.0133298 5.36903e-05)
(10.0205 -0.00475449 -0.0123977)
(10.2015 4.13607 -0.555234)
(5.84737 1.78235 -0.475761)
(1.50677 1.21151 -6.3779)
(10.0337 0.000979806 -0.00686629)
(10.0911 -0.0393604 0.0147407)
(10.0469 -0.640029 -0.0695424)
(10.1728 -0.502733 -0.157394)
(1.25787 -0.763851 -5.89191)
(9.98178 0.000139736 -0.0142377)
(9.95326 -0.00145585 -0.0182552)
(10.8785 2.31256 0.745974)
(10.2551 -0.142627 0.0202134)
(9.85924 -0.00246501 0.00334038)
(9.81725 -0.00435057 0.0128732)
(9.90521 0.000946275 0.0110703)
(12.4385 2.49715 -1.03498)
(11.2856 2.01291 0.652789)
(10.0383 0.19116 -0.00899735)
(10.1043 0.140435 -0.00649708)
(10.0219 -0.00479672 0.00611011)
(10.3006 -0.0346738 0.00930701)
(10.0498 0.00274265 0.00193339)
(10.0828 0.244631 -0.00161978)
(10.1368 0.0494207 0.00698663)
(10.0465 -0.0148109 -0.0106529)
(9.98602 -0.0131471 0.00751777)
(11.5021 -0.0708793 0.25342)
(9.20767 0.298353 -0.315745)
(10.6198 -0.732787 -1.3937)
(9.99774 0.0143182 -0.00824454)
(9.96596 -0.00749043 0.00744314)
(10.0352 0.011557 0.0139308)
(9.3513 0.666046 -0.33612)
(9.97612 0.105077 0.000711731)
(10.0299 0.0182897 0.00319009)
(10.0237 -0.0202995 -0.0121473)
(10.0012 0.257437 -0.0480255)
(10.0064 0.287213 -0.0492863)
(10.1377 0.0986526 0.0172361)
(9.93964 0.272275 -0.0364865)
(10.047 -0.0155842 -0.00727085)
(10.042 0.00959168 0.00263637)
(9.99797 0.00402833 0.0161169)
(9.65634 0.462538 -0.199749)
(9.9542 -0.00203144 -0.00838424)
(9.95959 -0.0245596 0.000636775)
(9.99238 0.235995 -0.0447534)
(10.4267 -0.47128 -0.0835384)
(10.0803 0.249784 -0.0222453)
(9.95043 0.202963 -0.0279646)
(10.0009 0.191288 -0.0407853)
(11.1956 -1.38505 -0.228169)
(9.94621 0.00583967 0.00113008)
(9.19634 0.250028 0.0534997)
(9.97607 0.152399 -0.0209915)
(9.99535 0.021842 -0.00819131)
(9.49398 0.320172 1.93551)
(11.5483 0.00136293 -0.490471)
(10.1088 -0.0355317 0.00483031)
(9.93652 -0.00119182 -0.00415657)
(10.36 -0.441709 -0.0142838)
(10.7816 0.469736 -0.0737003)
(9.79027 -0.000706543 -0.00751344)
(10.0112 -0.00651074 -0.00888413)
(9.99595 -0.138601 0.0101585)
(10.2488 0.750928 -0.126619)
(9.82773 -0.00687018 -0.00737584)
(-0.840848 -1.91962 -0.300668)
(10.7565 -0.105385 0.0181948)
(10.06 0.986001 -0.107203)
(9.97933 -0.0018059 0.00751075)
(10.0526 0.871239 -0.0825501)
(10.9729 0.150915 -0.675765)
(10.012 -0.00276256 -0.00153118)
(10.0034 0.00581048 0.00423763)
(9.76825 -0.020221 -0.0752431)
(10.0115 0.00320114 0.00448809)
(10.0721 0.882797 -0.132664)
(10.1241 -0.104673 -0.00729656)
(10.0058 0.0239324 0.00638593)
(9.95626 -0.0353754 -0.00206617)
(10.0021 0.0182152 0.00598816)
(9.98533 -0.0125113 0.00723368)
(10.2321 0.17955 -0.00881984)
(10.001 0.00668182 0.00863157)
(9.97626 0.0238695 0.00792081)
(10.5691 0.931085 -0.34811)
(10.3674 1.13854 -0.399185)
(9.96357 -0.0108249 0.00202635)
(10.5067 -0.540356 0.0105627)
(9.97976 -0.0119522 0.0152707)
(10.4957 0.87352 -0.305373)
(9.96014 -0.0698807 0.00383563)
(9.97482 -0.00195195 -0.000923991)
(12.2363 0.573934 -0.478637)
(10.0377 0.00422504 -0.0126279)
(10.7109 -0.0483118 1.24354)
(10.0635 0.000763714 -0.00100262)
(9.76749 1.44186 -2.36146)
(9.94092 -0.00165047 -0.00477138)
(10.7215 0.139772 0.0104955)
(9.95087 -0.00194691 -0.017225)
(10.0246 0.0236896 -0.0132883)
(9.82184 0.00603893 0.00465607)
(10.0383 0.00885593 0.00719105)
(9.97351 0.00206434 -0.0134281)
(10.3658 1.01909 -0.306671)
(1.12649 -1.73942 0.808532)
(2.04122 -0.699146 -2.62654)
(10.0886 0.0744514 0.00282305)
(10.3764 1.53526 -0.953753)
(10.76 0.763165 -0.346757)
(10.8613 0.719481 -0.336935)
(9.99148 -0.0136584 0.0287857)
(9.98998 0.00681094 0.00205038)
(9.96454 0.0180222 0.0109632)
(9.8735 0.00245613 -0.00669373)
(9.95582 0.00481002 0.00255823)
(10.1616 -0.2431 0.00973733)
(10.8718 0.658434 -0.230687)
(9.94766 -0.0203946 -2.59761e-05)
(10.0383 0.00799697 0.0059841)
(11.5635 -1.14384 0.0942824)
(11.5941 0.529493 -0.239131)
(11.2193 0.596785 -0.193243)
(8.11214 -1.32981 -5.20562)
(-0.0272414 3.59268 0.572719)
(10.6869 -0.316622 0.0305413)
(7.45007 -0.981685 -5.75084)
(-0.0859286 3.4254 0.819843)
(9.80786 -0.220468 -0.00888692)
(-0.133957 3.48823 0.729015)
(9.39254 -0.588673 1.04978)
(10.0113 -0.0600296 0.0131549)
(11.1126 0.6677 -0.362505)
(11.0577 0.725255 -0.390459)
(11.3568 0.627315 -0.35495)
(-0.961125 2.58261 1.00769)
(10.2286 0.131558 0.00648183)
(10.0157 0.0243868 -0.00211098)
(10.0029 -0.00863152 -0.00894143)
(11.4319 0.661686 -0.469839)
(11.3005 0.705365 -0.534928)
(10.105 0.0209698 0.0186061)
(10.1308 0.130233 0.0282743)
(9.73625 3.24499 1.99129)
(-0.846194 2.60883 1.02101)
(13.0533 -0.538244 -3.1827)
(10.0065 -0.0146233 0.00825545)
(8.83581 -0.761678 -3.36919)
(10.2961 0.503965 1.22057)
(10.0041 -0.073017 0.00478349)
(11.0253 0.481973 -0.0581809)
(12.1402 0.226641 0.247087)
(11.0056 0.391634 -0.047415)
(9.99486 -0.0182935 0.00494476)
(9.99861 -0.00492781 0.0069497)
(9.98289 -0.00685492 0.000576189)
(10.468 0.422925 -0.0152962)
(9.99928 0.00187496 -0.000397997)
(9.99684 -0.0198458 0.0340314)
(10.1569 0.0735569 -0.0169503)
(9.95542 -0.00345648 -0.0160975)
(11.1936 0.262757 -0.0709127)
(10.0169 -0.0139728 -0.0178934)
(9.97749 0.0344352 0.000652039)
(9.99625 -0.0197489 0.00164109)
(10.0058 -0.00737445 0.00866412)
(9.96238 -0.000536567 0.00485296)
(10.3934 0.344958 -0.0175823)
(10.1028 0.0512189 0.0024083)
(10.0991 0.0145576 0.0257682)
(11.1054 0.269277 -0.0613636)
(8.74399 3.6437 1.57874)
(9.97268 -0.00508448 -0.000883304)
(12.0396 1.53013 -1.53983)
(9.99709 -0.00824743 -0.00259347)
(11.0194 -0.0263532 -0.0454929)
(7.22312 -0.712272 2.41522)
(9.77813 1.4561 -0.64748)
(10.0123 0.0300365 -0.000845626)
(9.84597 1.53539 -0.721346)
(10.0079 0.0259728 0.00704869)
(10.0341 -0.0138171 -0.00830119)
(10.0952 1.3187 -0.950164)
(9.98138 -0.003886 0.0138841)
(10.7792 -0.229503 0.0118717)
(9.96851 1.21546 -0.667851)
(10.3178 -0.0800739 0.026173)
(10.6522 0.0954995 -0.283024)
(8.26317 0.326318 -4.22289)
(10.0936 -0.0436213 0.0180625)
(9.62293 1.91766 -0.67493)
(10.05 -0.0176026 0.00234131)
(9.03786 2.046 -1.10124)
(10.1375 -0.14341 0.0388945)
(10.0123 -0.00896571 0.00955941)
(9.99259 0.0211762 0.000770967)
(9.99344 0.00991793 -0.015992)
(10.7019 1.11821 0.843597)
(9.96485 0.00828524 -0.0166873)
(9.99634 0.0122859 -0.0202249)
(10.0227 -0.0346696 0.0118306)
(9.94247 0.101504 0.0400136)
(11.1569 0.70726 -0.0184877)
(10.0187 0.00502429 -0.00128199)
(10.0075 0.00890867 -0.0002043)
(8.63353 0.324716 -0.648702)
(9.98072 -0.00438087 0.00365999)
(9.81227 0.137545 -0.0048262)
(10.1082 -0.192456 0.0556363)
(10.0805 0.0360141 -0.00862539)
(10.0625 -0.00225407 0.00519375)
(9.95223 0.0172909 0.00742411)
(10.0958 0.034432 -0.00547143)
(10.3768 1.35598 -1.10922)
(10.0034 0.00995426 0.00691668)
(9.98898 0.00449807 0.00285615)
(3.03259 -0.563688 -5.91789)
(9.98088 -0.00856476 0.00941503)
(10.0098 -0.010552 0.00404671)
(9.98053 0.134406 -0.0211127)
(10.0042 0.0111213 0.006959)
(12.6513 1.38922 -0.879208)
(12.766 1.08655 -0.649522)
(9.96647 -0.0071547 0.00162322)
(9.89727 -0.123974 0.00629085)
(9.88662 0.0233768 0.0216922)
(11.6135 0.148355 1.25737)
(10.05 0.0617434 -0.00615936)
(12.787 1.24414 -0.733523)
(9.99941 0.00611552 -0.00328575)
(-1.85402 -0.454722 1.29195)
(8.16521 -0.549486 -0.748769)
(9.13195 -0.902229 1.76848)
(10.0068 0.016364 0.0159207)
(12.7162 1.18935 -0.678957)
(10.0589 0.0197159 -0.00426514)
(10.1715 0.122847 0.0291432)
(9.98906 0.00114369 -0.0287874)
(9.48301 0.16076 0.0532122)
(10.0347 -0.000283361 0.0113509)
(10.0153 0.0264842 -0.0116311)
(6.18816 -1.37811 -0.8052)
(9.99173 -0.00146443 -0.0112012)
(9.93124 0.011469 0.00618915)
(10.0155 0.00774916 0.0226572)
(12.5252 1.53078 -0.792277)
(10.0568 0.024994 0.00310573)
(10.0077 -0.0155424 0.0023513)
(12.3697 1.45751 -0.823155)
(12.3089 0.956981 -0.363739)
(9.984 -0.0105298 0.0118082)
(10.0419 -0.012211 -0.00171487)
(-0.150965 1.93147 0.450185)
(10.0458 0.00956185 0.00264637)
(10.7567 -0.394721 0.111009)
(10.0107 0.0014922 -0.0113353)
(10.0503 0.0108055 0.0328627)
(10.0495 -0.0197263 -2.27208e-06)
(11.9452 1.0761 -0.432077)
(11.4611 0.279977 1.43028)
(9.20759 0.731666 0.759969)
(9.84556 0.125808 0.122764)
(10.0566 -0.0882036 0.0190484)
(10.0222 0.00306123 -0.00764654)
(12.6291 -0.502347 -0.20279)
(9.31292 0.249983 -0.459302)
(9.6989 0.0676975 -0.0732667)
(-0.0488636 1.76089 0.294854)
(10.0122 -0.0171247 -0.00624385)
(10.0404 0.00967921 -0.0148061)
(-0.284738 1.66785 0.42251)
(12.1498 1.71609 -1.27013)
(9.90211 0.0771236 -0.00611335)
(0.0232678 1.88136 0.329415)
(0.0199841 1.90732 0.436736)
(10.001 0.00876462 -0.00820445)
(9.99755 0.0144497 0.00166898)
(10.0236 -0.00168604 -0.00548203)
(9.59815 -0.347111 -0.0126844)
(9.99769 0.00378322 -0.00732677)
(9.9691 -0.0178849 -0.00219783)
(10.3698 -0.0741491 -0.40407)
(10.0179 0.273122 0.00361061)
(9.93522 0.0128997 -0.000731023)
(10.0359 0.0149346 0.0114457)
(12.5702 1.32556 -0.377528)
(11.8544 1.3528 -0.429933)
(9.96939 0.0104446 -0.000347847)
(10.4996 0.383685 -0.0306583)
(-3.62981 -2.27568 -0.109903)
(-2.17551 -3.20064 1.60674)
(10.8878 0.422546 -0.11973)
(9.93563 0.000695038 0.00663728)
(10.2621 -0.113328 0.152294)
(11.0403 -0.0933262 -0.794061)
(9.85539 -0.00162485 0.0109443)
(9.85658 -0.00506158 0.0126063)
(10.051 -0.0355239 0.0033165)
(10.3492 0.142742 0.00360792)
(9.97974 -0.0132862 0.00680882)
(10.8919 0.30054 0.325157)
(9.99922 0.00305084 0.000186957)
(13.1359 0.785779 -0.700395)
(10.3512 1.54032 -1.20731)
(10.7726 0.403395 -0.0654898)
(13.157 0.971345 -1.04279)
(10.0681 0.0341221 0.000767789)
(9.99481 0.00383377 0.0115474)
(10.3732 0.794376 0.135173)
(10.1693 -0.0993446 0.031622)
(10.0133 0.00845746 0.00467723)
(10.0042 0.00724621 -0.00329592)
(11.2214 0.470648 -0.584305)
(7.94578 -0.794094 -1.53328)
(10.0177 -0.00528137 -0.0086317)
(11.0267 0.138634 -0.0154152)
(9.96438 0.256402 0.00267533)
(11.2187 -5.2593 -2.50585)
(10.4204 -0.904307 0.847457)
(11.8746 0.0410061 0.949594)
(6.56728 0.288295 0.262967)
(6.33564 0.252157 0.106895)
(10.056 0.0191793 -0.0016788)
(9.94686 0.306218 -0.0651195)
(4.41973 0.140474 -0.201291)
(9.9733 0.00992959 -0.00185005)
(10.0485 -1.74671 -3.60819)
(7.95588 0.161521 1.77461)
(9.98431 0.00142931 -0.00224015)
(10.017 0.607431 0.366212)
(10.0145 0.00476356 -0.0135254)
(10.036 -0.00301834 0.0170963)
(10.0174 0.00179311 -0.000855852)
(13.3928 0.558548 -0.1944)
(9.97667 0.0103816 -0.00390967)
(9.98474 0.0044082 -0.0012261)
(10.0582 -0.0273733 -0.00651071)
(9.82088 0.000637158 -0.012626)
(10.0569 -0.0129213 0.0278411)
(9.9849 0.000570871 -0.00859714)
(10.049 0.0198682 0.00603144)
(9.87862 -0.056328 0.00274143)
(10.9881 1.18604 0.69445)
(9.29723 -0.859791 -2.49415)
(12.3528 3.74804 1.86526)
(10.7677 0.55624 0.022306)
(9.62557 1.48711 1.28654)
(10.0081 0.000246967 -0.00186726)
(9.27708 -1.00695 0.052293)
(9.97433 0.0133528 -0.000812944)
(10.0004 0.00216292 -0.0105748)
(10.0031 0.00395419 -0.00805311)
(9.99974 0.00124382 -0.00733249)
(9.98462 0.0184301 -0.00532859)
(9.20089 0.441391 -0.915023)
(11.13 0.799644 0.215067)
(9.98625 0.0141428 -0.0053019)
(10.2172 -0.579695 0.0555248)
(11.2266 1.65923 2.00011)
(9.9864 0.00570831 -0.000471286)
(2.18742 0.652166 0.73549)
(13.3256 -1.00583 -3.11462)
(9.96376 -0.0142013 -0.00566674)
(9.31828 -0.564403 -0.00044439)
(10.4634 0.0209261 0.0418522)
(10.024 -0.01084 -0.00645502)
(2.90328 1.20233 0.630781)
(10.0026 -0.0132852 -0.0035338)
(5.93233 -1.79656 -0.0372211)
(9.97399 -0.00252815 0.00593479)
(11.878 0.0136289 1.14461)
(12.1655 0.400887 -0.048191)
(9.96376 -0.0196095 0.00112888)
(9.91435 -0.00877156 -0.00779799)
(10.1726 0.614858 0.0375404)
(8.65444 -0.635174 -2.35534)
(9.92534 0.00254766 0.0155642)
(10.0275 0.00450709 0.000907872)
(10.3609 -0.00365347 0.000710622)
(12.4351 -0.0696016 0.703849)
(10.0013 0.00385158 0.00221512)
(12.4131 0.324003 0.23693)
(10.5022 -0.0161869 -0.0120814)
(0.247761 -0.204769 -0.45667)
(12.1138 0.322559 0.0656627)
(10.4341 -0.0148607 -0.00430634)
(12.243 0.321462 0.177574)
(10.0006 -0.00344285 -0.0036726)
(10.1185 -0.152517 0.00147098)
(10.533 0.422478 0.0168076)
(10.4818 -0.0544498 -0.0109046)
(12.4224 0.403912 0.0548091)
(9.99881 -0.0219671 -0.000208532)
(10.0697 -0.22672 -0.0230368)
(12.271 0.391696 0.0155831)
(9.95602 -0.0398036 0.000724715)
(10.521 -0.0558849 -0.00860444)
(9.98412 -0.0230217 -0.0125914)
(10.0378 -0.0159558 0.0160149)
(6.90946 0.371879 -5.24768)
(6.73541 -0.138191 -5.85144)
(9.66467 0.091679 0.355072)
(8.87101 0.387518 -4.28361)
(9.99069 -0.0243075 -0.0155559)
(9.9622 -0.0217525 -0.00754752)
(10.8647 0.65844 -0.27489)
(10.5027 -0.176371 0.0196285)
(7.83643 0.103334 0.817688)
(10.0136 -0.036001 -0.0129357)
(10.065 0.0530021 -0.0154181)
(9.99004 -0.0248792 -0.00367966)
(10.0195 0.0655337 0.0102412)
(5.29395 0.230732 -6.51335)
(3.68411 -1.27618 1.68817)
(9.97922 -0.0269416 -0.00362554)
(10.0164 0.0402647 -0.00724418)
(10.0243 -0.0723052 -0.00444957)
(9.89995 -0.0481683 0.00897147)
(10.214 -0.164349 0.0402994)
(9.97344 -0.0264749 -0.00448232)
(11.3314 -0.00826878 -0.0332158)
(11.8005 -1.28184 1.16549)
(10.1426 0.023399 0.0126162)
(10.041 0.022875 -0.0161407)
(10.0078 -0.024161 -0.00735896)
(10.0107 0.0482336 0.00640225)
(9.70287 0.207875 0.0278521)
(10.0163 -0.0202501 -0.00724368)
(10.7604 -0.159423 -0.029199)
(9.95317 -0.00976365 -0.000918524)
(10.0124 0.026826 -0.0127301)
(10.0814 0.0620498 0.00206858)
(9.27058 -0.88282 -1.31714)
(5.1776 0.699618 -4.9137)
(10.0641 -0.0829157 -0.00487004)
(-0.0960725 -2.04298 0.288893)
(9.99482 -2.53275 0.735649)
(13.2968 -1.19438 -1.19535)
(-0.125878 -2.07087 0.253669)
(10.4219 0.0519434 0.005743)
(5.77934 -0.33761 2.23162)
(10.5994 -0.509952 -2.66797)
(10.9048 -1.65039 0.36471)
(5.6835 0.307736 -3.90003)
(-0.214111 1.78942 0.732838)
(1.50996 0.638635 -3.71035)
(11.5804 -0.0587568 0.696232)
(10.8064 -0.0140965 -0.0640919)
(11.5192 0.0422296 1.30302)
(9.91879 0.00523089 0.00442613)
(3.71745 -0.286128 -0.420801)
(10.8618 0.0726754 -0.352383)
(10.7182 -0.0192072 -0.00888701)
(9.97503 -0.0571947 0.0411397)
(10.0076 0.0169941 -0.0372238)
(11.6521 0.147947 1.2275)
(10.0179 0.133493 0.0517433)
(10.2023 -0.0416813 0.0193469)
(9.95348 0.0158909 -0.000979692)
(-0.526829 1.09352 0.159486)
(8.11592 0.291526 -2.5741)
(10.0143 -0.00735616 0.0083111)
(9.98439 -0.00484882 0.00442011)
(5.03189 0.292212 -2.52315)
(5.92832 0.144447 -3.18264)
(10.7019 -1.44399 -1.11005)
(-2.07832 -2.65473 -1.1311)
(5.2942 0.214048 1.96014)
(4.04934 0.000763723 -4.01598)
(3.77636 -0.0571415 -4.87371)
(10.0054 -0.00408512 0.0103305)
(9.80722 -0.000215386 0.00196672)
(9.46806 -0.0270822 0.0165892)
(10.0178 0.00231992 -0.0101055)
(10.4162 0.0427046 -0.0158479)
(-0.277399 1.89898 0.410171)
(11.0053 -0.0270129 -0.267773)
(10.4682 0.0368563 -0.0181994)
(10.3355 0.0385992 -0.00833818)
(10.0516 0.0113086 0.0032436)
(-0.248055 1.81916 0.936566)
(-0.471706 1.89646 0.884644)
(10.0519 0.0228048 -0.0162285)
(10.413 0.00374801 -0.0289474)
(9.93248 0.017446 0.00221017)
(10.0396 -0.00334892 -0.00765861)
(10.3613 0.0188484 -0.00954313)
(10.0404 0.00199942 -0.0172553)
(9.68831 -0.00274999 -0.0761867)
(10.013 0.00546635 -0.00809768)
(10.0093 -0.00838527 -0.0078418)
(7.00464 -0.76618 -3.23649)
(10.0483 0.00264216 0.00616024)
(10.0383 0.0081273 0.00905843)
(10.015 -0.00142638 -0.0164597)
(9.85428 0.000232562 0.00552408)
(9.87006 0.00327646 0.00829667)
(4.27633 -0.588338 -2.55858)
(12.691 -1.24046 -0.74729)
(10.0308 -0.000100947 0.0111598)
(10.8936 0.434941 -0.218138)
(10.0176 0.0269869 -0.0137878)
(9.68112 -0.331289 0.095711)
(9.6447 -0.419192 0.14771)
(12.3218 -0.0476278 -0.0691929)
(9.85643 -0.00515785 -0.00405564)
(-0.196971 -1.09208 1.06901)
(12.4048 -0.170454 -0.118014)
(10.4942 0.138712 -0.00982378)
(10.8423 0.396915 -0.0441334)
(8.1217 0.321712 -3.52236)
(10.7052 3.12123 1.47335)
(9.98611 -0.00603599 -0.00642484)
(9.98511 -0.00691128 -0.00465159)
(11.5124 1.73967 2.12794)
(9.99618 -0.0550321 -0.00678353)
(9.99911 0.0332097 0.00534003)
(10.8358 0.785675 0.341506)
(9.97138 -0.00899273 -0.0058629)
(9.98353 -0.00317748 0.00143264)
(-2.70792 0.655185 1.53928)
(12.55 0.699085 -0.209509)
(10.5035 3.54225 -0.463602)
(10.0018 0.000663263 0.00484573)
(7.7285 0.592198 -2.73461)
(10.0116 0.00300172 0.00500834)
(12.0867 0.0958794 -0.289778)
(9.48898 -0.404588 0.238852)
(12.3867 -0.0786052 -0.060701)
(9.92465 0.00141792 0.00433357)
(9.2994 -0.43537 0.195065)
(-1.1965 -0.399465 1.21806)
(11.5008 1.8583 2.60903)
(12.5761 -0.437524 -0.904957)
(-0.806041 1.28098 0.816328)
(12.3565 0.289648 0.222976)
(10.5977 0.193036 0.0311991)
(9.96095 -0.00896377 0.0100482)
(12.2375 -0.220785 -0.258611)
(9.98998 0.00845319 0.00537869)
(12.5527 -0.0948389 0.0378188)
(-0.0855579 -1.33977 0.660351)
(9.992 0.0118596 0.00707888)
(12.8907 0.08601 -1.33814)
(9.88657 -0.00115663 0.00277789)
(9.88121 -0.00772413 -0.000856903)
(11.2787 -1.32162 -0.350792)
(9.92335 -0.0110922 -0.0067462)
(10.2731 0.12321 -0.0122216)
(8.08114 -5.77601 -0.0121788)
(9.50847 0.456443 0.0261336)
(9.99917 -0.240832 -0.0305739)
(12.8207 -0.600861 -0.0429765)
(10.6452 1.58277 1.08626)
(10.0302 -0.0203836 0.0108223)
(11.7782 -2.6424 -1.05466)
(5.2633 -0.90333 -0.240366)
(10.7483 0.0323903 -0.00355528)
(9.62758 -0.730859 -0.914316)
(10.039 0.132599 0.0302461)
(10.593 0.225531 0.0131919)
(9.97333 -0.0158114 -0.0091749)
(10.009 -0.0213652 -0.00396908)
(-0.632706 1.20517 0.112602)
(0.865926 -4.51652 1.91008)
(12.1709 -0.847434 0.305629)
(10.154 -1.41452 -0.663536)
(12.4029 -0.8504 -0.451576)
(1.07873 4.82038 0.991508)
(-0.833507 0.514907 -0.283473)
(9.22407 -3.61557 4.21307)
(10.0153 -0.0168046 -0.000204904)
(10.0024 0.0121693 -0.00978549)
(9.98898 0.0139304 -0.00395465)
(9.82613 -0.0315616 -0.00894979)
(1.76284 1.14847 0.845394)
(9.60622 -0.545618 0.156922)
(8.95468 -0.666693 1.01193)
(9.98731 0.0207833 -0.0091418)
(-0.1539 -1.59479 0.0997767)
(12.4779 -0.072437 -0.0758693)
(10.555 0.105702 -0.318749)
(10.1492 0.0365543 0.00951228)
(10.0272 -0.0162394 -0.0028284)
(10.1498 0.0343125 0.0132639)
(6.25202 -1.86637 -3.3209)
(10.0048 -0.00301234 -0.0071153)
(4.03243 4.24341 -0.783231)
(10.0302 0.00990545 -0.00487803)
(10.3392 -0.644922 -3.15409)
(9.98815 -0.00367184 -0.00294779)
(9.99887 -0.00612874 -0.00623535)
(10.0092 -0.0097762 -0.00745782)
(10.0144 -0.0101555 -0.0113193)
(9.98809 -0.0119153 0.00336115)
(12.6438 1.53877 0.539632)
(11.6352 0.343534 0.771634)
(8.92262 1.48608 2.35322)
(6.96632 4.0528 2.35093)
(9.35214 1.20958 0.41577)
(10.4334 0.560383 -0.0692559)
(11.1869 1.26012 0.0171132)
(6.65661 -0.458129 -3.00342)
(10.6895 -0.14952 0.0301693)
(12.4727 -0.40782 0.0841608)
(10.7244 -0.75143 0.0303861)
(12.265 0.0531489 -0.0543428)
(8.25633 -0.219682 4.36848)
(5.92188 -1.56929 2.48295)
(10.6941 -0.320624 0.181047)
(9.99942 -0.00947666 0.00510429)
(9.57465 0.95283 -0.346665)
(10.0041 -0.00539389 0.00994933)
(10.2359 -0.0200117 -0.00180649)
(12.8132 -2.41866 3.03654)
(12.5366 -0.372451 0.743454)
(-1.12205 3.58139 -0.140789)
(10.1162 -0.962867 0.191466)
(11.92 -1.00094 -0.564468)
(10.5434 -1.06507 -1.20447)
(9.88924 -0.411569 1.2891)
(10.2691 -0.0340704 0.00832728)
(-3.82471 -3.06747 1.07477)
(10.0846 -0.00790541 0.00387086)
(10.1598 -0.0155748 0.000755933)
(10.865 -0.220362 1.33071)
(9.69579 -0.124813 4.63108)
(10.302 -0.0444514 0.0138222)
(10.3089 0.556968 -0.438735)
(9.98463 0.00160779 0.00321605)
(10.5233 -1.42271 0.575492)
(11.0613 0.0163007 1.49727)
(9.96192 -0.0109183 -0.000960592)
(11.1676 -0.435588 -3.13682)
(9.69241 1.92657 -1.90796)
(11.904 0.457095 1.43456)
(10.9955 0.389512 -0.170484)
(9.48431 0.12436 0.261646)
(3.12285 0.94799 -3.88986)
(0.311167 3.57681 2.93065)
(5.25362 3.20296 0.653101)
(13.3394 -0.844627 -2.96437)
(4.47721 -0.96606 -0.402409)
(9.77074 -0.00417974 -0.00972322)
(9.88785 -0.0168914 0.000713718)
(8.28474 1.73924 2.66617)
(9.9491 -0.00026078 0.000179742)
(4.53395 -0.829609 -0.325987)
(9.81501 -0.00307423 -0.00318642)
(9.79605 -0.0118489 -0.00162052)
(-0.0717369 -1.81517 1.04502)
(9.51056 -1.32852 0.804546)
(10.8826 -0.615226 0.106617)
(9.98324 0.00524229 0.00505176)
(10.0004 0.0182195 -0.000335422)
(8.34834 0.372012 -2.89968)
(10.0102 0.0149794 0.00587914)