/*--------------------------------*- C++ -*----------------------------------*\
| =========                 |                                                 |
| \\      /  F ield         | OpenFOAM: The Open Source CFD Toolbox           |
|  \\    /   O peration     | Version:  2506                                  |
|   \\  /    A nd           | Website:  www.openfoam.com                      |
|    \\/     M anipulation  |                                                 |
\*---------------------------------------------------------------------------*/
FoamFile
{
    version     2.0;
    format      ascii;
    arch        "LSB;label=32;scalar=64";
    class       volScalarField;
    location    "0.0292463";
    object      k;
}
// * * * * * * * * * * * * * * * * * * * * * * * * * * * * * * * * * * * * * //

dimensions      [0 2 -2 0 0 0 0];

internalField   nonuniform List<scalar> 
47425
(
0.348711
0.37455
0.346481
0.341663
0.490181
0.352626
0.454324
0.35526
0.367095
1.036
0.360654
0.371326
0.404109
0.346041
0.347164
0.360358
0.346226
0.388121
1.04016
0.548993
0.348715
0.350643
0.361728
0.349109
0.359555
0.346805
0.342851
0.848976
0.341524
0.354667
0.359352
0.359096
0.358531
0.352556
0.349458
0.35764
0.350017
0.365078
0.348688
0.346811
0.382166
0.381049
0.483669
0.378796
1.16533
0.383397
0.359778
0.35756
0.347084
0.349696
0.793719
0.504112
0.346055
0.894131
0.388786
0.373233
0.348577
0.352252
0.469709
0.353297
0.991706
0.745068
0.823818
0.374242
0.364709
0.354381
0.357718
0.366287
0.85361
0.371802
0.346697
0.352958
0.349665
0.352633
0.820187
0.368912
0.818874
0.350811
0.892127
0.542605
0.840209
0.354163
0.355488
0.357166
0.347616
0.353255
0.348625
0.346173
0.518915
0.637228
0.359798
0.365332
0.352345
0.383065
0.393435
0.378996
0.346322
0.346896
0.341092
0.383196
0.355398
0.475295
0.35045
0.504848
0.350734
0.36307
0.34736
0.345318
0.347625
0.361544
0.738148
0.352949
0.388327
0.366403
0.35789
0.836392
0.356568
0.672436
0.374445
0.369465
0.344229
0.363277
0.363498
0.38995
0.371695
0.392988
0.356907
0.365166
0.374302
0.352563
0.356266
0.365339
0.554656
0.377788
0.37778
0.387143
0.358447
0.396511
0.350038
0.344924
0.363249
0.390178
0.354351
0.432162
0.364063
0.366363
0.440135
0.355099
0.378026
0.367009
0.426728
0.803315
0.361552
0.81582
0.375934
0.357743
0.383447
0.92044
0.384906
0.368515
0.368406
0.352248
0.347927
0.353336
0.729108
0.851002
0.358451
0.824555
0.361366
0.87333
0.8187
0.377179
0.356955
0.364264
0.382475
0.428083
0.845701
0.342958
0.349311
0.349523
0.834994
0.345186
0.344977
0.351849
0.347025
0.356847
0.352229
0.477212
0.369346
0.346782
0.35952
0.346304
0.448255
0.365755
0.354119
0.361187
0.361369
0.357439
0.370609
0.335801
0.365153
0.370482
0.350394
0.359761
0.384252
0.37918
0.343608
0.358854
0.372987
0.363432
0.343891
0.345423
0.359353
0.335679
0.350282
0.35462
0.349633
0.5708
0.383629
0.379145
0.576113
0.332378
0.437251
0.338828
0.401661
0.556113
0.351469
0.360684
0.382634
0.417629
0.348191
0.359452
0.38115
0.369516
0.37903
0.353517
0.577246
0.370407
0.547688
0.372959
0.35024
0.351374
0.352459
0.350994
0.350176
0.364223
0.34415
0.363516
0.346848
0.351608
0.346964
0.53134
0.353433
0.365926
0.355931
0.348702
0.350949
0.388057
0.341503
0.359078
0.40637
0.361633
0.349574
0.376821
0.406095
0.379922
0.351891
0.405451
0.346124
0.358815
0.351058
0.53162
0.569123
0.350319
0.521852
0.385742
0.523097
0.506799
0.553944
0.587067
1.04412
0.346802
0.966037
0.389622
0.354356
0.335242
0.379834
0.3482
0.383522
0.364334
0.75568
0.364399
0.371314
0.344126
0.346385
0.366846
0.368111
0.347355
0.349608
0.397567
0.37823
0.352375
0.365732
0.348634
0.85686
0.849532
0.816709
0.34966
0.348379
0.352251
0.356537
0.781936
0.355961
0.36022
0.595956
0.377149
0.368609
0.392472
0.351897
0.645196
0.574412
0.354893
0.34704
0.344725
0.371051
0.347312
0.344285
0.345508
0.347046
0.347952
0.349436
0.76716
0.369885
0.347894
0.386668
0.353446
0.771001
0.357756
0.347579
0.349313
0.355081
0.355008
0.344374
0.35612
0.350775
0.349929
0.35148
0.356774
0.349147
0.375873
0.354515
0.357466
0.354744
0.362775
0.353076
0.384704
0.360879
0.35651
0.359746
0.363467
0.412551
0.376152
0.368546
0.35805
0.345816
0.353153
0.387156
0.36078
0.355132
0.354385
0.385852
1.09388
0.341769
0.360745
0.385779
0.360312
0.379174
0.385724
0.365248
0.350027
0.359887
0.358054
0.343357
0.357307
0.374366
0.365043
0.361073
0.353466
0.35578
0.358045
0.357119
0.359716
0.364191
0.345142
0.358755
0.355587
0.351225
0.355728
0.427448
0.347394
0.674131
0.349679
0.78177
0.36854
0.388219
0.380829
0.347465
0.369836
0.34363
0.365258
0.356573
0.683047
0.812492
0.352527
0.377228
0.345436
0.34367
0.353239
0.354943
0.343121
0.37321
0.357917
0.346837
0.342474
0.344379
0.344322
0.45423
0.348035
0.358334
0.540613
0.435689
0.350467
0.6727
0.434089
0.375741
0.457657
0.77908
0.349516
0.344416
0.346287
0.345502
0.672952
0.375849
0.350507
0.349753
0.352155
0.351808
0.349499
0.349793
0.731623
0.651581
0.550596
0.357864
0.445323
0.405662
0.349465
0.361704
0.394311
0.360046
0.35872
0.363407
0.377935
0.350224
0.369662
0.34739
0.354934
0.369535
0.363045
0.349876
0.349685
0.353637
0.358521
0.384931
0.374046
0.346595
0.374027
0.360413
0.761907
0.378
0.439546
0.356373
0.384963
0.583568
0.371518
0.350114
0.374144
0.360345
0.351553
0.373104
0.386355
0.340301
0.366454
0.348752
0.371276
0.485591
0.344989
0.38778
0.352285
0.402021
0.347352
0.34738
0.346626
0.346409
0.372044
0.361613
0.346952
0.345014
0.351866
0.363008
0.357464
0.366261
0.369572
0.35051
0.35213
0.345608
0.344451
0.352189
0.372605
0.349177
0.377686
0.363733
0.375995
0.776975
0.358303
0.352195
0.366329
0.365939
0.484721
0.489428
0.373883
0.35184
0.378183
0.44375
0.354998
0.501222
0.363527
0.556988
0.394906
0.390175
0.352546
0.491944
0.350215
0.352708
0.358386
0.351176
0.344318
0.346538
0.977621
0.348751
0.394238
0.348016
0.468656
0.354003
0.35037
0.450027
0.438619
0.358128
0.347805
0.316127
0.346717
0.349114
0.349182
0.347853
0.349238
0.412445
0.457198
0.371903
0.347656
0.355199
0.349537
0.551703
0.354066
0.351551
0.286735
0.357014
0.347525
0.377501
0.763643
0.355426
0.211654
0.243343
0.342878
0.357909
0.347076
0.351698
0.385707
0.375339
0.699442
0.353706
0.38096
0.346429
0.475978
0.407763
0.37722
0.354396
0.882818
0.962368
0.356323
0.354954
0.347024
0.36055
0.382293
0.397502
0.355827
0.364505
0.379779
0.343249
0.372157
0.504375
0.38359
0.357236
0.511639
0.372899
0.350255
0.369281
0.366938
0.345679
0.363239
0.384079
0.404531
0.358697
0.35281
0.350251
1.03488
0.364077
0.414069
0.796647
0.779585
0.347819
0.382935
0.759422
0.375551
0.46059
0.613899
0.377276
0.830129
0.345667
0.353335
0.359752
0.521839
0.383283
0.376256
0.349122
0.388931
0.349757
0.347967
0.355364
0.365289
0.37862
0.730319
0.7456
0.374347
0.388433
0.36952
0.366399
0.388329
0.35714
0.357525
0.362266
0.35618
0.362474
0.387018
0.362864
0.345355
0.441498
0.388966
0.825183
0.582062
0.371769
0.361273
0.370083
0.350254
0.846348
0.350357
0.803714
0.375897
0.448305
0.385657
0.358195
0.361754
0.342613
0.405614
0.352454
0.343587
0.405227
0.401591
0.36869
0.425524
0.370445
1.21424
0.385946
0.388455
0.4085
0.364162
0.344318
0.389801
0.35023
0.424791
0.354063
0.352399
0.398294
0.356965
0.356463
0.35265
0.348039
0.51549
0.594752
0.35091
0.479509
0.349877
0.364128
0.340615
0.346548
0.387574
0.343333
0.341566
0.353169
0.351183
0.713925
0.859477
0.35428
0.353854
0.348866
0.366453
0.347807
0.360714
0.367051
0.583979
0.358368
0.346899
0.35757
0.348453
0.346524
0.352371
0.348918
0.347617
0.355631
0.349179
0.372366
0.586107
0.347181
0.280636
0.610451
0.583308
0.244518
0.364681
0.561135
0.402601
0.38183
0.552285
0.321794
0.841706
0.358383
0.344886
0.434126
0.374579
0.59292
0.364353
0.371155
0.348547
0.349729
0.432413
0.380777
0.364772
0.380451
0.468999
0.415212
0.355014
0.378608
0.535064
0.513317
0.54307
0.741306
0.766358
0.657149
0.687449
0.36377
0.376131
0.349876
0.346775
0.368522
0.267493
0.376407
0.360644
0.372245
0.351462
0.291328
0.254589
0.347814
0.400253
0.356773
0.348937
0.386742
0.347435
0.350095
0.34921
0.369072
0.479764
0.34949
0.35202
0.349138
0.379917
0.370119
0.575681
0.478735
0.343668
0.378027
0.348438
0.347621
0.347333
0.377758
0.37815
0.625953
0.349621
0.345345
0.355439
0.436626
0.870828
0.356105
0.355056
0.455402
0.369602
0.353058
0.384739
0.361945
0.377177
0.974823
0.46306
0.845132
0.366985
0.436521
0.350347
0.419622
0.350637
0.365108
0.374289
0.353364
0.934824
0.491426
0.402078
0.562601
0.402383
0.350775
0.364516
0.434771
0.350979
0.375967
0.285812
0.347647
0.430898
0.385919
0.410045
0.759114
0.393306
0.389919
0.553803
0.354292
0.352759
0.47052
0.537472
0.359764
0.458603
0.49598
0.350191
0.360627
0.342724
0.366705
0.374212
0.372633
1.00158
1.06847
0.39596
0.462788
0.51676
1.04249
0.978909
0.574106
0.382926
0.361935
0.374731
0.387046
0.712237
0.350366
0.376099
0.375806
0.369854
0.36558
0.356637
0.37307
0.346245
0.396021
0.521871
0.364166
0.908625
0.350859
0.428564
0.376741
0.366201
0.359789
0.355751
0.375581
0.488145
0.3861
0.424014
0.516728
0.371582
0.351356
0.37338
0.478552
0.346232
0.408651
0.360342
0.392381
0.678389
0.709249
0.344598
0.364159
0.360186
0.362457
0.374753
0.7124
0.545479
0.998341
0.354155
0.408429
0.368896
0.632989
0.344607
1.10172
0.413433
0.394691
0.42949
0.642103
0.349809
0.339995
0.34978
0.371585
0.421872
0.359836
0.442108
0.702945
0.439225
0.345941
0.350892
0.705406
0.801595
0.553852
0.569625
0.868709
0.407034
0.381976
0.450829
0.344012
0.518479
0.380211
0.394537
1.09695
0.375308
0.352209
0.34786
0.364134
0.427895
0.388152
0.353035
0.37106
0.492347
0.351367
0.360104
0.3526
0.357495
0.377761
0.417682
0.378454
0.374631
0.360261
0.387669
0.35595
0.337197
0.344999
0.360051
0.418622
0.519709
0.372513
0.407868
0.346675
1.1755
0.390394
0.376763
0.354865
1.00747
0.626716
0.982758
0.289723
0.373068
0.381503
0.679592
0.33578
0.379774
0.426443
0.3756
0.377788
0.761853
0.375531
0.354741
0.379501
0.395708
0.349615
0.631073
0.97871
0.346586
0.963869
0.358812
0.692741
0.81067
0.348058
0.377316
0.376043
0.64553
0.370422
0.371596
0.38428
0.749135
0.387628
0.595165
0.346786
0.359947
0.348677
0.353167
1.04713
1.06773
0.380129
0.406784
0.413614
0.688445
0.354977
0.34632
1.23306
1.00158
0.368398
0.358362
0.905798
1.18396
0.86203
0.383683
0.684713
0.966225
0.76965
0.3535
0.504223
0.478444
0.374061
0.3626
1.09414
1.29367
0.41035
0.415293
0.364034
0.360094
0.381635
0.357995
0.519985
0.356162
0.366988
0.349013
0.349437
0.893025
0.821167
0.359596
0.622964
0.460329
0.348172
0.547949
0.346589
0.361904
0.356158
0.381542
0.399595
0.34563
0.752731
0.353193
0.884277
0.654085
0.709354
0.414675
0.413566
0.367728
0.382148
0.349659
0.583273
0.982156
0.374759
0.786266
0.571834
0.821643
0.508136
0.931603
0.735956
0.361545
0.349594
0.774278
0.353976
0.35759
0.351807
0.72052
0.63599
0.350936
0.37806
0.662469
0.462401
0.849186
0.77099
0.371274
0.514605
1.02194
0.367081
0.377767
0.729622
0.35601
0.795433
0.864894
0.36187
0.354428
0.360222
0.354161
0.394982
0.341598
0.359701
0.383815
0.380245
0.528135
0.398178
0.36179
0.525074
0.660295
0.85651
0.379887
0.38228
0.525793
0.362663
0.94345
0.354395
0.374674
0.369143
1.17616
0.360363
1.52129
0.39246
0.538438
0.3972
1.12551
0.647513
0.546458
0.452284
0.572778
0.411079
0.363921
0.42137
0.616561
0.554437
0.49226
0.772156
0.388612
0.484111
0.706206
0.389479
0.344971
0.751534
1.01463
0.347184
0.360421
0.361995
0.379599
0.658894
0.815605
0.350209
0.368687
0.360287
0.978454
0.358587
0.656159
0.41548
0.35599
0.358101
0.496663
0.405662
0.653325
0.580793
0.387836
0.423479
0.483201
0.355064
0.910894
0.924152
0.361196
0.873842
0.709751
0.37698
0.544139
0.362003
0.408546
0.898669
0.406477
1.17668
0.651653
0.361842
0.414259
0.449636
0.365835
0.357808
0.436087
0.513745
0.465194
0.351628
0.436806
0.355526
0.558706
0.429939
0.387125
0.392073
0.494512
0.348292
0.846874
0.629896
0.410447
0.755371
0.762215
0.348915
0.521239
0.403074
0.389659
0.384731
0.485981
0.756057
0.532541
0.758685
0.348706
0.776126
0.480673
0.350661
0.428106
0.3939
0.525935
0.380542
0.432116
0.619387
0.348138
0.653455
0.383227
1.24614
0.397554
0.347378
0.390319
0.546848
0.406674
0.684066
0.444374
0.355935
1.02294
0.352153
0.379776
1.06691
0.346608
0.38278
0.725788
0.382634
0.723711
1.2217
0.386904
0.45213
0.355416
0.899655
0.522753
0.727515
0.585258
0.452965
0.383331
0.476749
0.815485
1.14144
0.838581
0.370681
0.360136
0.37035
0.357523
0.385958
0.718399
0.370974
0.356654
0.384839
0.346755
0.372978
0.38058
0.366182
0.362854
0.382205
0.485246
0.352344
0.383265
0.525744
0.360312
0.351937
0.394962
0.394137
0.362496
0.348087
0.36952
0.366937
0.359978
0.382819
0.61921
0.364337
0.374819
0.347445
0.350144
0.551201
0.349236
0.351591
0.505218
1.09955
0.731024
0.35907
0.580195
0.525639
0.352267
0.49917
0.482129
0.491606
0.374553
0.358314
0.37508
0.435659
0.35352
0.385027
0.40628
0.383167
0.347053
0.350185
0.377213
0.539392
0.369352
0.441049
0.844688
0.35963
0.642765
0.438729
0.847523
0.350757
0.379118
0.382028
0.35213
0.364612
0.378277
0.35004
0.966351
0.59373
0.875238
0.390825
0.934879
0.347546
0.361742
0.511185
0.348556
0.775558
0.390514
0.633675
0.343669
0.90077
0.908571
0.362999
0.347018
0.561424
0.361793
0.560099
0.34703
0.379046
0.348353
0.347012
0.347388
0.355797
0.368893
0.562546
0.419738
0.402313
0.368514
0.350947
0.355759
0.374342
1.0986
0.37436
0.884737
0.416955
0.347017
0.381855
0.368122
0.359877
0.360222
0.385825
0.357662
0.363377
0.347814
0.34496
0.377182
0.371563
1.37923
0.888709
0.382178
0.386669
0.666051
0.35644
0.349141
0.346591
0.346923
0.381571
0.384598
0.400489
0.392957
0.361776
0.348673
0.435457
0.349889
0.344592
0.358468
0.745402
0.395181
0.837799
0.763139
0.827863
0.361708
0.347765
0.345459
0.343413
0.354789
0.658384
0.364189
0.348169
0.36193
0.370525
0.349947
0.454063
0.347822
0.380764
0.472051
0.365429
0.343079
0.351225
0.362254
0.371791
0.348197
0.369843
0.355567
0.491627
0.344254
0.355628
0.381284
0.353369
0.355587
0.347295
0.371827
0.340921
0.384806
0.398021
0.35186
0.345015
0.343398
0.345695
0.349012
0.378667
0.351524
0.352174
0.352096
0.362769
0.876483
0.354186
0.463789
0.345709
0.351655
0.756521
0.363129
0.377684
0.347353
0.359526
0.375382
0.384371
0.735802
0.379338
1.02369
0.346285
0.353711
0.37728
0.351998
0.354617
0.389422
0.363374
0.351243
0.351597
0.71917
0.477715
0.686254
0.385674
0.573973
0.382122
0.343301
0.399689
0.931596
0.376782
0.351655
0.348913
0.79307
0.345128
0.357792
0.375501
0.362286
0.352553
0.809911
0.347629
0.366358
0.357244
0.362843
0.406305
0.937232
0.830819
0.349506
0.347295
0.350897
0.389081
0.377682
0.351894
0.811768
0.817659
0.345198
0.371364
0.730342
0.348007
0.496256
0.483129
0.349266
0.34761
0.354623
0.354321
0.517063
0.368505
0.357383
0.369238
0.409541
0.357859
0.362099
0.621123
0.363264
0.491075
0.531279
0.386129
0.613742
0.376064
0.388309
0.425856
0.379329
0.371229
0.365559
0.845544
0.62102
0.378073
0.384044
0.362806
0.379996
0.373096
0.443154
0.351803
0.345523
0.360602
0.358029
0.537715
0.472551
0.837715
0.733582
0.381522
0.378979
0.358807
0.364047
0.365572
0.357811
0.360605
0.348362
0.350463
0.409081
0.355802
0.353801
0.349418
0.613859
1.29662
0.389672
0.343995
0.431493
0.531674
0.839796
0.344469
0.701963
0.748774
0.661994
0.733265
0.440458
0.349401
0.349679
0.362192
0.871702
0.347821
0.373413
0.370012
0.347338
0.515692
0.481127
0.456915
0.360279
0.839703
0.350985
0.355046
0.383858
0.378984
0.650518
0.708263
0.256543
0.464995
0.304101
0.422532
0.351962
0.914518
0.356839
0.874329
0.37564
0.864835
0.372028
0.522289
0.36478
0.534422
0.380834
0.38548
0.378483
0.358284
0.363163
0.450098
0.422398
0.36202
0.359176
1.19093
0.489846
0.371893
0.636729
0.633196
0.623873
0.355303
0.357271
0.605156
0.718267
0.722215
0.361121
1.04089
0.353841
0.903455
0.968173
0.314629
0.573735
0.347256
0.401652
0.350893
0.355865
0.362572
0.5424
0.414632
0.347842
0.346119
0.376358
0.355553
0.349182
0.351684
0.49394
0.346695
0.343315
0.370597
0.348814
0.465124
0.365539
0.394399
0.383103
0.348309
0.442053
0.494487
0.336825
0.344863
0.516643
0.782965
0.37298
0.941302
0.391523
0.471353
0.768568
0.454126
0.383754
0.349274
0.493065
0.359065
0.346074
0.365673
0.35627
0.349649
0.364145
0.348412
0.345032
0.35149
0.376007
0.363962
0.386896
0.741403
0.351342
0.355895
0.355261
0.361935
0.473216
0.686718
0.367704
0.352246
0.371393
0.606365
0.509501
0.353671
0.37093
0.862592
0.385665
0.394842
0.380559
0.442556
0.373162
0.365688
0.369859
0.558436
0.385602
0.374464
0.948855
0.362772
0.397098
0.359963
0.386258
0.365987
0.401213
0.367929
0.352502
0.354138
0.398584
0.34301
0.36673
1.15765
0.350493
0.461732
0.382947
0.358831
0.660753
0.408617
0.360283
0.372714
0.625958
0.640761
0.381915
0.358859
0.396812
0.433802
0.379023
0.35516
0.810567
0.503047
0.419367
0.751199
0.372842
0.351401
0.5526
0.471381
1.05471
0.424623
0.420402
0.530178
0.350914
0.571218
0.483216
0.785967
0.432253
0.363804
0.356361
0.617388
0.385884
0.420268
0.34772
0.378813
0.390632
0.425744
0.667667
0.377422
0.374109
0.332076
0.544778
0.772453
0.452521
0.745821
0.400657
1.00517
0.377171
0.375867
0.814571
0.519482
0.672643
0.303256
0.681691
0.612313
0.350693
0.348479
0.269527
0.396328
0.376503
0.782441
0.391003
0.41889
0.354681
0.476707
0.369456
0.353361
0.8843
0.294001
0.538794
0.33514
0.406824
0.377662
0.373846
0.39288
0.391701
0.354503
0.349837
0.381689
0.411825
0.223376
0.227071
0.380055
0.401606
0.360071
0.444692
0.482006
0.390325
0.372977
0.396317
0.231883
0.414768
0.422881
0.299704
0.378584
0.746872
0.439394
0.361869
0.901315
0.397612
0.519649
0.808596
0.396992
0.378507
0.352136
1.02742
0.351439
0.345444
0.4002
0.385779
0.433277
0.366703
0.518741
0.373808
0.535679
0.348258
0.395651
0.380786
0.344996
1.02397
0.402707
0.960212
0.670438
0.348305
0.786904
0.503154
0.35215
1.29603
0.347796
0.346377
0.43219
0.482786
0.885993
0.720621
0.393528
0.71956
0.705006
0.350742
0.565696
0.874493
0.468392
1.03723
0.422534
0.354659
0.632778
0.718555
0.402079
0.931146
0.408289
0.37903
0.564525
0.407818
0.356844
0.37901
0.768825
0.606652
0.344376
0.561731
0.360322
0.39228
0.373225
0.392711
0.570023
0.46842
0.72764
0.356671
0.361907
0.704468
0.354045
0.371895
0.50757
0.357729
0.379797
0.696961
0.38096
0.908839
0.812215
0.798402
0.751922
0.376718
0.435782
0.350449
0.349071
0.460574
0.352136
0.349902
0.402799
0.353728
0.457965
0.83615
0.352982
0.543547
0.358414
0.508385
0.402942
0.869811
0.371969
0.481096
0.358478
0.35983
0.411227
0.354128
0.367747
0.355889
0.346356
0.578165
0.338207
0.385062
0.398028
0.367305
0.37359
0.387653
0.383716
0.703667
0.378919
0.353154
0.36357
0.432598
0.317827
0.674965
0.527939
0.668739
0.962833
0.448493
0.455983
0.149925
0.341827
0.876456
0.438415
0.544457
0.409061
0.745923
0.668049
1.20526
0.406332
0.374428
0.543496
0.908798
0.390622
0.272121
0.476447
0.289223
0.446161
0.449523
0.804039
0.851831
0.312707
0.416702
0.219071
0.364884
1.13597
0.364545
0.381312
0.353505
0.356633
0.48918
0.353565
0.635649
0.506863
0.352779
0.391463
0.356967
0.57374
0.656074
0.368425
0.431936
0.407472
0.927749
0.459403
0.367551
0.549471
0.558352
0.345845
0.357045
0.373765
0.345899
0.663187
0.355785
0.478587
0.648019
0.356822
0.388135
0.356961
0.356575
0.446007
0.39226
0.553298
0.340074
0.347785
0.581209
1.16702
0.356381
0.366538
0.356481
0.354177
0.62891
0.4546
0.790929
0.38631
0.351544
0.485603
0.398363
0.382717
0.357586
0.407479
0.38808
0.567509
0.506563
0.855345
0.437427
0.458498
0.355081
0.380654
0.800727
0.924526
0.441021
0.889715
0.383952
0.89885
0.468884
0.736997
0.508635
0.479589
0.396191
0.362295
0.39396
0.439348
0.582042
0.369687
0.410304
0.965949
0.375704
2.25984
0.376638
0.354261
0.381343
0.469582
0.393201
0.351403
0.761377
0.349402
0.346196
0.34346
0.378244
0.754099
0.523738
0.354404
0.55586
0.366098
0.382695
0.354888
0.362898
0.454343
0.415603
0.445165
0.380462
0.348506
0.432613
0.373724
0.34198
0.433416
0.407113
0.785398
0.387801
0.495706
0.38635
0.43896
0.383618
0.460355
0.345771
0.384164
0.355612
0.375505
0.391793
0.797878
0.34621
0.59147
0.30103
0.393676
0.379977
0.38787
0.383479
0.470131
0.595415
0.354593
0.371589
0.372358
0.519783
0.418025
0.343671
1.10298
0.703554
0.612034
0.354925
0.348936
0.531105
0.361608
0.359121
0.522038
0.364962
0.361184
0.404727
0.777538
0.352196
0.588179
0.352371
0.356597
0.455394
0.362024
0.387848
0.490835
0.351511
0.555528
0.438861
0.443052
0.478541
0.908442
0.35741
0.361695
0.385868
0.4125
0.392415
0.384671
0.350857
0.351911
0.375245
0.598483
0.383787
0.387629
0.86564
0.382771
0.676646
0.36045
0.383353
0.429182
0.358418
0.541169
0.382667
0.441955
0.40349
0.358235
0.37274
0.421818
0.542378
0.462946
0.352669
0.597249
0.378093
0.962972
0.760631
0.603759
0.366778
0.494849
0.378888
0.266194
0.428206
0.300972
0.474384
0.227072
0.434302
0.662937
0.440969
0.638663
0.68087
0.392364
0.289983
0.292093
1.12643
0.631972
0.710412
1.18713
0.932981
0.358592
0.821174
0.358349
0.372828
0.749773
0.422952
0.841926
0.406686
0.726947
0.73845
0.370545
0.386586
0.363156
0.343101
0.375812
0.347668
0.725901
0.406205
0.381602
0.573859
0.352543
0.368159
0.347184
0.375364
0.368915
0.384639
0.401273
0.34913
0.436723
0.886805
0.346201
0.356818
0.361881
0.349652
0.696381
0.661664
0.423677
0.388125
0.574497
0.347857
0.34533
0.374686
0.393849
0.35757
0.364814
0.352259
0.347501
0.44344
0.34092
0.413136
0.366237
0.35208
0.356374
0.4758
0.361278
0.370414
0.35038
0.445928
0.36537
0.385586
0.712067
0.449159
0.37995
0.416914
0.369084
0.397411
0.395595
0.377346
0.359417
0.38601
0.373655
0.362365
0.39915
0.377945
0.451106
0.482097
0.363025
0.372361
0.428912
0.455419
0.513679
0.546782
0.787689
0.938755
0.370219
0.353233
0.884013
0.567333
0.551295
0.357215
0.351814
0.36429
0.347931
0.362703
0.355029
0.361754
0.389
0.349971
0.357584
0.350198
0.362568
0.352405
0.539622
0.410472
0.37398
0.353337
0.362636
0.672393
0.345609
0.358208
0.416343
0.985903
0.687891
0.375773
0.364752
0.37335
0.407681
0.465695
0.728396
0.434926
0.361659
0.377842
0.365377
0.35726
0.401001
0.437892
0.379991
0.349156
0.425414
0.410369
0.61571
0.427475
0.699105
0.579453
0.397012
0.416081
0.353722
0.368693
0.389885
0.349431
0.351476
0.641113
0.356889
0.372094
0.718994
0.372007
0.386206
0.353234
0.43664
0.348407
0.371587
0.354181
0.385966
0.752498
0.372677
0.460318
1.51141
0.580277
1.08931
0.834238
0.361051
0.373277
0.557442
0.347432
0.585353
0.525083
0.709593
0.369905
0.35086
0.677038
0.354449
0.581157
0.441705
0.358376
0.73462
0.828803
0.350855
0.355804
0.881244
0.351771
0.34888
0.346925
0.349233
0.373638
0.463495
0.592903
0.371218
0.807464
0.357588
0.369973
0.346643
0.876509
0.364744
0.92509
0.351602
0.387871
0.353163
0.470136
0.350374
0.503855
0.343252
0.603791
0.501181
0.502751
0.701874
0.361553
0.368355
0.821356
0.470179
0.372479
0.447648
0.56565
0.367353
0.442515
0.363682
0.625551
0.438218
0.352909
0.343644
0.484098
0.359321
0.414112
0.377317
0.349822
0.368783
0.351165
0.354683
0.364729
0.698751
0.354032
0.351772
0.350719
0.354915
0.350497
0.355709
0.362092
0.38056
0.405134
0.394226
0.392743
0.349643
0.295232
0.37741
0.406209
0.693556
0.319584
0.800318
0.353617
1.15911
0.402918
0.280155
0.385276
0.391797
0.392384
0.356411
0.339114
0.377913
0.375875
0.352399
0.366658
0.351369
0.711169
0.351017
0.361072
0.399775
1.00288
0.241897
0.368853
0.823744
0.580154
0.637372
0.563674
1.07875
0.191043
0.419982
0.394714
0.375965
0.360261
1.6695
0.46558
0.42717
0.353136
0.3491
0.746637
0.374236
0.451047
0.405824
0.387706
0.514717
0.387807
0.628719
0.357748
0.376249
0.356934
0.353133
0.399425
0.346385
0.373682
1.10488
1.12876
0.944799
0.477207
0.733802
0.365248
0.34514
0.344445
0.379885
0.351129
0.397834
0.359369
0.438613
0.386315
0.349813
0.347069
0.373125
0.351751
0.369826
0.378526
0.36
0.381378
0.557827
0.364652
0.406861
0.799574
0.383403
0.692231
0.850637
0.379862
0.406007
0.345714
0.509356
0.38914
0.400114
0.663018
0.350981
0.413174
0.372109
0.399714
0.353712
0.35581
0.494977
0.552538
0.37595
0.383243
0.793052
0.420201
0.637762
0.595411
0.361692
1.17143
0.445275
0.414087
0.399315
0.356088
0.441119
0.387847
0.330606
0.355659
0.313878
0.605298
0.212154
0.367191
0.401349
0.455602
0.223063
0.805902
0.351837
0.375854
0.419353
0.363952
0.423379
0.539192
1.47275
0.388675
0.370112
0.376548
0.71056
0.356773
0.408484
0.388622
0.362868
0.368934
0.369284
0.424462
0.35003
1.0941
0.401067
0.949301
0.354841
1.21737
0.771542
0.743359
0.383242
0.363456
0.501378
0.384924
0.372031
0.359923
0.373584
0.790003
0.347294
0.493569
0.609824
0.348374
0.358735
0.350714
0.358762
0.372009
0.361966
0.421946
0.41063
0.381357
0.380195
0.417535
0.362666
0.467228
0.354772
0.382666
0.356143
0.909942
1.15353
0.396778
0.399443
0.349534
0.892675
0.343758
0.355739
0.372887
0.351268
0.389124
0.373572
0.346774
0.350536
0.365645
0.741581
0.585611
0.370913
0.770427
0.352289
0.366261
0.350158
0.36079
0.753689
0.396987
0.831743
0.34903
0.356552
0.803945
0.882644
0.364959
0.357929
0.656251
0.378205
0.400292
0.476917
0.410067
0.385869
0.449987
0.38433
0.349382
0.3905
0.370388
0.515191
0.348429
0.377455
0.348487
0.360518
0.715629
0.689662
0.353854
0.356962
0.370887
0.37113
0.366305
0.545691
0.367537
0.379842
0.414206
0.371652
0.47731
0.425392
0.52091
0.411452
0.347211
0.35093
0.348243
0.407159
0.344124
0.541704
0.452331
0.34923
0.874082
0.363627
0.34398
0.386436
0.353163
0.395983
0.651876
0.365851
0.461482
0.37244
1.11764
0.42004
0.406276
0.377746
0.69316
0.378795
0.560795
0.395869
0.436193
0.351525
0.434973
0.42128
0.682087
0.48702
0.364137
0.355556
0.35459
0.564399
0.378927
1.00824
0.909166
0.376549
0.456115
0.359227
0.500748
0.475679
0.410024
0.723979
0.514025
0.699886
0.356441
0.401589
0.916609
0.517428
0.381593
0.504464
0.358347
1.0824
0.420094
0.389299
0.354529
0.347866
0.35195
0.366595
0.350755
0.738372
0.35396
0.615536
0.351261
0.46195
0.421323
0.559364
0.365817
0.369865
0.355945
0.608437
0.489886
0.540604
0.350121
0.356509
0.482369
0.402315
0.390932
0.344242
0.343833
0.346845
0.36298
0.34921
0.404961
0.354886
0.58097
0.451839
0.949724
0.781402
0.624066
0.591563
0.420091
0.427156
0.348395
0.616656
0.357693
0.370909
0.362774
0.490165
0.487809
0.362043
0.448523
0.797534
0.495109
0.349503
0.347774
1.15132
0.843752
0.40922
0.848062
0.889819
0.658755
0.754816
0.606529
0.723695
0.432788
0.662088
0.812833
0.348092
0.35104
0.345306
0.485386
0.632125
0.362305
0.35297
0.429978
0.385855
0.39807
0.84349
0.515706
0.912659
0.367862
0.345902
0.35977
0.342437
0.37741
0.831423
0.430605
0.625226
0.752916
0.349244
1.10214
1.17064
0.347334
0.526627
0.485347
0.802382
0.386414
0.502175
0.788891
0.743739
0.485408
0.785763
0.536354
0.69936
0.376105
0.375403
0.387896
0.975532
0.772479
0.415138
0.370023
0.582795
0.471667
0.599919
0.36833
0.405085
1.02706
1.0124
0.268365
0.346339
0.297328
0.349581
0.231511
0.420747
0.483508
0.63006
0.226332
0.466274
0.504814
0.176541
0.486088
1.03093
0.449125
0.417265
0.6605
0.370718
0.531435
0.360635
0.350325
0.361973
0.38141
0.749548
0.728491
0.85627
0.416072
0.423237
0.596187
0.415436
0.27965
0.429916
0.39101
0.364575
0.565689
0.380117
0.34969
0.357779
0.449375
0.432288
0.773057
0.503355
0.829333
0.907993
0.798363
0.375721
0.428165
0.70231
0.348782
0.586738
0.392002
0.421906
0.356623
0.819338
0.607903
0.376811
1.34809
0.638475
0.349283
0.465898
0.811728
0.820169
0.424387
0.378807
0.494746
1.0129
0.383565
0.35762
0.381268
0.376304
0.572038
0.421731
0.652671
0.52942
0.640118
0.994475
0.573573
0.489592
0.746142
0.806596
0.85255
0.620438
0.705727
0.86793
0.564169
0.413847
0.477523
0.358847
0.344792
0.354653
0.433408
0.55623
1.06126
0.375711
0.39294
0.406429
0.378748
0.395225
0.587246
0.4968
0.361091
0.386506
0.932425
1.07215
0.238681
0.423269
0.35512
0.395822
0.849974
0.746217
0.377344
0.346061
0.362771
0.296643
0.316901
0.605088
0.366506
0.372295
0.357402
0.418064
0.843826
0.475531
0.388886
0.843099
0.346744
0.828297
0.675846
0.486261
0.679766
0.397146
0.347383
0.356024
0.358675
0.377439
0.437129
0.355051
0.369736
0.358433
0.359057
0.556373
0.481497
0.73638
0.360459
0.506584
0.397135
0.426345
0.376929
0.462688
0.384001
0.373995
0.37004
0.346401
0.36262
0.362595
0.481035
0.346971
0.390706
0.398187
0.635686
0.362955
0.426055
0.502446
0.805432
0.869189
0.416282
1.33797
0.351154
0.398211
0.394658
0.552162
0.368216
0.880566
0.468358
0.34775
0.45344
0.558889
0.443264
0.486188
0.680945
0.652657
0.493075
0.77037
0.379164
0.35107
0.425591
0.353391
0.345662
0.43983
0.352756
0.354317
0.58318
0.355076
0.352034
0.802087
0.818738
0.347043
0.350239
0.954499
0.3543
0.358232
0.594107
0.359087
0.709929
0.448121
0.800447
0.355215
0.572861
0.473392
0.698428
0.356208
0.46861
0.354593
0.889336
0.364969
0.35196
0.587651
0.454672
0.514286
0.38619
0.391098
0.374857
0.356378
0.518382
0.356763
0.352452
0.339907
0.470415
0.562492
0.346218
0.36208
0.348933
0.353705
0.364132
0.794611
0.351007
0.472468
0.352117
0.607268
0.37446
0.40042
0.379992
0.496955
0.364377
0.466726
0.352471
0.366882
0.37259
0.388902
0.357486
0.463251
0.44791
0.889763
0.845332
0.791005
0.423351
0.378377
0.378021
0.344992
0.347242
0.956195
0.661502
0.423536
0.395404
0.351193
0.369177
0.349639
0.349541
0.545776
0.531683
0.756819
0.510825
0.399302
0.364041
0.450839
0.350925
0.641689
0.362862
0.43006
0.373091
0.388497
1.00242
0.44758
0.34538
0.364867
0.428498
0.348567
0.256681
0.351534
0.366426
0.405751
0.91998
0.505655
0.777519
0.353856
0.375939
0.388392
0.376662
0.395
0.359508
0.345197
0.346861
0.360618
0.362256
0.357496
0.593921
0.420796
0.856834
0.452268
0.355608
0.529211
0.381939
0.362314
0.351212
1.00845
0.900566
0.308996
0.337782
0.356254
0.81402
0.436723
0.4646
0.406218
0.39281
0.287825
0.378532
0.378921
0.345639
0.444943
0.485773
0.879336
0.554121
0.461629
0.344086
0.426832
0.647623
0.380552
0.352004
0.810405
0.8694
0.554044
0.662783
0.349325
0.345299
0.441718
0.35196
0.836178
0.352236
0.353192
0.353981
0.692606
0.348681
0.395534
0.489817
0.490861
0.353166
0.357258
0.368737
0.360131
0.33933
0.365071
0.410339
0.593117
0.470714
0.384499
0.625741
0.374798
0.60665
0.400455
0.898336
0.477374
0.444897
0.69077
0.311681
0.457529
0.528193
0.601303
0.442844
0.346693
0.359352
0.350759
0.377298
0.845277
0.39159
0.352791
0.369518
0.40681
0.351994
0.511924
0.377061
0.379899
0.491121
0.374406
0.353126
0.390708
0.384157
0.873289
0.819087
0.418701
0.367913
0.453496
0.366884
0.788002
0.71148