/*--------------------------------*- C++ -*----------------------------------*\
| =========                 |                                                 |
| \\      /  F ield         | OpenFOAM: The Open Source CFD Toolbox           |
|  \\    /   O peration     | Version:  2506                                  |
|   \\  /    A nd           | Website:  www.openfoam.com                      |
|    \\/     M anipulation  |                                                 |
\*---------------------------------------------------------------------------*/
FoamFile
{
    version     2.0;
    format      ascii;
    arch        "LSB;label=32;scalar=64";
    class       volScalarField;
    location    "0.0292463";
    object      nut;
}
// * * * * * * * * * * * * * * * * * * * * * * * * * * * * * * * * * * * * * //

dimensions      [0 2 -1 0 0 0 0];

internalField   nonuniform List<scalar> 
47425
(
0.00633544
0.00543732
0.00497634
0.00208018
0.00362567
0.0049048
0.00505839
0.00342002
0.00742907
0.00184864
0.00254482
0.00731807
0.00604107
0.00446445
0.0038067
0.00390873
0.00519517
0.00280795
0.000290848
0.00316676
0.00403187
0.00743734
0.00336137
0.00545047
0.00730641
0.00743326
0.00450802
0.00051461
0.00494517
0.00630033
0.00752792
0.00719902
0.00745681
0.00551723
0.00662068
0.00525738
0.00744392
0.00538289
0.00539483
0.00462575
0.00517514
0.00639656
0.00538272
0.00261111
0.000760139
0.00350297
0.00367905
0.00455251
0.00443675
0.0070931
0.000660386
0.00256071
0.00692322
0.000998949
0.00334941
0.00301362
0.00747076
0.0062639
0.00218738
0.00565376
0.000842643
0.000679554
0.000996774
0.00380999
0.00738481
0.00733135
0.0055752
0.00546297
0.00109675
0.0055133
0.00447851
0.00695311
0.00715673
0.00397736
0.00122904
0.0074623
0.00102311
0.00433702
0.000238872
0.00227978
0.00120358
0.00557395
0.0075092
0.00737076
0.00732169
0.00423912
0.00650908
0.0069448
0.0054359
0.00140038
0.0074587
0.00461488
0.00744016
0.00329026
0.00263236
0.00192505
0.00688549
0.00686565
0.00398191
0.00471052
0.00563145
0.00112154
0.00676786
0.00106524
0.00700164
0.0066849
0.00727892
0.00377041
0.00744475
0.00729573
0.00256177
0.00558425
0.00626648
0.00234339
0.00704188
0.000353383
0.00708074
0.000786592
0.00454476
0.00637934
0.00439446
0.0074718
0.00600126
0.0033834
0.00372495
0.00666896
0.00420842
0.00741987
0.00345671
0.00746328
0.00747036
0.00361661
0.0010882
0.00302634
0.00682701
0.00613023
0.00722321
0.0065293
0.0051018
0.00348294
0.0050404
0.00287325
0.00488346
0.00570533
0.00673853
0.00742452
0.00429901
0.00552369
0.00245036
0.0050338
0.00581277
0.000557402
0.00739099
0.000431657
0.00373183
0.00420053
0.00355507
0.000303936
0.0039973
0.00484576
0.0072054
0.00745814
0.00693812
0.00726972
0.00125929
0.000548723
0.0074567
0.00123102
0.00336066
0.000889382
0.00122714
0.00424645
0.0048086
0.00453851
0.0050782
0.0013909
0.00039296
0.00507918
0.00659417
0.00740892
0.00032663
0.00725303
0.00584887
0.00733227
0.00718461
0.00684687
0.00624528
0.00121835
0.0024773
0.00652569
0.00747257
0.00509281
0.00450931
0.00474168
0.00718677
0.0072375
0.00582788
0.00483695
0.00733584
0.00426724
0.00541299
0.00300619
0.00740059
0.00717062
0.00304855
0.002381
0.00662985
0.00718702
0.00415375
0.00747229
0.00542368
0.00546091
0.00745541
0.0036676
0.00567207
0.00574925
0.00515062
0.00178875
0.00397607
0.00393781
0.00211989
0.00300038
0.00608291
0.00365636
0.00239479
0.0016962
0.00715207
0.00278161
0.00712562
0.00492078
0.00538091
0.0048459
0.00350419
0.00748989
0.00226958
0.00370381
0.00196692
0.00313574
0.00224826
0.00205136
0.00419214
0.00638285
0.00747252
0.00337147
0.00740846
0.00731247
0.0052
0.00589712
0.00742691
0.00468241
0.00750956
0.00251456
0.00536965
0.00742077
0.00386903
0.00745734
0.00734007
0.0031316
0.00358992
0.00738963
0.0031514
0.00746952
0.00459685
0.00275999
0.00615512
0.00406811
0.00738462
0.00578224
0.00571472
0.00433467
0.00448914
0.00248501
0.00196931
0.00709727
0.00260759
0.00212971
0.00260553
0.000563075
0.00202074
0.000687055
0.000913977
0.00652078
0.000902819
0.0030588
0.00443
0.00398632
0.00352033
0.00385677
0.00412851
0.0069905
0.000757793
0.00648947
0.00737548
0.00616562
0.00529798
0.00356486
0.00319611
0.00730839
0.00531829
0.00453775
0.00406143
0.00735131
0.00403587
0.00595933
0.00111997
0.000836357
0.0005739
0.00745708
0.00710179
0.0075086
0.00339809
0.000825982
0.00406779
0.00299974
0.00160019
0.0048894
0.00345843
0.0031248
0.00387231
0.00179395
0.00178211
0.00746849
0.00577251
0.00720778
0.00434392
0.00743398
0.00449558
0.00585973
0.00664206
0.00487417
0.00458253
0.00112332
0.00481413
0.00458184
0.0029833
0.00750927
0.00107741
0.00672934
0.00723029
0.00675382
0.00737236
0.0073383
0.00741097
0.00659133
0.00704581
0.00673026
0.0061034
0.0072192
0.0043381
0.00427338
0.00722833
0.00730771
0.00561477
0.00712538
0.00705873
0.00316387
0.00457666
0.00755085
0.00700287
0.00386191
0.00191247
0.00644594
0.00444402
0.00385363
0.00719595
0.00691532
0.00287998
0.00742796
0.00521445
0.00739602
0.00287508
0.00127994
0.00444182
0.00746585
0.00192637
0.00744284
0.00636965
0.00398565
0.00502841
0.0074205
0.00563043
0.00738277
0.00741745
0.00482465
0.00419629
0.0043985
0.00424883
0.00671514
0.00717589
0.00421327
0.00711738
0.00735434
0.00439959
0.00618921
0.00547656
0.00707088
0.00560693
0.00387383
0.00225585
0.00710064
0.00080986
0.00727963
0.0022803
0.00499826
0.00357483
0.0035744
0.00708259
0.00251507
0.00718784
0.00377923
0.00732138
0.00102143
0.00102319
0.00743351
0.00333053
0.00428096
0.00399057
0.0043964
0.00460318
0.00445916
0.00410003
0.00519264
0.00743059
0.00329825
0.00496282
0.00693209
0.00332122
0.00470688
0.00663716
0.00101391
0.000363833
0.00709234
0.000521752
0.000439847
0.00408639
0.000448299
0.000677436
0.00691355
0.004356
0.00464515
0.00453989
0.000945316
0.00405116
0.00688984
0.00675372
0.00487107
0.00478758
0.00423398
0.00430215
0.000886462
0.000747749
0.00146508
0.00543425
0.00121238
0.0041404
0.00640085
0.00740624
0.00622741
0.00741681
0.00424327
0.00478975
0.00284742
0.00512731
0.00748971
0.00447544
0.00596953
0.00453992
0.00736
0.00548288
0.00523288
0.00523791
0.00562895
0.00346519
0.00294938
0.00569659
0.00431877
0.0073618
0.00111092
0.00285683
0.00253459
0.00742012
0.00271758
0.0027784
0.00370559
0.00747146
0.00467326
0.00735401
0.00511021
0.00351907
0.00346711
0.00435006
0.00384577
0.00652777
0.002442
0.000940186
0.00727892
0.00188637
0.00598848
0.0018621
0.00708421
0.00671487
0.0073924
0.00511636
0.00623217
0.00317915
0.00581159
0.00711435
0.00744978
0.00745508
0.00474124
0.00279717
0.00448367
0.00746414
0.00615359
0.00639835
0.00636994
0.00600742
0.00508375
0.00487029
0.00303923
0.0047271
0.00372332
0.00071024
0.00579866
0.0051001
0.00658541
0.00741291
0.00186124
0.00179125
0.00466058
0.00692107
0.00449151
0.00460936
0.00702286
0.00184863
0.00748407
0.00247928
0.00262482
0.00301459
0.00606591
0.00306507
0.00752498
0.00488009
0.00499139
0.00729651
0.00743379
0.00686148
0.000873194
0.00567711
0.00256566
0.00731736
0.00179922
0.00723678
0.00605583
0.00246695
0.00262262
0.0050612
0.00733184
0.000656654
0.00650115
0.0060742
0.00657576
0.00684704
0.00737204
0.00257354
0.00290556
0.0070649
0.00660094
0.0052046
0.00740414
0.00178318
0.00739691
0.00570536
0.000516391
0.00487177
0.00742428
0.000728173
0.00142888
0.00741444
0.000322145
0.000340717
0.00481187
0.00741487
0.00665732
0.00751041
0.00439733
0.00404402
0.00146035
0.00749604
0.00285802
0.00672428
0.00211854
0.00243556
0.00437598
0.00513451
0.00175284
0.00385173
0.00674349
0.00381045
0.00402017
0.00323355
0.00306732
0.00308965
0.00685122
0.00371744
0.00285433
0.00416368
0.00542046
0.0033975
0.00410152
0.00712608
0.00281458
0.00387464
0.00453273
0.00290678
0.00350025
0.00532431
0.00493207
0.00655701
0.00199969
0.0051086
0.00700405
0.00721367
0.000309774
0.00432525
0.00581478
0.000583915
0.000766882
0.00746993
0.00482825
0.000251865
0.0021436
0.000916783
0.00232933
0.00315609
0.000601168
0.00602467
0.00704973
0.00591516
0.0033641
0.00336224
0.0033313
0.00730926
0.00321107
0.00542001
0.00426361
0.00688027
0.00441788
0.00441783
0.00201784
0.000769223
0.00299695
0.00329367
0.00422083
0.00679565
0.0034832
0.00736812
0.00602714
0.00566945
0.00529932
0.00690283
0.00205727
0.00470807
0.00719634
0.00181311
0.00201212
0.000952693
0.00141934
0.00411416
0.00760445
0.00489608
0.00740779
0.000981374
0.00495636
0.00104747
0.00435222
0.00440541
0.0061702
0.00501592
0.00584493
0.00404798
0.0022564
0.00398053
0.00645071
0.00192522
0.00484306
0.00748632
0.0048245
0.00406564
0.000806442
0.00621087
0.00188491
0.00419954
0.00747499
0.00732562
0.00262241
0.00440322
0.00452894
0.00738454
0.00539396
0.00476603
0.00473414
0.00439198
0.00442076
0.00542195
0.00106604
0.000684626
0.00487733
0.000910717
0.00528226
0.00312127
0.00363645
0.00713704
0.00534985
0.00591395
0.00457604
0.00438105
0.00739088
0.000615971
0.00210437
0.00359863
0.00520594
0.00720145
0.0039199
0.00665379
0.00255338
0.00729486
0.00121276
0.00422732
0.00731475
0.00451723
0.0070417
0.00584326
0.00497567
0.00697447
0.00383906
0.00742684
0.00724907
0.00481485
0.00102518
0.00751888
0.000550416
0.00213134
0.00242661
0.000468617
0.00440899
0.00343031
0.0025363
0.00427643
0.000866588
0.000404686
0.000905556
0.00378193
0.00586379
0.00398035
0.00307995
0.000979104
0.00270583
0.00388553
0.0066005
0.0050337
0.00465126
0.00323239
0.00624604
0.00442741
0.00128155
0.00230989
0.00556251
0.00246525
0.00121998
0.000791438
0.00436122
0.000361488
0.00164332
0.000700529
0.000877798
0.00450979
0.00308646
0.00743063
0.00712714
0.00497577
0.000430887
0.00154702
0.00490221
0.00496429
0.00744376
0.000809505
0.000571731
0.00747279
0.00231118
0.00386058
0.00744736
0.00227179
0.00744908
0.00751147
0.00481105
0.00499439
0.00169496
0.00693028
0.00747913
0.00583247
0.00535762
0.00533237
0.00118839
0.00182779
0.00740254
0.00147336
0.00708901
0.00740717
0.00730868
0.0018549
0.00465148
0.00195071
0.00293961
0.00643237
0.00743404
0.00147555
0.000757608
0.00480411
0.00414453
0.00184452
0.00558503
0.0056236
0.00317057
0.00290646
0.00294652
0.00293478
0.00240333
0.00115715
0.00742395
0.00124751
0.00650779
0.00396426
0.00746371
0.00213602
0.00285346
0.00752972
0.00258617
0.00139059
0.0041713
0.00172655
0.00550779
0.00653626
0.00495765
0.00351915
0.00494555
0.00343282
0.000774727
0.00516286
0.00320205
0.00182601
0.00181408
0.000757173
0.00177659
0.0042469
0.000583028
0.00739588
0.00715424
0.00422502
0.0025103
0.00404853
0.0015906
0.00146438
0.0033408
0.00623389
0.00511363
0.0033458
0.00366413
0.00403356
0.00443831
0.0012833
0.00421029
0.00542264
0.00214294
0.00167611
0.00249313
0.00056122
0.0040219
0.00538124
0.00387339
0.00405797
0.00577824
0.00738308
0.00338963
0.00387887
0.000860409
0.00304579
0.00511795
0.00381218
0.0064307
0.00356687
0.000863883
0.00463236
0.00218087
0.00661199
0.002244
0.00286802
0.00376075
0.00547615
0.00532753
0.00358232
0.00154092
0.00404685
0.00175628
0.00075709
0.00567974
0.00731574
0.00605216
0.00121509
0.00602684
0.00171496
0.00668293
0.00174483
0.0016177
0.00318822
0.00367711
0.00434953
0.00745001
0.00515294
0.00321851
0.000970332
0.00241534
0.000636481
0.00744026
0.00264944
0.0031009
0.00229844
0.00394253
0.00271316
0.00171319
0.00167385
0.0037892
0.000859105
0.00388798
0.00403275
0.00483982
0.00541953
0.00425418
0.00518369
0.0014717
0.00379077
0.00393171
0.00568114
0.00667709
0.000830548
0.00186514
0.000773745
0.00185254
0.00134098
0.00210269
0.00402448
0.00139708
0.00397904
0.00144711
0.00203359
0.00207012
0.00136517
0.00352805
0.00610241
0.00486865
0.00750827
0.00166764
0.0037664
0.0036184
0.00487846
0.0016642
0.00660398
0.00457401
0.00678266
0.00746768
0.00298524
0.00226766
0.00304001
0.0038693
0.00662267
0.00235816
0.00732928
0.00351232
0.00328532
0.00714101
0.00277659
0.00187282
0.00514047
0.0025885
0.00436262
0.00266752
0.00208645
0.00297775
0.00324359
0.000227591
0.000554027
0.00166943
0.000390941
0.00347563
0.00383349
0.000589018
0.000527854
0.00606852
0.00119467
0.00342469
0.00427584
0.000508162
0.00266624
0.00704614
0.0032634
0.00180534
0.00700261
0.000762334
0.000355817
0.00245539
0.000799213
0.00235296
0.000989253
0.000823062
0.00605978
0.0046946
0.00278984
0.0018611
0.00384005
0.0072129
0.00240687
0.00068145
0.00646898
0.00176006
0.00503407
0.00215152
0.00700936
0.00639817
0.0020685
0.00209895
0.00439271
0.00192577
0.00581787
0.00117507
0.00740124
0.0070535
0.0030395
0.00187559
0.00498757
0.00746165
0.00080227
0.0014025
0.00177924
0.00378046
0.00359181
0.00221345
0.00109041
0.0044776
0.00106851
0.00189926
0.00620261
0.00348124
0.00220552
0.000916726
0.00267433
0.00211811
0.00600972
0.00637933
0.00232529
0.00439576
0.00303019
0.00527414
0.00740459
0.00719258
0.00480773
0.00227182
0.000719807
0.00497136
0.000496262
0.0048153
0.00475109
0.00315142
0.00632212
0.00403751
0.00508925
0.00532526
0.00197481
0.00657365
0.00156805
0.00750622
0.000386904
0.0012007
0.0017134
0.00201178
0.00493124
0.00559945
0.00358266
0.00668811
0.000729566
0.000709251
0.00349399
0.0021067
0.000890601
0.000929792
0.00236588
0.00116886
0.00050316
0.00380531
0.00697662
0.000460757
0.00425301
0.00550931
0.00475198
0.000749276
0.000619418
0.00435061
0.0047611
0.00145609
0.0022826
0.000818231
0.00075943
0.00335431
0.00106242
0.00113512
0.00345802
0.00492466
0.000993082
0.00670399
0.00110541
0.000236697
0.0074418
0.00535847
0.00434627
0.0063235
0.00310687
0.0034043
0.00735917
0.0030626
0.00418908
0.000991052
0.00180444
0.00567174
0.00139816
0.00559354
0.000388981
0.00699178
0.00389126
0.00228957
0.00679663
0.00106649
0.00409639
0.00318847
0.00241207
0.00221312
0.00411904
0.00241415
0.00213722
0.000787363
0.00694453
0.00125335
0.000772489
0.0010848
0.00490485
0.00110315
0.00207628
0.00478493
0.00514782
0.00117689
0.00204128
0.0025777
0.000775783
0.00258749
0.00109993
0.00243607
0.00296986
0.00232568
0.000968637
0.00311077
0.00705224
0.00228321
0.00430326
0.0025573
0.00225835
0.000621236
0.00598134
0.00423108
0.00576397
0.00155092
0.00563034
0.000562954
0.00245947
0.00562094
0.00736786
0.00201572
0.00193073
0.000995825
0.00189903
0.00260899
0.00132813
0.00100014
0.00438654
0.000934026
0.00216842
0.00322437
0.000525222
0.00145691
0.00308962
0.00298289
0.00561492
0.00173589
0.000512972
0.00193977
0.0022429
0.00255636
0.00718433
0.00213519
0.00566386
0.00380385
0.00627488
0.00122894
0.00212526
0.00155999
0.0045209
0.0018184
0.004349
0.00276834
0.00132118
0.00193051
0.00246075
0.00264517
0.00619846
0.000421732
0.00158063
0.00174595
0.0014486
0.00248429
0.00620008
0.00112768
0.000493979
0.00171332
0.00326422
0.00287283
0.00242096
0.00250544
0.000991911
0.006064
0.00141459
0.00169605
0.00654468
0.00151099
0.00350086
0.00262771
0.00293551
0.00154215
0.00246462
0.00709682
0.000685306
0.00345308
0.000680528
0.00270033
0.00457012
0.00283131
0.00226189
0.00158854
0.00331694
0.00444523
0.0032284
0.00145498
0.00458296
0.00519593
0.000616195
0.0074229
0.00403281
0.000838605
0.00444674
0.00268928
0.00142075
0.0024938
0.00115343
0.00446888
0.000196936
0.00155759
0.00114125
0.00208666
0.00134457
0.00344264
0.000946295
0.0013808
0.00129401
0.00347127
0.00408265
0.00738968
0.0042151
0.00401441
0.0029334
0.000640372
0.00388156
0.00620381
0.00561452
0.00574965
0.00359789
0.00431201
0.00749768
0.00747891
0.00308359
0.000987352
0.00737299
0.00289165
0.00233103
0.0055709
0.00714188
0.00293546
0.00293063
0.00746822
0.00626284
0.00351274
0.0037217
0.00713485
0.00391478
0.00107858
0.00400517
0.00440054
0.00622762
0.00745017
0.00148624
0.00516634
0.00648447
0.000727042
0.00117486
0.00098208
0.00726226
0.000915299
0.000461671
0.00716007
0.000305296
0.000833123
0.000541145
0.00402506
0.00524201
0.00441807
0.00166055
0.00741485
0.00454237
0.00466608
0.00403762
0.0029882
0.00390787
0.0035439
0.00124355
0.00446747
0.00293191
0.000894622
0.00407256
0.000415908
0.00210816
0.00130935
0.00725406
0.00311709
0.00204455
0.00677946
0.00523238
0.00196238
0.00748866
0.0024524
0.00190055
0.000394493
0.00700993
0.00148989
0.00621449
0.00315863
0.00297428
0.00613746
0.00143679
0.00569506
0.00238676
0.00587977
0.00129736
0.000268241
0.00449807
0.00744831
0.000410166
0.00495223
0.000327032
0.00413963
0.00386164
0.00481355
0.00473261
0.00599907
0.00705399
0.0045328
0.00220419
0.00590591
0.00223117
0.00420845
0.00402057
0.00737424
0.00238428
0.000694597
0.00410137
0.00206403
0.00626417
0.00511046
0.00313619
0.00441502
0.00482888
0.00631042
0.00245711
0.00269441
0.00747179
0.00403936
0.00471626
0.00533095
0.00389881
0.00255795
0.00189401
0.00465844
0.00410883
0.00250991
0.00402098
0.00657156
0.00530373
0.00694677
0.00217548
0.00227701
0.00196278
0.00368996
0.00507253
0.00481535
0.00137145
0.00647281
0.00641531
0.00585376
0.00166752
0.00301256
0.00131303
0.00131225
0.00126526
0.00401677
0.00519274
0.00511128
0.00476539
0.00692092
0.00128012
0.00479324
0.00717859
0.00440733
0.00334672
0.00483625
0.00112135
0.00492046
0.00239742
0.00278356
0.0035734
0.0065653
0.00490739
0.00396351
0.00399829
0.00512583
0.00313853
0.00378424
0.00297567
0.00403318
0.00509386
0.00489157
0.00229124
0.00201535
0.00537565
0.00437685
0.00255069
0.00385748
0.0023167
0.00734966
0.00652872
0.00253273
0.00510066
0.00634857
0.00482123
0.00724221
0.00737386
0.00436114
0.00463949
0.00189057
0.00491824
0.00280833
0.00709753
0.00498708
0.000987718
0.00438686
0.0043353
0.00590871
0.0056423
0.00412383
0.00437353
0.000336866
0.00350497
0.00275441
0.00686704
0.00591901
0.00514192
0.00746048
0.0070376
0.0035512
0.00427947
0.00700586
0.00733172
0.00244896
0.00096997
0.00143911
0.00311814
0.00181812
0.00359264
0.0046172
0.00359769
0.00187514
0.00203901
0.00385259
0.00434781
0.000862766
0.00532099
0.00433368
0.00408938
0.00418016
0.00732701
0.000346944
0.00512259
0.00381247
0.00736025
0.00282723
0.00329886
0.00038014
0.000252476
0.00511651
0.00651149
0.00739886
0.00413574
0.00384474
0.00604988
0.000238935
0.00103423
0.00534642
0.00261102
0.00141923
0.00544999
0.00636926
0.00282656
0.00742003
0.00563362
0.00721603
0.00473282
0.00257918
0.00414566
0.00445419
0.00633755
0.00226333
0.00466763
0.00743663
0.00118241
0.00570953
0.00389779
0.0029573
0.000996202
0.00130925
0.00356918
0.0028818
0.00601658
0.00284828
0.00299247
0.00730908
0.000611368
0.0013938
0.00288039
0.0040943
0.00341288
0.00403366
0.0040339
0.00100209
0.00746671
0.00720028
0.00575369
0.00541265
0.00100578
0.00143994
0.00118343
0.00174992
0.00351089
0.00288381
0.0074651
0.00755344
0.00455816
0.00579092
0.00530171
0.00634662
0.00749117
0.00110346
0.000382226
0.00737804
0.00740014
0.00355717
0.0014654
0.00370763
0.00744748
0.00568771
0.0015368
0.000924181
0.00367038
0.00194061
0.00247094
0.00198636
0.00047213
0.00305183
0.0068568
0.00749331
0.00617021
0.000927867
0.00636896
0.00435409
0.00447699
0.00746109
0.00082171
0.000202618
0.000440326
0.00173722
0.00165678
0.00692759
0.00743755
0.0028181
0.00458482
0.000889372
0.000908717
0.000541055
0.000450653
0.000657738
0.00192117
0.00700731
0.000892004
0.00738658
0.00041237
0.0039242
0.000725427
0.00456109
0.00200439
0.00712384
0.00341491
0.00224939
0.00226302
0.00673059
0.00560633
0.00400506
0.000998817
0.00126678
0.00501122
0.00520817
0.00048075
0.000347951
0.00417313
0.00146511
0.000600795
0.00112669
0.00509517
0.00736755
0.000655985
0.000547333
0.00136662
0.00745368
0.00121252
0.00687938
0.00061086
0.00109467
0.000270107
0.00219188
0.00664168
0.00191689
0.00727221
0.00478677
0.00416603
0.00250167
0.00638011
0.00415174
0.00584904
0.00389668
0.0045002
0.00741507
0.00711396
0.00422885
0.00706311
0.00669099
0.00459726
0.00561647
0.00193587
0.00399578
0.00248429
0.00412932
0.0067783
0.00528863
0.000939417
0.00389356
0.00356589
0.00231587
0.000655578
0.00458384
0.00249819
0.00398669
0.00105497
0.00231088
0.00137946
0.00573995
0.00730477
0.00550852
0.0036935
0.00632824
0.00362211
0.00342388
0.00411864
0.0073104
0.00520751
0.00641815
0.00492704
0.00333245
0.00503922
0.00379927
0.000727306
0.00384246
0.00425692
0.0045942
0.00313628
0.00118792
0.00221415
0.00438933
0.00513213
0.00335537
0.00104411
0.00116871
0.00436163
0.00342729
0.000379133
0.0015831
0.00208284
0.00412705
0.00154129
0.00325322
0.00408669
0.00351608
0.00117632
0.00482751
0.00419776
0.00275747
0.00686328
0.00238667
0.00288331
0.00329923
0.003398
0.00197001
0.0045929
0.00588888
0.00747977
0.00222946
0.00345941
0.00443813
0.00200388
0.00547009
0.000976317
0.00296863
0.00341731
0.000444745
0.00203894
0.00709834
0.00353228
0.000805154
0.0017211
0.00245493
0.00741192
0.00291382
0.00129657
0.00654351
0.00754748
0.000700927
0.00213381
0.00154119
0.00203214
0.00633719
0.00497607
0.00129749
0.000482886
0.00078599
0.00463262
0.00615259
0.000583074
0.00725425
0.00198894
0.00306461
0.00147597
0.00134771
0.0066987
0.00365476
0.0011465
0.00410335
0.00456293
0.00501352
0.00369589
0.00563252
0.00107282
0.000303218
0.00412737
0.00364423
0.000590098
0.000608836
0.000688925
0.0024902
0.00118276
0.00223033
0.000595297
0.00354347
0.00353744
0.00080352
0.00241751
0.00254749
0.000500801
0.000836691
0.000359896
0.0073996
0.00701485
0.000396971
0.00626568
0.00432213
0.000777698
0.00608774
0.00295536
0.00491863
0.00333659
0.00511903
0.00672598
0.000496272
0.000373512
0.00178895
0.000669553
0.00241573
0.00416731
0.00445375
0.00499202
0.00336172
0.0055609
0.00623189
0.00454177
0.00543925
0.000439692
0.000460923
0.00480122
0.00205758
0.0060532
0.00392115
0.00307205
0.00361033
0.00374031
0.00510349
0.000515845
0.00126357
0.00432993
0.000606404
0.00284764
0.00133241
0.00250416
0.00374408
0.000941527
0.00284403
0.00120098
0.00243972
0.00293118
0.00293152
0.00677204
0.00136366
0.00744049
0.00615594
0.00277263
0.0043762
0.00150746
0.00351806
0.00192233
0.00349434
0.000854237
0.00416704
0.00349154
0.00373047
0.00740224
0.0034424
0.00372239
0.00174263
0.000534121
0.00339025
0.000648724
0.00348551
0.00498095
0.00204828
0.00504011
0.00571475
0.00546669
0.00318685
0.00130061
0.00229512
0.00151051
0.000664935
0.00205712
0.00508988
0.000170526
0.00106697
0.00550684
0.00306004
0.00148203
0.00393894
0.000817176
0.000459896
0.00270608
0.00127071
0.00142633
0.00303263
0.000853516
0.00200534
0.00709966
0.00353255
0.0010625
0.00107371
0.00724785
0.00103467
0.00740525
0.00267285
0.00607099
0.00267431
0.00193755
0.00100991
0.00103527
0.00586362
0.00568165
0.000241579
0.00742728
0.00434093
0.00116808
0.00653446
0.00292175
0.00225637
0.00399216
0.000513538
0.00156876
0.000495288
0.00155468
0.00315376
0.00129516
0.00676643
0.00587572
0.00119844
0.00721559
0.00389574
0.00266354
0.00551911
0.00148864
0.000522265
0.00735716
0.00271253
0.00730026
0.000848747
0.00531397
0.000615089
0.00288997
0.00245758
0.00664733
0.00262182
0.00269131
0.00698837
0.00568876
0.00347778
0.00749458
0.00126563
0.00355022
0.00358057
0.00660753
0.00466894
0.00356803
0.00291531
0.0029394
0.00247481
0.00336655
0.00451228
0.00467773
0.001719
0.000600369
0.000799909
0.000756506
0.00129162
0.000878485
0.000810149
0.00336422
0.000272619
0.000570633
0.0012844
0.00226824
0.0028961
0.000774779
0.00104251
0.00246171
0.00127685
0.0021772
0.00633997
0.002906
0.00120314
0.00417859
0.000385568
0.00285756
0.000362421
0.00216681
0.00119458
0.00143
0.000749682
0.000574755
0.00210146
0.000477744
0.00277148
0.00201257
0.00494792
0.00178885
0.00544612
0.0065607
0.00103197
0.00357793
0.000895027
0.00157145
0.00538414
0.00238407
0.00470016
0.00128901
0.00107102
0.00740102
0.00558963
0.00176676
0.000922055
0.00378783
0.00276783
0.00117915
0.00117292
0.00520363
0.00735686
0.00397349
0.00456742
0.000709253
0.00753057
0.000961714
0.000336598
0.00538295
0.00303616
0.004745
0.00433027
0.000748143
0.00280536
0.000737438
0.00366403
0.00516995
0.00054988
0.000813522
0.00598245
0.00245372
0.00599066
0.00710322
0.0011558
0.0027296
0.000755192
0.0041202
0.00686161
0.00233596
0.00670828
0.00615403
0.00585116
0.00512127
0.00278703
0.00226674
0.00142337
0.00354575
0.00125227
0.00397656
0.00728764
0.00219717
0.00131367
0.000851114
0.000927597
0.00137904
0.00203949
0.00105239
0.00104778
0.00080249
0.000959863
0.00322163
0.00302834
0.00417267
0.00144291
0.00480579
0.00319985
0.00331349
0.0016821
0.000557826
0.0034868
0.0032313
0.00349106
0.00534354
0.00343439
0.00507596
0.00619886
0.00518819
0.00288196
0.00319725
0.00278649
0.00614533
0.00306716
0.00131996
0.000803647
0.00442848
0.000625585
0.00739039
0.0036709
0.00733439
0.00461742
0.00102874
0.00275256
0.00127675
0.00383554
0.00403515
0.0040059
0.00462497
0.00537192
0.00307781
0.00351009
0.00345994
0.00707836
0.000898975
0.00330406
0.00144582
0.00295973
0.00111314
0.00665348
0.00468454
0.00353367
0.00405317
0.00299122
0.000989387
0.00705482
0.00472753
0.000659354
0.00247475
0.00243134
0.00307494
0.0024425
0.00270888
0.00214958
0.00556346
0.00723521
0.00685295
0.00205947
0.00181081
0.00520425
0.00040872
0.00551836
0.00180959
0.00706402
0.00684587
0.00204962
0.00439814
0.00635946
0.00111163
0.00741814
0.00428577
0.0016671
0.0021237
0.00739259
0.00133674
0.00697244
0.00697651
0.0012913
0.00377992
0.0028972
0.000869704
0.00748495
0.00189772
0.00154252
0.00174881
0.00105792
0.00119575
0.00542794
0.00580715
0.00294015
0.00617785
0.00218692
0.00299839
0.006247
0.00689679
0.0034847
0.00128654
0.0030139
0.00444002
0.00222799
0.00345287
0.0023285
0.00738767
0.00210081
0.00133774
0.00372714
0.00410236
0.00555755
0.00549117
0.00372728
0.00435338
0.00228124
0.00394933
0.000585185
0.00452485
0.00708837
0.00101963
0.00287312
0.000688513
0.000958287
0.00573149
0.00387973
0.00136549
0.00309738
0.000380276
0.00151289
0.000667662
0.0016848
0.000452519
0.00296358
0.00170739
0.0017262
0.000611093
0.00113159
0.00302826
0.000567881
0.000364143
0.0019728
0.000342887
0.000901727
0.00160265
0.00165549
0.000571378
0.000951555
0.00748897
0.00377837
0.00104323
0.000852123
0.00102305
0.00143777
0.0016219
0.000771509
0.00294272
0.0037405
0.00462503
0.00726829
0.00325028
0.0070068
0.00109506
0.00301471
0.0044343
0.000757378
0.00399245
0.00233639
0.00501015
0.00683717
0.00321758
0.00469129
0.0018003
0.00720617
0.00213465
0.000610898
0.00536986
0.00743393
0.003741
0.00560425
0.00125791
0.00283898
0.00596071
0.00648674
0.000627581
0.00700665
0.00438528
0.00709495
0.00189763
0.00337217
0.00457392
0.00618998
0.00552904
0.00144365
0.00383396
0.0025228
0.00726714
0.00734014
0.00728781
0.00395679
0.00483689
0.00369998
0.00650212
0.00351737
0.00371561
0.0029613
0.00124559
0.00132981
0.00363809
0.00202496
0.00431309
0.00276121
0.00351298
0.00375662
0.00693731
0.00318857
0.0043349
0.00652907
0.00207392
0.00472943
0.00307278
0.00119333
0.00496477
0.00285488
0.0013863
0.00401243
0.00120039
0.00203
0.00112723
0.000381704
0.00287963
0.0058302
0.00227307
0.000494446
0.00323474
0.00714528
0.00686014
0.00635664
0.00387495
0.00475527
0.00741199
0.0074039
0.00411113
0.00299955
0.0074431
0.00705954
0.00747995
0.00594072
0.00322319
0.00192317
0.0031384
0.00650258
0.00393279
0.000952649
0.00587203
0.00652143
0.0035483
0.000542743
0.0006887
0.00375658
0.00538416
0.00540161
0.00334758
0.0039259
0.000619477
0.00201796
0.00526161
0.0040854
0.00713771
0.00375774
0.00196912
0.00383881
0.00329836
0.00388806
0.00140221
0.00198027
0.00152884
0.00105456
0.000347385
0.00178587
0.00194774
0.00406672
0.00409222
0.00357864
0.00330777
0.00677593
0.00456665
0.000465449
0.00738806
0.00185391
0.00122041
0.00340216
0.00302825
0.000345615
0.00205589
0.004326
0.0039213
0.00749541
0.00310378
0.000963609
0.00391426
0.00177542
0.00411195
0.00293179
0.000659766
0.000912544
0.00370101
0.00354316
0.0011416
0.00508969
0.000720873
0.000697369
0.00133467
0.00741973
0.00726699
0.000283899
0.00672573
0.00050046
0.00227214
0.00335147
0.00117642
0.00100371
0.00695195
0.00746297
0.00100766
0.00700933
0.00652739
0.00535477
0.00721976
0.00440961
0.00409472
0.00240675
0.00639959
0.00036738
0.00328337
0.00511405
0.00401014
0.000326453
0.0043596
0.000578309
0.00532156
0.00387863
0.00398249
0.00118882
0.00562409
0.00461086
0.00537732
0.000897796
0.00215469
0.00215242
0.00151847
0.00288165
0.00681963
0.000852776
0.00312716
0.00335279
0.00318256
0.00518193
0.00328582
0.00381965
0.00723028
0.000406895
0.00153726
0.004766
0.00534804
0.00213088
0.00485017
0.00292984
0.00348049
0.00554328
0.00237387
0.00512505
0.00564996
0.00432766
0.00144393
0.00478909
0.00512447
0.00534098
0.00364546
0.00700927
0.0053937
0.00609377
0.00282017
0.00447978
0.0027421
0.00259069
0.00391038
0.000531482
0.00557201
0.00334237
0.0011051
0.00077128
0.00146958
0.00388329
0.00299097
0.00197176
0.000332529
0.00399942
0.000882712
0.00403613
0.00740352
0.00289124
0.00180799
0.00391724
0.00539656
0.00739424
0.00590072
0.000342894
0.00583521
0.0070403
0.00262584
0.000472893
0.000485246
0.00417598
0.000280967
0.000893324
0.00110413
0.00136615
0.000742636
0.000386753
0.00558976
0.000904039
0.00405075
0.00671237
0.00407549
0.000436717
0.00214809
0.00704554
0.00643851
0.000970736
0.00531111
0.000487027
0.00679606
0.00295142
0.00543379
0.00299727
0.000641415
0.00734327
0.00319523
0.00287792
0.00631939
0.00373399
0.0066908
0.00295521
0.000579036
0.000573091
0.000627796
0.00163873
0.00156645
0.0068288
0.00693684
0.00574753
0.00373157
0.00733675
0.00173476
0.00749431
0.00103938
0.00422723
0.00717379
0.00647234
0.00479908
0.00714944
0.00379196
0.00306788
0.00728741
0.00323072
0.000948759
0.00652342
0.00120907
0.000915083
0.00675064
0.00027585
0.000554152
0.00287872
0.00297625
0.00416458
0.00132636
0.00439732
0.00215519
0.00174923
0.00609144
0.00173255
0.00700487
0.0023412
0.0045158
0.00251409
0.00197055
0.000740344
0.00332996
0.0040291
0.000726184
0.00151905
0.00220877
0.00129796
0.00565571
0.00137314
0.00441715
0.00196324
0.00301316
0.006096
0.0013613
0.00264563
0.00261159
0.00652623
0.00065294
0.000903876
0.000439591
0.00653556
0.00468066
0.000989223
0.000635987
0.00238192
0.00419784
0.00253145
0.00122416
0.000698632
0.00204674
0.00578173
0.00308387
0.00442972
0.00573661
0.00405059
0.000647337
0.00603452
0.00208347
0.0031728
0.00711865
0.00265804
0.00274798
0.00655842
0.00412757
0.00365735
0.00231575
0.00115177
0.0048425
0.00236013
0.00238637
0.00229701
0.00300302
0.00200427
0.00173365
0.00365498
0.00648394
0.00627428
0.00623018
0.000751947
0.00411242
0.00109952
0.00371992
0.00431536
0.00584547
0.00357835
0.00709004
0.00252502
0.00747673
0.00254894
0.00241862
0.00363511
0.004805
0.00243889
0.00357134
0.00316597