/*--------------------------------*- C++ -*----------------------------------*\
| =========                 |                                                 |
| \\      /  F ield         | OpenFOAM: The Open Source CFD Toolbox           |
|  \\    /   O peration     | Version:  2506                                  |
|   \\  /    A nd           | Website:  www.openfoam.com                      |
|    \\/     M anipulation  |                                                 |
\*---------------------------------------------------------------------------*/
FoamFile
{
    version     2.0;
    format      ascii;
    arch        "LSB;label=32;scalar=64";
    class       volScalarField;
    location    "0.0292463";
    object      omega;
}
// * * * * * * * * * * * * * * * * * * * * * * * * * * * * * * * * * * * * * //

dimensions      [0 0 -1 0 0 0 0];

internalField   nonuniform List<scalar> 
47425
(
55.0414
68.8849
69.6257
164.247
130.5
71.894
89.8159
103.877
49.4133
552
141.721
50.741
66.8936
77.5103
91.1982
92.1933
66.6438
52.2539
1136.02
173.361
86.4898
47.1464
107.613
64.0511
49.2109
46.6559
76.0535
664.468
69.0621
56.2934
47.736
49.8813
48.081
63.9009
52.7828
68.0262
47.0205
67.822
64.6337
74.974
73.8465
59.5709
89.8559
145.071
1533.05
109.449
97.7911
78.5412
78.2294
49.3009
574.402
196.865
49.9846
803.723
116.076
123.849
46.6588
56.2353
84.3379
62.4888
1104.73
1096.41
826.485
49.136
49.3864
48.3377
64.1625
67.0491
778.312
49.5482
77.4134
50.7627
48.8582
88.66
667.342
49.4368
800.376
80.8877
1379.39
238.007
698.091
63.5389
47.3403
48.4572
47.4776
83.3322
53.5598
49.8464
95.4607
389.713
48.2388
79.1641
47.3572
116.424
149.461
196.876
50.2974
50.5263
85.6604
81.349
63.1095
91.2751
51.7815
102.908
50.0932
54.3119
47.7213
91.5864
46.694
49.5555
288.14
63.2044
61.969
156.356
50.8231
914.024
50.3575
231.545
82.3904
57.9158
78.3326
48.6197
60.5703
61.2119
99.7852
58.9279
84.8077
49.2146
108.283
47.2397
47.6906
101.017
136.12
124.833
55.336
63.1531
49.6243
60.7279
68.6107
99.0324
72.0675
135.797
72.5615
75.7471
54.027
49.3451
102.381
64.2866
154.274
72.9089
73.4121
481.658
48.9179
687.185
50.0169
85.1661
57.4267
892.355
96.2914
76.049
51.1291
47.23
50.1471
48.6038
381.925
821.835
48.071
669.815
107.528
677.654
667.16
88.8224
74.2327
48.7625
75.3172
69.1603
709.686
67.5223
52.9727
47.176
989.388
47.592
58.9818
47.9864
48.3011
52.1183
56.3992
84.9619
149.092
53.1411
48.112
67.9987
75.5513
77.1361
49.2737
49.905
62.0069
73.8976
50.5204
78.6929
67.4587
123.24
47.3468
50.1716
52.718
159.252
51.8275
49.9309
89.7953
48.6373
63.4054
63.2537
48.2003
91.5257
61.7555
61.6811
67.8818
247.701
51.0193
96.283
264.94
110.779
71.8818
92.6682
167.723
222.415
49.1422
129.667
53.6983
62.0914
64.7085
74.1765
108.77
49.3353
167.004
95.4469
293.477
118.124
243.606
181.81
83.5468
55.0497
47.1673
104.107
47.267
49.8085
66.1827
61.6429
46.7016
75.0912
46.2029
198.54
65.8205
49.3111
91.9949
46.7595
47.8127
123.917
95.1283
48.5921
128.949
48.4145
76.0464
136.53
65.9768
93.3902
47.6519
66.3298
60.5671
82.7777
78.2016
213.931
288.996
49.3597
200.128
181.124
200.764
121.373
274.129
179.473
1142.39
53.1841
1070.02
127.378
79.9901
84.098
107.897
90.2826
92.8958
52.1185
596.871
48.4133
50.3444
55.8137
65.3806
102.906
115.175
47.5283
65.7369
58.3763
93.1273
47.9336
90.6203
58.5023
750.767
1015.75
669.02
46.8896
49.0551
46.913
104.923
667.834
87.5072
120.084
212.597
77.1362
106.583
125.599
90.8753
359.65
189.027
47.5187
60.1194
47.8268
85.4186
46.7195
76.5829
58.9632
52.2497
71.387
76.2539
556.4
53.9682
75.9289
129.611
47.0679
584.284
53.1636
48.0726
51.7209
48.1637
48.3774
46.4682
54.0286
49.7849
51.9935
57.5876
49.4202
80.4838
87.9569
49.0452
48.9163
63.1806
50.9131
50.0199
52.425
78.852
47.2145
51.3713
94.1158
61.2899
58.3548
82.9307
92.9124
48.0571
51.0682
134.43
48.5705
68.1054
47.9156
134.206
854.636
76.9435
48.3194
200.262
48.4105
59.5283
96.7782
72.6369
47.1702
63.9182
48.4986
46.2905
74.0586
89.2136
82.9927
84.9817
52.6372
49.5799
84.9803
50.1756
48.9121
82.7783
55.765
65.5074
50.289
62.6412
91.8285
65.884
48.9242
472.025
48.0353
342.837
73.7338
108.598
106.544
49.0591
147.048
47.8072
96.6486
48.703
668.717
337.217
47.424
51.4773
80.6913
86.1206
80.3474
77.1083
76.9474
91.0261
68.9277
46.6769
103.835
69.3918
49.6707
78.7604
73.9416
53.9891
144.479
1197.5
49.4148
283.75
986.91
91.9492
1020.88
877.575
50.5553
79.067
74.5481
76.1037
652.004
92.7757
50.873
51.7867
72.2954
73.4834
82.5462
81.3065
435.631
692.594
146.718
65.8534
74.6093
97.9765
54.5967
48.8378
63.3185
48.5446
84.5386
75.8718
132.729
68.3056
49.356
77.6214
59.4577
81.3967
49.3267
63.8124
66.8245
67.5149
63.6923
111.085
126.822
60.8426
86.6051
48.9572
463.405
132.314
74.0367
48.0279
141.657
210.037
49.8945
46.8601
50.1524
48.9999
68.7943
50.9967
111.434
78.229
49.7937
53.4259
152.038
100.035
47.3957
53.5462
58.8271
57.5399
49.0319
51.733
46.8896
67.7061
57.0331
113.745
59.7
48.4955
47.2318
48.6928
75.3947
130.94
48.7993
46.9592
57.2234
54.0152
54.0744
58.6256
73.2933
71.6953
52.563
76.9463
100.984
419.217
61.7907
69.0566
55.6273
49.3652
119.225
119.761
80.2223
50.836
84.1996
96.2714
50.5489
130.79
48.5735
224.658
53.2992
53.9725
58.1192
116.517
46.5403
72.2749
71.801
48.1294
46.318
50.5048
1119.59
61.4311
153.659
47.5603
93.1544
48.9172
57.8566
79.6221
71.6668
70.7595
47.4376
420.136
53.3317
57.4749
53.1014
50.8035
47.3734
59.7757
108.781
50.2913
52.6677
68.2472
47.2083
213.985
47.8668
61.6176
515.116
73.2823
46.8093
384.133
534.437
47.937
657.014
703.054
71.2568
48.2691
52.1346
46.8281
87.714
92.8133
478.954
47.1857
133.295
51.5192
100.001
58.5438
86.2024
69.0223
503.651
241.431
52.8396
93.153
86.3209
84.7183
124.634
128.656
51.9363
98.0529
133.053
82.4388
68.6578
126.774
52.9379
50.1308
127.39
96.241
77.2725
127.041
104.832
64.9247
73.6485
58.5754
57.3539
70.2144
50.3723
48.5538
1344.65
61.4805
71.2097
1056.73
1016.56
46.5625
79.3114
1645.86
175.197
91.5646
263.552
119.539
754.612
57.3753
50.1204
60.8186
155.12
113.996
112.946
47.7643
121.122
64.5307
81.6133
51.6497
82.684
56.9237
361.931
675.487
124.909
53.5765
87.5469
48.0461
111.486
48.4709
59.3192
63.8979
67.2124
48.6027
188.122
77.0727
47.9903
74.0782
193.311
866.158
202.483
90.3633
47.5081
75.5877
47.2818
862.411
70.6884
523.993
86.3691
101.762
62.5031
71.4116
61.8918
84.6379
58.0612
88.5445
53.2634
210.483
82.921
49.2485
68.821
91.116
1070.07
62.1403
206.087
65.2879
48.7174
47.0019
148.642
79.5396
68.8727
47.9464
65.3323
63.6412
75.4023
81.1621
79.7715
64.1908
123.485
193.559
71.9471
96.8538
66.2361
116.66
93.6669
48.5563
72.4457
58.0548
74.6423
80.613
47.5157
302.601
408.426
98.4486
67.9712
48.4438
93.4853
52.2721
141.27
50.3164
228.302
84.7743
47.4246
79.1568
49.4842
59.3031
70.8187
50.0279
90.5474
47.8846
48.1688
50.7982
168.041
46.1746
394.347
211.062
240.379
353.689
82.713
163.582
58.8692
51.5706
145.682
349.891
368.817
94.7619
58.8163
109.067
121.618
158.728
134.655
95.5224
52.8061
69.4776
92.9668
117.801
58.4005
85.9308
365.961
60.706
63.8225
153.578
121.991
116.11
124.523
678.87
466.348
229.298
254.653
80.6622
121.865
47.0857
48.6555
74.0633
397.108
188.501
73.5677
74.9845
47.2157
359.885
350.186
46.544
173.182
92.4143
46.8538
170.237
46.6414
46.6081
72.5849
73.8973
89.5514
50.4294
47.067
59.8612
70.9115
69.4099
144.805
100.757
46.4256
256.575
49.1518
46.9304
47.5234
203.654
81.2967
260.751
118.935
53.6887
47.8124
69.7231
1149.44
74.125
85.6687
78.4671
66.1772
62.7816
121.347
124.531
128.008
332.162
88.1274
730.354
49.4326
69.5956
53.835
63.7536
46.9789
170.929
131.17
46.9292
361.471
104.733
67.5397
256.446
73.057
53.6659
73.5261
67.5454
70.9686
109.521
368.919
67.3362
71.9387
211.345
226.034
660.775
221.382
91.8128
184.254
47.9039
49.3077
97.8141
151.34
88.8629
85.5862
95.9612
104.823
50.116
67.0217
109.602
102.129
92.383
225.667
697.978
94.0457
85.3437
119.863
621.966
240.123
217.887
95.2102
67.2587
96.7449
95.3791
123.262
47.4553
50.9734
96.8855
429.859
120.028
69.6836
97.8625
53.8425
111.028
130.831
78.6136
416.634
53.064
66.8219
131.359
97.3745
65.701
66.776
104.843
101.2
95.4075
63.5418
134.027
49.2719
48.0274
49.6999
88.0648
57.4483
150.494
53.9198
224.882
298.056
222.459
93.7143
83.7238
48.347
70.3398
116.437
472.969
225.839
909.996
47.5998
59.7208
55.8112
275.4
87.4076
310.087
241.323
235.798
113.346
249.935
89.972
84.3084
72.2714
50.0097
99.1665
69.417
73.7729
185.436
79.9845
60.8929
52.5516
265.848
429.778
151.65
183.139
634.566
193.578
94.9131
75.586
86.456
108.246
186.965
190.586
638.886
50.0327
57.7164
71.4491
48.4977
65.9579
103.057
97.5666
54.2326
110.365
53.2054
78.7284
51.9854
47.8723
126.543
64.144
124.491
49.1554
48.1764
164.395
48.5655
96.0041
105.012
48.2253
63.4417
121.102
72.4668
64.6243
79.4649
414.275
187.109
126.526
109.405
1841.71
975.193
588.677
413.129
107.338
52.5307
1039.35
409.555
55.4363
67.5607
109.674
88.3541
368.63
140.846
50.3454
116.29
58.6171
49.9263
206.711
898.395
141.153
1178.91
152.494
249.142
946.469
57.4373
80.3723
134.79
248.756
96.4629
51.5182
51.3923
840.477
59.921
338.15
68.8877
167.299
49.7445
55.1981
506.227
508.697
86.5362
57.951
71.0937
410.01
47.9618
49.099
405.679
534.007
73.8632
48.0272
1039.29
844.178
484.494
101.491
190.631
436.525
484.622
78.9484
100.902
97.9277
60.307
104.158
496.092
1322.8
63.497
62.0205
60.5742
51.3484
51.7074
81.4409
135.718
67.5298
49.5622
48.5241
72.6823
393.087
1074.45
51.1048
234.151
95.597
73.2824
173.874
54.8216
89.6355
69.9824
51.6696
202.346
52.5781
480.042
47.0534
783.596
544.754
414.003
206.124
83.8665
65.6722
106.666
52.2807
202.69
1384.78
107.258
373.222
192.31
435.929
146.904
797.016
598.237
95.0107
50.1093
1446.37
83.2294
49.7742
74.0337
516.968
1005.57
80.6635
52.9256
454.964
82.3101
796.845
733.6
110.686
125.924
900.292
106.154
50.2943
587.566
51.9468
719.581
1021.78
48.6266
66.1434
82.8808
56.0072
127.132
100.343
48.8779
125.323
90.7705
121.122
59.2246
47.5351
154.689
118.046
652.781
54.3333
98.2408
209.769
48.8186
789.274
86.5139
117.509
153.04
531.449
87.4869
630.156
183.631
140.539
57.1961
898
214.867
241.956
81.1446
156.547
61.5016
76.0555
66.9477
321.339
271.613
104.929
696.422
150.189
101.697
264.307
131.144
148.332
775.868
241.038
49.2303
157.857
84.1211
148.437
291.759
950.322
58.5503
49.4107
62.5068
609.419
63.6884
328.658
61.9581
63.3328
48.6031
135.754
59.229
210.212
294.542
54.6677
64.3242
94.8932
80.944
975.234
272.809
112.02
713.132
340.737
122.015
182.42
64.4717
59.5491
1024.72
58.9923
524.623
254.915
50.3655
61.0988
79.1486
96.1748
57.0222
72.1299
119.391
83.5197
77.7785
69.366
81.7488
201.82
67.6673
200.53
159.331
186.949
56.19
716.855
398.509
59.9841
521.447
306.814
56.2759
114.517
554.622
227.428
50.9896
169.165
312.296
176.089
408.985
57.5042
548.657
103.918
53.5795
68.5844
112.515
167.158
129.634
67.8618
251.312
49.0555
273.346
110.981
1171
147.224
76.0105
123.167
241.766
58.8121
206.234
99.9663
110.251
703.058
76.8398
73.0911
979.927
46.6944
94.9163
390.918
60.5734
269.109
859.896
155.146
79.0613
79.5313
950.557
264.138
381.546
261.873
79.1062
67.6727
104.543
590.588
882.095
241.577
90.794
48.735
87.8627
89.0598
131.574
331.574
95.5733
57.4895
60.7472
60.3089
49.5238
88.2605
48.8394
48.517
123.948
92.4474
47.7885
132.542
225.542
64.6776
49.2779
134.549
62.1383
48.5385
55.5797
105.194
98.5938
50.4534
97.7881
574.096
90.9668
52.0552
55.7909
46.9981
211.08
67.5983
54.2206
596.672
935.898
282.102
49.4433
633.885
155.316
49.1988
915.264
102.902
908.455
93.0552
68.3543
84.8967
69.5781
47.6773
84.7635
87.071
94.8991
116.141
89.6101
106.44
150.023
82.6757
77.0313
426.967
88.3056
1241.93
71.3919
647.286
48.3532
121.625
186.852
51.9408
69.6837
192.765
46.7428
394.042
312.4
1260.23
55.7531
627.48
55.9252
114.525
153.434
56.7916
539.787
68.5707
265.496
58.4494
694.312
682.922
80.701
46.5902
329.657
73.0566
329.108
83.8313
98.1569
72.3693
73.3236
57.907
50.4392
81.383
255.216
71.0708
180.315
87.5653
87.288
48.2434
157.004
661.71
91.2767
263.837
66.5619
67.9033
121.758
83.3796
74.526
57.0837
157.024
132.742
48.6332
86.1062
73.1428
70.7532
95.3018
345.944
358.137
82.04
94.1069
265.369
88.6451
53.1292
65.3486
49.9402
175.396
168.905
204.042
106.493
71.3207
72.4086
68.6058
54.0551
53.7141
61.2372
447.013
131.178
638.065
475.924
596.197
57.3434
66.9715
67.5876
72.0639
51.2632
296.097
75.9798
48.501
82.1202
110.713
72.3593
297.333
70.6889
158.822
104.329
102.264
52.2565
71.5706
91.3973
92.9876
67.9299
117.84
93.9599
165.216
85.3554
69.8149
77.9472
154.226
176.439
64.6052
84.9531
133.658
99.7558
171.805
47.8743
52.8458
135.584
67.7747
54.9748
78.5415
48.5383
47.7598
80.7348
78.1915
402.183
72.0147
87.2597
48.7083
70.5132
655.985
82.7764
87.1182
58.7866
63.7197
91.0275
87.8857
929.062
108.229
296.613
50.4271
59.7584
73.3734
47.1817
50.3889
109.659
84.911
50.1356
47.9555
293.663
107.07
476.859
123.687
233.806
106.362
74.3528
111.096
496.813
184.786
91.2774
80.2503
919.217
64.8616
82.5608
91.8234
86.668
48.1169
958.299
67.862
96.0947
48.537
128.339
58.9266
936.508
1021.34
68.3094
53.3357
47.4258
94.0777
98.2334
58.1654
1183.49
790.596
64.5663
142.23
414.327
63.8546
77.9142
111.957
47.0707
61.7027
49.1439
74.8648
200.476
88.8893
80.2353
48.9001
60.2616
76.6683
48.6913
281.004
63.6241
125.988
142.285
387.601
291.549
105.364
134.746
70.7805
133.178
124.055
48.2162
581.289
301.493
131.258
93.7997
106.305
94.2062
92.4901
330.631
47.1162
47.9875
62.6732
66.1466
133.071
81.9655
368.715
419.209
50.3874
131.416
48.0646
48.1963
80.2017
61.7882
68.0167
54.8894
46.7834
331.048
404.108
47.9533
47.2178
172.57
884.819
53.5879
46.1894
75.864
155.173
908.692
93.851
361.723
303.032
333.27
361.649
72.68
50.9568
46.6655
58.7001
939.468
54.6119
85.7614
82.6474
46.5532
627.583
1064.31
1037.67
207.388
293.806
50.6649
47.7369
55.1521
82.6607
664.417
593.699
361.965
553.372
376.416
61.2418
50.2279
828.283
48.3091
909.369
95.7241
904.434
81.5656
136.18
51.2056
156.497
169.306
170.338
56.2332
63.9071
90.676
79.3636
66.9831
72.2419
68.9639
1154.9
709.78
89.1159
324.203
589.962
302.845
69.7334
48.4925
524
518.187
465.904
48.4487
858.449
51.435
974.782
832.263
519.487
261.755
52.2843
60.226
48.2513
74.3434
87.0307
154.417
64.9882
83.7822
59.1753
96.5841
79.0083
47.0909
49.4358
111.241
49.0853
51.31
80.6126
62.1055
88.5883
91.4812
158.757
92.7763
51.3858
83.5855
109.134
86.5084
96.7118
130.881
1194.31
58.4817
318.46
66.8208
95.9346
332.587
74.6894
55.6439
47.8145
89.5095
97.2156
54.6872
100.956
104.054
84.8942
49.8119
66.9057
53.7588
71.3391
111.628
72.2259
101.834
299.015
91.4369
83.6038
77.3281
115.403
87.4194
310.149
48.742
68.6355
110.686
286.809
300.432
81.0869
108.228
933.173
243.614
189.569
92.2109
74.2855
114.706
89.4828
53.3089
138.467
79.8759
89.2056
344.103
52.8569
166.382
124.844
117.075
107.706
203.66
80.1082
59.859
47.3461
56.4475
99.1528
82.6316
577.705
64.0744
91.4515
128.998
105.004
882.876
59.6279
50.756
105.516
280.981
372.298
155.57
48.4164
136.183
68.7205
51.628
47.0568
527.429
103.756
62.3157
369.66
58.834
70.6183
159.691
735.46
948.225
91.6593
68.3294
909.28
48.3735
161.695
120.909
532.511
320.731
54.3097
97.5059
538.499
94.0412
63.8267
69.3566
102.496
55.9796
68.0089
365.998
49.8456
102.658
511.939
148.91
559.412
82.7229
417.028
54.7946
1099.76
106.441
106.254
562.79
214.883
264.042
425.309
410.264
289.737
47.3936
49.6774
384.747
58.2303
87.1105
361.622
63.2767
62.5028
72.1097
142.873
72.173
52.5367
724.613
380.724
148.006
376.208
168.406
90.6248
83.9396
78.7016
116.518
63.7492
56.1366
84.0397
62.7539
304
323.992
79.158
57.5163
59.4844
76.1678
112.158
108.113
99.7183
77.656
343.742
62.5419
65.7753
378.578
132.947
543.959
175.466
96.6509
682.321
139.806
115.345
331.429
135.438
129.116
51.9986
753.432
47.2333
56.1156
56.1668
88.1538
71.2748
104.234
197.66
106.975
140.686
83.5744
113.317
102.074
46.607
297.458
108.185
551.013
1255.22
102.737
367.462
108.824
70.6993
632.738
69.0056
60.6109
79.0588
102.426
643.968
313.979
56.2892
311.056
342.715
68.9096
1854.78
382.553
85.0564
338.959
65.1022
90.0393
237.272
359.144
148.583
732.776
59.0089
53.8577
155.639
56.7328
50.2621
107.291
306.839
516.293
47.5142
146.553
47.9641
146.765
61.3648
146.846
294.198
90.6598
264.442
60.8278
63.6975
766.638
47.6682
54.3259
120.255
54.745
129.989
308.886
50.8475
945.727
517.743
863.172
483.651
119.45
70.5073
51.7923
59.4091
85.056
48.8022
89.8165
151.227
64.0915
76.4415
629.45
47.9781
150.921
49.0961
132.369
66.9626
712.81
128.71
92.2381
48.1351
137.244
152.798
50.6739
59.4212
102.332
46.2142
207.546
95.2637
107.542
57.3839
49.3284
104.705
51.8019
130.542
284.332
49.8257
71.0228
50.8045
66.9721
432.629
229.236
135.765
412.624
794.789
369.797
77.7641
549.945
464.696
682.384
70.1505
187.996
377.123
301.388
271.375
943.934
59.1223
50.4913
187.026
755.355
55.2097
361.919
105.244
373.024
76.6681
74.5453
562.264
494.693
383.762
61.1024
306.651
131.656
506.178
48.5193
213.161
64.9095
54.359
99.2182
98.8181
305.115
116.245
65.5218
164.199
75.9477
239.845
340.978
49.7804
69.0024
59.1609
930.33
82.2866
132.794
162.57
140.799
66.4622
48.5322
94.0647
75.7318
392.024
47.2454
107.405
331.074
66.2875
53.4865
75.229
72.3483
596.153
139.825
198.042
92.8143
67.2704
1056.97
1130.13
59.5712
149.38
59.506
49.8614
393.058
77.9591
500.405
56.6681
51.2335
99.0968
59.3838
52.4806
61.1137
66.986
139.245
207.658
296.737
241.231
71.412
79.6433
48.7237
173.248
552.164
882.675
75.2554
567.123
188.259
622.872
84.3277
382.488
111.586
148.866
130.827
86.8258
273.031
72.4988
177.698
111.57
61.9629
1013.56
107.75
624.27
107.887
66.297
111.037
92.511
63.4311
67.7314
264.188
109.282
124.241
55.8895
123.321
563.653
131.701
80.0283
164.592
49.5371
60.8157
48.3869
78.5933
80.5707
150.988
74.1315
99.1939
86.3675
72.0965
80.8057
63.6606
75.6112
60.3838
226.998
54.7867
106.915
53.0293
70.6159
129.612
81.869
51.9684
82.0068
100.635
92.6447
130.981
332.559
49.0743
125.112
333.809
159.077
156.283
53.7113
157.003
86.9671
276.992
63.736
51.3584
54.3355
148.78
60.8546
66.0366
824.39
127.493
338.217
50.244
50.9703
174.943
82.2186
56.4704
125.776
49.1986
84.2751
58.421
366.124
47.6418
154.411
50.5377
51.114
77.8444
66.1219
133.87
106.511
46.9624
263.282
68.4639
73.4231
91.7135
759.723
64.5103
62.2844
131.241
61.2541
56.9417
128.293
56.1641
51.0253
107.684
192.082
127.339
87.3034
388.53
110.856
290.593
48.7908
182.478
67.5715
96.1643
131.916
53.0322
80.4846
63.5807
82.2889
163.394
67.4339
570.48
102.312
49.7532
482.976
131.597
1398.63
305.507
105.341
88.0952
99.5933
122.325
387.374
65.6107
450.786
91.6686
357.933
68.2544
356.721
69.1844
237.011
217.168
129.568
382.471
436.14
570.978
1257.82
541.257
740.733
309.777
390.355
352.604
47.8503
98.6742
310.486
71.2673
595.334
60.1968
448.207
599.308
125.919
103.351
78.5196
47.2051
115.625
49.6187
255.562
134.741
86.0568
180.175
88.3026
157.576
69.2962
54.9005
114.656
52.9134
222.893
48.4487
70.2902
690.864
64.4712
47.9986
96.7339
62.3905
553.603
233.064
71.0782
59.8336
173.356
49.6467
78.7476
52.8102
55.2686
106.036
79.7596
56.9078
62.8501
307.165
88.9212
60.7588
50.3963
47.9663
48.9
120.249
74.6922
100.112
53.8871
75.4001
98.3336
54.6534
248.562
76.4205
51.8795
62.2282
85.5731
143.926
112.61
100.448
51.8092
121.06
86.197
55.5003
57.122
79.9134
78.6549
98.6597
73.1202
130.43
67.6688
84.9276
117.265
269.35
698.783
1103.84
128.565
60.5868
388.906
173.056
125.102
49.9932
51.2838
48.2665
89.7897
76.274
47.8992
48.8599
52.0603
116.674
48.0423
49.6064
48.472
59.3203
167.419
58.4165
119.163
54.338
92.2084
263.149
58.8569
54.9278
63.1353
1018.22
998.825
100.031
67.7454
67.0708
60.4014
80.7529
510.165
67.6274
68.7354
92.4859
49.3296
95.0732
55.8398
78.1072
115.206
89.8022
65.523
207.229
240.705
67.7102
2012.48
197.875
203.832
61.9295
86.4376
103.026
117.87
51.5694
76.9658
317.241
48.3062
200.707
556.822
109.344
127.535
543.876
70.6999
80.538
94.7613
47.253
124.353
379.164
95.2102
88.1638
367.566
197.926
1154.38
593.092
97.5545
50.7993
142.233
68.262
181.164
144.716
531.66
49.8542
48.2813
598.264
52.7005
201.65
74.4141
106.931
624.456
825.736
50.4685
47.6759
874.546
50.1862
53.4486
64.7881
48.3718
84.7327
113.193
246.35
58.0065
549.079
108.909
51.3588
86.4418
686.654
83.6646
611.849
66.0711
59.2529
88.6791
88.2224
62.2988
96.4358
63.8333
555.267
108.402
111.302
462.223
125.468
54.0139
569.912
103.933
111.095
80.0994
109.158
111.799
75.7515
50.2997
257.05
72.6243
74.0473
64.256
113.767
74.0843
60.5797
50.2721
63.1074
155.351
68.5193
62.7761
84.2786
412.984
73.9246
68.6455
65.6657
97.3582
50.0048
65.949
59.42
134.942
90.4361
143.768
151.598
89.4141
388.229
61.2461
58.418
399.744
332.256
540.857
91.0612
387.535
57.6059
418.657
96.333
341.178
97.2178
48.1408
117.29
209.024
95.9541
65.3007
49.587
59.5468
445.427
60.155
51.2865
56.9947
1927.23
375.972
49.238
1515.93
464.574
327.345
180.9
1452.6
319.377
69.954
354.071
92.8135
53.6712
409.644
940.927
67.1422
50.122
54.2207
524.601
50.2767
926.123
59.7146
131.363
94.7254
129.387
334.121
48.7179
117.753
124.025
55.8808
106.97
51.7704
126.449
1908.13
1959.56
767.703
95.5317
468.448
48.4426
49.7546
59.9292
101.803
47.859
57.1188
47.9522
73.8186
91.3873
48.7627
53.6234
77.7493
49.1998
97.5291
123.383
49.4003
118.048
134.437
48.5319
58.2676
873.773
56.7951
821.568
609.3
131.955
136.415
83.0129
125.381
65.081
56.5517
379.035
57.6188
62.2995
53.1216
55.7734
78.3276
141.527
107.646
183.413
112.899
51.3916
526.428
64.6102
288.74
266.826
63.9516
853.097
74.8631
59.8915
61.1049
58.4135
70.9739
52.3013
126.592
54.4969
392.663
206.272
369.445
56.1835
57.9198
82.9193
350.735
338.341
83.8139
148.474
65.3489
378.936
64.9401
93.258
477.564
87.7426
55.2558
92.9612
1097.67
59.122
59.7608
122.485
50.9743
138.799
134.384
64.7201
84.8029
256.401
173.191
758.515
73.2765
376.458
323.313
323.62
55.3604
181.341
104.923
105.315
53.7608
57.3648
59.9636
472.955
84.45
99.0275
163.935
80.7287
61.3697
98.0098
50.6008
147.329
48.4123
63.9703
169.778
104.909
79.1248
171.199
101.549
86.596
80.8568
129.38
47.9123
261.582
337.309
111.249
83.2164
48.216
237.648
59.2781
49.0247
87.3671
49.9826
110.058
91.3272
49.1447
52.0156
102.649
234.741
213.139
49.6453
769.569
47.3619
98.1742
94.3877
48.3138
753.872
151.254
661.01
50.4712
69.609
520.049
662.431
92.3243
102.778
197.403
128.183
55.5453
83.9628
62.4235
149.123
83.1573
136.411
49.8469
137.186
103.078
112.924
58.5667
90.5149
47.324
62.5957
563.883
243.288
102.467
58.7698
107.298
88.4253
89.1299
148.173
48.5129
52.3051
62.4909
89.478
86.0271
65.8483
115.636
58.1272
56.2945
54.6271
71.7256
59.29
63.4888
172.269
77.979
69.3104
1326.88
80.4582
65.0896
81.3686
47.4393
85.9617
210.924
50.5064
81.0367
81.4942
984.941
64.6642
61.6724
95.5989
1494.84
96.1717
155.003
125.936
68.9129
48.3381
74.0322
66.6914
815.546
97.8014
68.6447
66.3677
50.1659
260.247
50.7524
617.947
272.538
112.219
76.6154
59.7467
110.74
90.5446
60.2272
430.067
121.037
318.743
48.2583
140.468
666.755
119.389
52.0615
103.645
53.5975
726.934
61.6332
57.418
91.4885
46.8533
59.6651
87.0752
51.6171
236.215
49.8076
356.626
47.732
79.0573
66.02
150.825
90.2801
131.116
109.044
561.088
103.348
124.637
76.24
48.8753
102.656
59.0493
54.4838
80.8645
76.7181
63.4024
127.773
47.7957
63.5299
49.429
278.341
86.7431
537.716
526.18
307.971
162.776
65.6544
69.8349
60.57
195.378
92.9389
49.2943
49.6666
113.748
129.212
50.0266
75.2565
1066.9
106.201
67.5855
73.1999
709.159
846.767
60.5487
530.794
554.657
210.025
296.316
170.676
479.897
72.7374
229.038
739.535
74.2481
46.8768
59.0216
99.2379
319.204
49.0522
48.589
68.8661
150.91
156.612
1115.01
112.44
958.374
119.83
69.1402
87.8195
78.0359
67.7418
580.755
107.256
304.327
479.122
66.4265
621.744
2037.93
64.1861
131.436
104.653
428.316
154.304
121.737
709.94
1028.58
98.5484
576.318
128.71
382.132
82.6742
49.238
154.5
713.893
641.517
61.7755
109.252
151.945
96.4223
237.442
53.6363
67.3801
903.055
332.269
409.489
47.5198
406.146
66.5686
380.537
61.899
107.079
196.518
328.465
87.3442
109.146
324.928
100.616
684.523
76.1106
63.2181
353.748
50.2592
151.843
48.2999
54.137
48.0838
83.7954
412.174
457.796
336.181
61.6148
65.9821
270.894
61.0879
427.865
68.3702
55.1131
83.2683
192.179
153.884
586.087
51.2153
76.0137
67.5687
303.636
105.423
565.89
871.42
434.17
104.864
64.7572
380.374
385.599
157.817
52.2596
64.6097
47.1192
732.18
241.791
372.841
1977.91
237.898
97.614
82.9708
752.011
398.424
66.5049
90.2838
103.244
386.39
58.0537
49.9935
90.5771
75.9625
645.301
332.229
233.808
180.605
269.4
367.747
167.037
96.1463
816.135
477.009
690.143
208.925
335.622
599.93
157.212
61.1034
104.478
58.5268
55.3649
73.2106
73.2755
146.864
271.619
86.5445
179.365
182.415
147.255
80.4499
185.48
104.496
81.6659
129.732
693.429
1087.74
494.479
68.6788
120.778
79.4448
253.583
549.797
155.973
454.636
77.5686
411.707
319.855
185.489
49.3078
49.0731
71.458
64.1571
617.751
89.62
57.8928
480.526
72.9217
775.164
415.671
99.0634
425.857
60.8356
47.2434
49.8791
47.4651
100.801
68.7275
94.1537
134.999
75.1025
48.733
161.129
588.513
508.226
47.8788
106.779
53.9619
66.0505
54.404
585.437
53.7725
53.4873
54.6466
101.608
49.2804
53.9577
93.8374
54.8216
57.8533
57.0723
231.591
48.0826
62.7865
120.887
412.297
403.82
65.1214
649.529
591.512
57.5087
56.6131
163.04
74.1297
282.46
84.5761
93.8016
81.9818
259.511
71.5488
92.9603
1007.41
414.816
100.856
604.758
50.6699
48.7161
65.3729
48.3966
47.6992
73.0019
56.4701
77.245
192.678
81.2623
411.119
163.414
277.853
81.8311
46.6353
636.871
132.125
86.2346
561.451
104.593
644.581
71.6127
445.977
48.0833
174.851
87.5354
247.292
49.2952
88.1179
79.8057
678.986
49.135
46.7458
95.6914
80.9971
124.873
58.9355
65.5403
91.6839
51.0576
130.693
51.9526
64.4544
148.265
89.7619
194.544
67.501
48.9006
60.9812
47.4786
54.9202
198.53
46.6023
89.287
46.9405
232.76
120.356
54.7029
116.142
112.254
60.0445
82.3912
69.8752
131.451
159.261
54.2826
49.1932
89.5818
74.2775
397.516
553.936
485.548
63.4477
50.252
57.4412
63.082
89.8828
834.593
236.164
64.5958
54.8737
72.8245
49.6519
50.1879
75.9224
143.314
180.86
462.463
256.146
57.3221
77.4152
82.0053
46.6113
252.176
73.8411
99.6871
115.288
54.6945
961.121
77.2064
57.005
69.2713
68.6159
161.762
450.717
47.6584
409.454
58.0246
748.267
113.435
499.86
72.3394
50.0239
59.0251
104.996
53.7218
48.7498
126.481
47.1886
48.7146
52.9908
61.428
213.205
61.2169
743.813
76.14
60.721
142.101
171.534
48.549
469.188
933.589
734.221
545.29
442.948
53.5313
405.565
347.906
81.1912
58.8773
55.1992
678.224
92.6196
98.6013
49.3619
74.0414
273.162
713.524
155.611
83.547
46.6403
66.4964
243.12
50.517
56.9024
552.416
483.664
270.55
728.861
76.9592
47.9599
71.5902
82.1899
1116.25
50.7243
48.3703
47.3499
300.467
48.0795
54.9817
96.629
100.55
47.4986
111.161
49.3959
149.329
80.525
140.153
57.4283
213.395
92.3409
114.613
181.824
113.157
225.865
54.3176
619.429
93.1646
339.123
330.766
398.702
84.1878
107.028
193.215
72.7099
47.219
52.0134
52.7702
88.707
565.608
119.403
48.4083
84.6941
62.8785
49.5765
119.855
60.1201
136.625
99.5498
50.3646
102.269
53.8486
76.2409
283.784
530.1
69.0111
101.293
81.1069
105.721
532.713
254.323
546.571
847.402
143.625
50.4343
51.759
47.9459
107.176
831.834
81.4254
793.58
134.876
49.1423
119.739
380.398
49.868
49.67
56.8712
76.8875
57.3164
246.461
72.9471
91.9931
263.091
49.3322
99.7199
61.0454
130.39
80.8562
55.8767
636.792
81.168
116.918
58.8573
94.4978
48.4391
114.103
123.264
94.2052
94.9394
76.3655
64.4249
68.5384
54.9527
232.207
58.1644
54.8456
118.328
225.109
236.149
71.7209
95.3786
115.71
171.798
71.0935
329.738
76.3492
141.17
104.676
68.4807
162.635
85.1619
79.3594
317.824
102.061
52.9951
49.751
322.835
91.3967
105.013
54.1262
115.195
88.065
49.0246
96.4159
385.373
89.2568
72.6143
89.7261
640.814
73.1762
92.1389
148.463
61.4392
159.535
52.7887
717.972
83.9867
80.6645
86.5303
57.0452
118.519
56.8199
475.13
46.7431
77.8523
620.614
58.3746
115.082
207.027
103.257
51.435
534.122
57.0254
47.8992
94.7485
135.574
56.032
301.437
47.3742
374.529
100.024
47.8535
77.4001
119.71
707.508
183.926
71.86
49.8586
131.263
378.917
413.858
118.915
125.861
990.4
209.298
309.885
131.376
85.9379
105.225
59.9626
526.378
999.175
153.226
176.372
100.421
923.267
487.808
445.856
412.816
170.708
64.8656
55.2035
152.835
73.781
544.062
329.602
82.098
759.272
109.933
61.435
67.9495
51.8537
108.68
89.1814
92.4439
79.366
142.898
184.494
863.588
57.4554
119.27
637.966
600.304
182.295
180.94
66.8145
677.472
47.698
65.7521
365.034
148.463
48.2376
316.153
413.756
69.2604
125.916
51.1791
99.8465
57.024
80.969
175.728
87.0129
589.45
47.2574
55.5093
90.739
472.966
169.719
124.414
169.791
241.558
123.049
77.8172
391.829
110.048
73.0893
242.003
772.174
278.291
58.6925
365.039
160.443
89.7547
66.8891
127.666
49.3283
103.782
82.1536
77.8696
71.4857
60.6258
88.5358
48.528
47.0262
49.4775
100.715
51.786
160.808
417.157
709.722
97.9437
80.7931
59.4721
54.044
105.755
646.182
54.4021
146.907
74.5301
206.204
61.4865
106.523
122.166
385.358
49.3711
56.3286
248.524
53.3781
72.8913
106.476
67.471
359.653
82.3894
336.406
394.367
244.412
620.717
184.383
385.176
85.5494
127.007
145.853
56.4028
405.733
114.752
88.3
156.381
88.7949
82.2619
47.5571
58.119
52.2482
47.0722
87.0803
308.849
47.4237
880.842
114.521
321.695
118.084
338.62
1810.91
57.0868
263.761
1128.48
116.021
338.416
79.4819
70.8097
758.974
982.062
267.075
163.316
57.7948
334.519
104.003
556.717
54.1939
58.1078
223.578
996.662
62.7111
79.7137
55.3219
212.262
435.632
52.2776
475.785
244.73
534.797
690.232
54.2928
315.731
68.337
618.968
391.272
223.264
361.635
216.529
434.192
292.592
239.241
78.0753
73.4258
72.317
54.0187
56.5658
1261.33
70.0965
102.686
70.9846
77.7327
112.837
952.372
124.903
254.404
307.591
129.831
328.033
130.68
46.523
72.1365
908.976
544.008
232.289
190.996
226.061
82.5051
445.558
57.4818
236.895
250.34
58.57
482.123
111.781
275.61
348.771
127.722
168.271
174.62
122.177
53.1126
143.831
66.1527
502.867
70.3092
186.041
79.3885
243.039
61.7451
69.4388
358.876
126.759
292.409
48.729
992.862
48.0968
60.9261
53.9584
59.0302
86.3849
484.25
139.473
63.4999
621.001
77.6834
51.0761
62.733
833.293
49.7397
91.2154
837.005
201.256
860.49
400.976
134.916
163.419
176.296
194.425
718.904
69.2818
346.177
116.585
65.4453
182.594
67.503
125.424
68.2869
634.822
415.064
511.501
330.526
216.303
278.199
52.3