/*--------------------------------*- C++ -*----------------------------------*\
| =========                 |                                                 |
| \\      /  F ield         | OpenFOAM: The Open Source CFD Toolbox           |
|  \\    /   O peration     | Version:  2506                                  |
|   \\  /    A nd           | Website:  www.openfoam.com                      |
|    \\/     M anipulation  |                                                 |
\*---------------------------------------------------------------------------*/
FoamFile
{
    version     2.0;
    format      ascii;
    arch        "LSB;label=32;scalar=64";
    class       volScalarField;
    location    "0.0292463";
    object      p;
}
// * * * * * * * * * * * * * * * * * * * * * * * * * * * * * * * * * * * * * //

dimensions      [0 2 -2 0 0 0 0];

internalField   nonuniform List<scalar> 
47425
(
1.26944
1.2046
0.095797
-1.36077
-15.5104
0.141942
-13.64
0.0609312
14.0911
-31.2046
-0.0520186
14.8569
-9.69482
-0.011465
-0.583687
13.4129
0.0450463
27.4041
-97.7737
-27.2052
5.87041
16.7948
-0.0963284
0.813597
15.6663
0.885434
0.016852
-34.7557
-0.00978685
0.160966
16.6024
13.7679
14.5686
0.146999
0.13067
-0.0367922
17.827
14.4604
7.34587
1.10638
1.42703
1.02829
3.42707
14.4181
-37.0941
1.04447
0.0979383
14.2327
1.06725
0.347581
49.0519
1.61337
-0.0249459
-26.1078
1.1456
9.5811
1.22406
0.213527
-13.8773
0.0881588
-28.1842
-28.9263
-67.4956
21.6462
13.8431
3.96348
14.5089
-0.279637
-45.0493
23.9536
4.00101
0.646088
2.28569
7.10286
-53.7603
13.673
-67.9719
0.116128
-109.78
-16.7922
-57.5538
10.6741
22.7517
13.4962
1.45064
1.46581
1.82239
0.807176
-1.15149
-22.4179
16.1675
3.15511
0.312955
1.36969
1.39394
1.09886
0.2981
1.24019
1.50457
12.7527
12.9445
25.5069
10.4913
47.3597
10.2108
1.6275
1.2272
1.2565
1.38084
14.8496
-47.085
14.1114
1.35888
1.46378
0.648063
36.5377
0.922253
51.2099
9.15895
-1.12126
1.49913
14.6497
14.1006
-5.0821
12.3502
0.938252
1.28839
13.7483
0.785727
0.450339
22.4552
1.14474
57.8932
8.51229
1.13958
-6.17665
2.56258
0.895899
12.2198
0.508006
14.5737
-7.47896
7.00552
1.18652
12.2319
13.7906
-13.3097
13.9246
7.23617
14.6806
1.5648
43.2306
13.9828
0.143148
22.4817
0.902685
5.78561
-108.924
1.22328
0.299091
-0.25725
0.861313
0.546675
12.1211
-41.9309
-76.7634
13.8908
-53.3494
0.58791
-37.89
-54.8604
0.842552
13.5931
19.725
0.998125
13.9815
34.4794
0.00788306
0.0400323
0.321206
28.8021
0.987577
0.0796054
0.114302
0.10528
13.2373
11.4357
52.3989
0.448635
1.13585
14.5354
0.44957
-9.46338
14.7203
0.459635
-0.0917177
14.6885
0.823261
-0.631388
1.27068
0.0527621
1.8738
1.4861
0.326098
10.3925
2.75993
-0.0114506
0.658791
13.4096
13.6521
1.05604
0.103944
13.5936
1.01142
2.06138
-1.51006
2.62537
-13.9534
22.4257
14.8248
-18.9689
-1.48068
3.71045
2.5573
3.37445
-16.9427
0.179566
-1.03653
-1.99315
-6.58773
3.52681
0.297478
1.66778
14.5808
0.0142221
13.3821
-21.4909
0.735623
-19.2052
-0.130961
0.171686
0.320081
0.290312
-5.94411
8.99787
13.7224
1.23006
13.6295
0.526081
0.012257
1.00192
-14.9262
-0.00940243
14.7604
-0.0106644
0.322828
16.3558
0.0945927
7.65876
13.5486
0.295312
14.3683
10.7583
10.6648
-6.38429
1.23539
0.198162
-6.23215
0.305413
10.9876
11.3838
-18.99
-21.1918
11.3667
-16.7083
11.1764
-17.5485
32.2875
-19.4615
36.3905
-27.5257
1.34256
-32.3397
1.09175
0.529418
-0.93428
0.665981
0.136128
1.42314
0.711283
58.8939
20.8763
13.7924
0.0508259
0.125914
9.89965
-5.22468
11.0817
14.2555
-6.64801
1.27235
0.762236
0.221291
0.0490663
-66.7289
-77.4951
39.921
0.296919
0.913068
12.5009
13.2904
51.6468
-0.214087
0.0806484
-9.91586
1.47409
0.203881
0.684075
0.116312
-38.2151
-9.93298
13.0963
12.6834
-0.141427
1.05251
0.012548
12.627
1.15897
0.563849
0.225209
-2.95928
-67.2549
9.00469
0.114546
14.6156
-0.148288
-66.2679
14.2736
0.579302
0.625632
13.1902
12.9973
1.07663
14.9405
0.502515
0.152398
0.249588
17.7858
-0.0146133
0.219973
13.6426
8.52097
13.8402
14.3365
13.699
-2.15245
0.231068
21.5071
14.005
13.9352
16.9956
-1.99434
0.614117
0.160221
9.28738
1.46766
0.187482
13.9728
14.4645
11.1046
0.365068
-34.2862
1.94421
12.0099
13.8212
12.0209
0.235422
13.4957
13.6227
17.3264
13.435
11.8744
0.794087
14.337
1.12756
14.2086
-0.00423826
11.5361
14.5376
0.141215
7.77369
8.99544
-0.0677584
7.75323
0.73469
8.36982
14.3368
0.0463941
-11.9686
0.174344
-23.2316
0.301055
-31.8078
0.189632
4.0017
0.260049
0.218087
0.0344741
0.103312
0.0882122
9.13589
-79.5035
60.7142
0.756176
8.71322
7.1243
5.751
0.634697
0.160996
0.387544
0.1954
0.575614
1.57902
5.43965
0.0266409
-0.00895541
-3.14724
-1.51713
0.567293
20.9553
-74.6927
1.45924
30.7136
-72.3004
1.39665
-77.2472
-26.7952
0.727583
2.91248
3.90007
0.492102
-80.0529
0.974484
0.833773
0.328605
0.129591
2.15303
0.948001
1.05978
-17.8588
-75.7601
-18.4784
14.4617
23.5495
-0.0338097
1.0546
2.25818
-7.7111
2.61227
14.4861
14.7041
14.7552
7.93046
14.6437
0.535582
12.0385
0.235891
0.810634
0.470728
0.550856
14.4252
14.6035
13.5701
9.24924
12.854
0.997922
1.61664
-17.5802
13.1907
-9.50318
14.5938
0.290266
0.209124
14.7764
0.880489
13.0294
14.0877
13.4877
11.5417
0.527098
1.18225
13.5496
1.49578
11.4735
26.6886
0.619553
15.172
13.4552
17.098
1.17022
0.314896
0.823962
0.163259
2.63327
0.0436998
0.120226
0.740289
0.984498
0.82462
0.102047
-0.00602409
26.3075
-0.0315601
1.36756
1.14994
0.918015
0.223001
-0.0190769
12.8698
10.1592
13.6937
13.7054
49.2145
-0.100935
0.0801816
14.0669
14.3174
-18.3759
-22.0277
0.0306124
0.988987
1.22743
-5.22463
13.268
-23.3545
14.6349
-47.2124
29.6525
19.1296
0.152186
-17.806
0.170264
1.0965
-0.0758496
1.27334
0.074108
0.782085
-68.6086
0.2458
-0.0180768
0.205429
-17.8323
0.59676
0.128613
-17.5888
-13.5069
-0.0687394
0.205735
-37.7633
0.561606
1.02996
0.0378156
0.405908
0.311064
-9.54388
-6.34811
20.363
1.19471
1.21973
0.172637
-24.8134
21.0049
1.2608
-38.254
-0.0556524
0.181224
-40.2518
-33.7174
15.4098
-37.6683
-37.7542
0.199663
14.4527
0.145877
18.531
13.697
0.0396378
-42.5204
13.1034
0.14643
0.568441
-15.6818
-9.00062
14.6336
8.60189
-57.5425
-20.8392
4.09784
0.0686025
1.22568
7.72521
0.158795
0.690128
13.6765
9.79915
14.6676
0.231719
13.6219
-20.3973
8.18201
5.89327
-22.4068
11.8096
0.372936
7.43697
11.9213
0.284059
13.9891
0.300866
32.346
13.5306
1.12554
1.23945
-100.968
8.59327
-5.87289
-35.1762
-37.2522
0.187582
1.42642
-37.7441
-0.201422
8.64321
-9.18775
14.1123
-33.7551
0.405938
0.247325
13.7055
-25.6456
14.7122
14.7661
0.513135
0.0751064
0.798115
0.020178
0.754284
1.1003
0.417222
-25.3481
-40.8469
3.32759
13.4161
0.228766
19.3303
13.0745
14.6395
14.6699
14.6997
14.7431
22.658
1.92512
14.6763
10.7601
-9.87394
0.294968
-80.7521
-20.4636
-0.0579653
20.2578
6.81013
0.0955812
-86.3091
0.0477886
-53.5395
0.585469
-7.06781
-8.64909
0.649432
15.1274
10.5415
30.0385
0.310201
0.474482
1.37061
-9.6694
14.6377
-11.1771
1.68249
-87.7044
-7.20752
1.56898
-9.3033
14.5635
1.05158
7.12341
1.4078
-10.4531
14.559
13.4673
-9.9041
0.268516
1.50157
0.185074
0.539782
34.6802
33.7473
16.3759
21.6729
0.187856
0.0433171
6.08726
1.40507
0.696994
0.256994
1.13136
0.293484
0.960708
37.4592
-4.84286
0.226403
13.4732
0.80309
0.755141
0.997357
0.119075
-0.638251
-18.0801
1.04422
0.240142
-0.10788
0.681735
16.6849
-0.132659
1.55226
0.696325
0.67954
0.824509
21.464
41.732
0.86169
-39.1376
-2.98107
-24.7136
-37.8749
1.34129
1.75492
10.2111
-0.0344241
47.872
-39.9873
60.42
-5.46978
2.71884
-10.4642
0.477666
60.4988
7.12452
1.94501
0.985191
0.46597
-5.40501
1.4217
1.19619
0.749928
-43.4212
30.2963
13.8719
14.252
49.702
45.9606
-7.02138
-55.3952
-11.0577
52.1394
49.4959
14.0987
0.442591
19.6266
0.494696
7.99236
-37.7636
6.46064
7.2832
8.62239
0.30712
-40.3689
-40.8529
0.211859
7.41978
0.616069
0.375771
8.59448
0.259312
18.0881
0.0191954
0.380837
36.7117
0.203182
-0.341836
-0.0195266
0.480034
0.164692
56.0571
-16.0026
0.107526
9.58536
0.619393
17.4255
17.5977
-9.30103
0.375561
-48.7915
-10.2947
7.74456
4.37755
29.32
-59.5086
0.21592
0.120171
-11.3837
1.1108
14.2651
3.03694
-0.0567553
14.8071
-57.6955
-15.1579
-57.8471
14.759
31.1079
0.442758
-7.83777
18.9237
-9.85012
0.064022
20.6358
-59.0843
-14.257
-10.702
-45.1618
-9.6426
1.38957
0.194789
-9.1177
0.168447
-10.9782
-41.1681
-0.013985
-13.1017
1.03419
0.786229
-35.603
1.0647
1.47046
13.9305
17.4373
13.9434
-17.8293
-1.44963
1.00723
-11.7531
50.4068
1.45958
17.223
1.06746
0.951261
1.19643
1.44094
-19.0681
-85.6941
-7.39599
2.31119
-12.6872
-13.6847
-14.2663
-1.56537
1.02966
14.3973
14.5432
1.27682
-2.85607
17.971
24.4734
14.4882
-39.8454
-10.5627
1.69116
0.759514
0.375717
1.01692
36.1855
14.0615
-7.92149
0.20909
9.50353
14.1851
14.1339
13.8916
13.614
14.4795
-21.9152
-6.22605
23.6332
25.4873
18.3775
9.09257
-0.633756
40.0332
1.44491
-4.82961
1.53587
-9.64664
-19.6219
-0.630689
0.988416
14.5502
17.4717
14.2355
1.24234
-50.9076
-21.9777
-36.835
11.5259
-6.07709
9.29182
-44.747
1.33103
-52.1635
1.43316
1.64033
-3.22666
4.88641
1.12672
13.3432
0.0631348
4.78782
-4.99193
0.790404
3.5922
-20.2774
-11.6358
0.755025
18.4668
55.5661
-71.4043
41.4683
-18.7478
-47.3789
0.273226
0.697016
22.9089
0.590743
54.6497
0.421281
0.0116632
-75.1069
14.986
3.31538
0.30614
14.3745
27.171
12.8508
0.424384
13.4552
-11.735
11.2596
15.1777
15.2296
14.6281
0.566558
-7.35075
-6.55871
31.4844
14.9642
0.900254
12.1812
0.571833
0.556786
8.61843
-6.9067
-13.7412
-5.82481
-4.64595
14.6241
-31.6792
0.756704
0.356698
0.497216
-82.1517
-65.3481
-15.9441
-36.2459
1.37829
-1.42403
-33.1482
-38.6261
-2.66436
9.78545
0.649348
1.44255
-26.6892
6.14893
0.347296
0.902035
13.6642
2.6325
38.1915
-94.7321
-9.50652
-24.6064
0.929165
58.126
-81.333
1.17066
12.5564
3.88872
-33.6117
12.6789
-2.6454
18.5843
-21.1971
2.4211
-21.3237
3.81956
-5.40807
1.48104
9.10619
-18.2715
-17.9939
11.8238
19.2736
-6.75545
-44.9534
10.8602
1.21628
-16.95
-29.5347
13.1982
9.84325
-52.5769
-71.2778
-33.9185
11.6573
-2.05361
-11.2392
-36.0234
11.4827
23.9846
-19.1242
-4.95869
-3.17238
-16.1437
-34.6758
-0.110015
13.6399
13.8722
16.1704
13.7586
11.4378
-10.6914
14.5412
14.6368
15.2735
1.40694
-58.89
-30.8801
13.4953
40.781
-13.1674
13.2956
-33.4684
7.36917
11.5706
-5.10252
-2.33422
12.3694
10.509
-39.3392
15.1091
-25.2887
-78.7078
-34.0437
11.7544
-5.06237
13.5411
1.14247
1.2976
-10.8939
-34.489
0.815042
-54.0068
-28.3243
63.2425
-17.468
-65.92
-23.0268
0.0285685
1.28548
-37.915
0.984968
18.4257
0.00492754
-46.56
-34.0457
-0.0668903
3.46029
-29.5385
-18.5269
-39.5809
50.7803
0.672658
-11.5642
-75.0459
0.227754
23.9658
-22.0201
17.6957
-89.2631
-21.6226
12.6688
0.140431
0.3277
2.05458
0.578431
2.92415
1.59262
0.70576
9.28843
39.8898
14.5531
27.1277
-25.158
-1.551
23.8689
-0.677363
1.83533
-6.58735
15.3379
-58.7308
0.86836
1.22025
0.784886
-29.0708
1.12893
-83.4769
0.618979
13.8829
5.48413
-88.6506
55.4184
-42.4116
-15.587
40.6625
1.8328
14.0815
-5.63719
-21.4956
-48.6433
-20.3499
51.204
13.9663
-10.2399
-49.3234
-5.80778
-0.430253
-32.6404
-22.6177
1.47024
-8.97025
13.7777
14.1276
-47.8619
-50.3195
0.371756
10.1798
13.8696
-82.3527
13.9792
-23.1301
-10.6824
13.7472
14.3575
-15.5811
1.95914
54.429
-12.7295
6.93363
34.3435
32.2954
11.6163
-75.6362
-28.3692
-9.42469
-102.082
66.3636
14.437
-35.1369
14.3753
26.5754
-94.0412
4.75598
-88.0413
-38.3147
-0.765673
23.9459
-3.11411
14.3275
14.1344
19.3042
-18.1336
-1.08278
0.0232106
29.5788
0.333202
-1.57702
19.1163
-7.2586
1.11898
-10.8536
17.1599
-49.2181
-24.6849
5.05371
-24.9463
-57.0315
0.0792091
50.3117
-43.0886
-1.49279
31.9487
-6.07107
-8.23521
-17.8218
-22.5563
9.10782
-35.6648
-14.1582
7.47873
3.64426
0.43936
-18.0221
-4.8107
28.4492
-33.9115
1.29479
22.7175
0.512705
-46.1625
0.127612
0.472025
-5.62907
-17.3326
25.4924
1.12559
-7.57336
-6.25442
-89.7471
0.0635638
-7.55555
-49.1372
0.886972
-4.4395
61.4239
-2.55415
-13.0799
-60.6761
0.253137
7.28174
0.0816955
-115.146
-49.8874
-28.8289
-48.3405
25.0367
-0.218965
-6.91608
-41.2002
-62.9892
-5.82198
0.455806
14.0966
0.733818
0.563285
4.15019
56.3087
15.1762
13.9172
-3.66697
0.459832
16.0772
14.9541
25.0314
14.4785
0.578982
20.5639
15.0731
12.1998
-8.40986
1.29765
13.3601
11.6
-5.7751
13.7082
0.486933
0.780465
12.379
15.5671
14.3558
-77.7452
13.6846
21.6419
1.07724
0.0581255
-24.4137
15.5785
14.8807
-71.3569
-53.1411
60.4291
17.252
-75.8772
19.4788
1.37918
-67.9352
4.9996
-72.2353
0.605794
0.561463
14.3427
24.086
12.3345
1.61265
1.37079
1.79779
10.1326
10.3663
1.1949
-11.5492
0.86003
-8.19231
62.2246
13.7041
-41.2826
-12.8796
-59.8353
0.924861
12.9334
-0.281332
15.3543
1.17912
13.8222
0.958453
-30.5878
-18.7877
-34.7173
-0.738124
-4.55431
0.960442
4.11817
-23.2838
1.37477
-42.4027
0.634106
-37.3872
1.29895
-48.304
-75.4401
1.60588
-0.0108792
-50.3461
0.387397
-51.044
13.2897
2.6246
0.857983
1.33215
1.91308
0.831926
-7.06402
-18.94
-3.74383
13.3342
1.02609
13.2457
0.687815
13.1564
-38.3646
11.41
-26.5008
2.2529
0.803483
11.3205
0.430346
11.2201
11.1574
0.565361
1.03796
14.3474
1.02841
-1.06079
1.6201
1.27296
-17.7962
-37.6292
-5.72557
1.18042
-46.1111
0.820882
0.482656
0.410649
0.387362
0.162799
1.56351
13.6413
13.2589
0.818837
0.454278
44.8757
1.23379
0.850072
1.43991
-37.5119
1.78627
-44.8047
-30.0949
-39.1587
12.9859
0.257709
1.77689
0.106963
0.864323
-35.2924
-5.71555
0.858651
0.877976
1.81565
1.96676
-43.3101
1.96157
0.035798
-11.0213
0.425646
0.346165
0.255235
0.244572
0.139169
0.235751
0.46012
-5.92216
-9.94643
-0.0163119
13.2828
0.364108
-4.35367
-3.2603
0.565404
1.14542
-5.99908
1.35885
0.273139
1.15915
0.868209
-5.30537
0.00382081
0.982964
0.4897
0.545383
1.34591
-2.8653
0.0264923
-51.1968
0.51726
-13.0874
1.50232
-0.126431
-53.1542
0.0291715
1.45208
0.129165
0.507698
0.698013
1.12771
55.3605
1.70303
-14.2138
1.01229
0.294056
1.67554
0.816979
0.420012
1.15798
0.481484
0.611497
0.327436
-3.53619
-9.01958
-31.1057
12.2283
-8.00484
0.803099
1.05368
1.07321
-18.0552
-0.0434995
0.102566
0.11465
-47.3336
0.133836
1.55636
0.0150854
0.111425
1.4989
-129.62
0.1234
0.856111
13.4539
0.0257024
-5.99145
25.4827
29.6295
0.014859
8.74148
0.198732
1.12959
0.320436
0.369405
-45.8921
-52.8426
0.120579
0.684819
-36.9959
0.0186697
2.16895
-17.7532
0.0106278
0.833375
6.15235
-0.282585
-2.86304
-0.0569852
1.56618
20.8105
0.157818
-0.147194
13.5995
-17.9804
13.6506
-19.7261
-22.6082
-38.6298
-18.7111
0.505807
13.5572
-11.2337
13.7227
1.5262
17.6754
-27.0954
-20.4175
14.095
-8.1187
14.117
0.519659
1.1307
-41.7102
0.744219
0.482284
13.6625
13.7914
43.6561
47.0519
65.286
-30.9602
29.8543
14.117
16.267
24.6782
13.8836
0.707565
0.0742744
0.411517
-0.241672
-41.7785
-40.9689
0.629256
1.48154
1.12545
-73.7004
-1.5244
1.06608
1.87197
-25.9464
-46.9328
0.679419
-36.9029
-0.122443
-25.7495
-26.5612
-14.5841
0.290478
0.611111
14.6327
-47.5289
0.0531621
14.7317
0.628971
0.0872378
-63.8551
-62.1955
-69.4024
0.362359
-41.9802
18.5645
10.3219
5.25747
-9.49407
-74.1561
-71.5599
-37.1903
64.1696
-38.5442
37.199
13.6179
-32.7297
14.3138
-50.0812
13.7259
-46.19
13.5953
-19.5656
1.73746
-23.1514
14.2234
14.051
1.79025
13.8666
13.6842
34.563
4.60361
14.142
13.723
-56.4647
-51.6325
-8.41584
-19.5196
-53.1445
-18.997
0.903178
16.7041
-44.7706
-24.037
-25.8443
15.0882
-77.469
8.10404
-52.8
-87.1449
-44.7497
-6.42136
17.1002
8.35405
10.9226
14.1033
1.27653
-23.6971
1.17463
1.50839
1.16921
0.127928
0.0990437
1.00373
0.55551
-18.304
0.201105
0.0995225
0.0797766
1.29881
-14.2002
0.825996
0.227711
0.382951
1.27697
-2.68872
-13.4999
0.609955
15.8747
-23.4137
-87.7983
-2.99066
-66.4563
-5.77229
-7.75823
-14.9526
38.2956
7.61806
9.89325
-3.57273
0.0366884
0.126155
0.454197
0.00951342
-0.134438
-0.30182
0.271798
1.30562
1.52141
11.5246
-5.72794
1.14561
48.793
-0.0388187
14.4062
-0.0631511
0.0140633
45.4546
-52.4128
26.9888
0.209657
1.18215
-19.5877
-43.0591
0.0819416
1.32602
17.8048
-6.55696
1.23645
0.102343
-13.5022
13.9126
-0.491981
16.9354
57.9097
1.34383
1.03154
-6.79882
0.347719
1.00024
0.626432
0.982443
13.2238
13.8569
9.62704
13.7186
14.4202
6.59823
4.90957
-2.14887
-49.867
7.37538
-5.5482
13.4823
13.5126
65.1932
5.37693
1.76445
2.00879
-32.7683
-25.8449
5.06781
17.9648
1.59224
33.4946
-3.60375
16.3699
-24.9713
50.4544
32.7517
-2.98967
2.39296
7.51899
-29.3182
-72.7657
-64.5269
2.11429
-6.9103
-74.6897
1.81013
-8.18404
-3.51344
-25.416
-46.6521
1.90061
16.1685
-79.2054
12.6385
-3.80769
1.77666
11.9577
-2.70679
13.7091
-7.91876
15.4331
11.4009
-41.3131
10.865
61.5201
-13.7332
57.5709
33.7776
-59.7129
14.7188
14.7176
-44.9654
-7.96996
1.93698
-39.0546
-18.7657
-8.7628
1.53565
1.47284
-37.6963
-0.48994
8.03851
60.5943
-4.50171
10.2682
-3.15095
-11.6939
9.09646
9.65224
-23.8134
-37.9653
-25.0048
-40.1279
0.410296
-10.5179
1.40387
-11.1531
-7.48086
1.45192
1.28948
-9.57615
-1.29988
-39.1125
-39.744
-0.0687344
9.30251
0.992511
-7.77271
-16.3512
10.8342
9.98585
-10.0866
-39.2335
11.0238
-4.37217
-40.6638
2.90758
-25.7449
0.246662
-2.00141
-47.6427
3.17725
55.4898
-3.2998
2.26162
2.15155
1.21064
-84.8899
0.794605
0.879649
-3.71442
0.258146
12.1445
0.451118
-19.1569
12.8556
35.3358
14.2063
12.9864
12.8948
1.0016
-3.73877
-2.40957
-5.72167
-84.1079
0.000181665
-33.333
-6.02065
-0.143604
-57.5649
-0.0541292
0.707389
1.8164
-4.2537
-44.602
-16.7494
13.5591
42.921
-1.08251
1.49144
-28.3897
-33.8479
-2.04577
-45.2841
36.4872
13.2137
-3.71855
40.584
13.8989
-55.3731
19.0528
10.3814
51.2984
36.3741
14.3598
13.279
63.9051
-46.6929
1.09584
56.3687
8.01085
14.0848
-5.67199
14.2875
-20.2088
13.8416
62.0707
13.7284
13.9895
43.3528
12.0521
17.6841
-10.6627
-1.10896
16.6219
-55.9698
26.2394
-15.4075
-45.0794
-57.3553
-16.2091
14.1266
39.1381
16.141
6.66874
13.5166
13.4058
15.0985
1.22369
1.24662
43.9815
-32.137
13.4452
-19.4952
3.55035
11.675
-11.2152
-56.4638
1.08775
-11.4399
13.9362
5.21155
0.951113
12.9009
-4.7174
1.28638
1.17231
-34.9669
4.2749
0.880518
-4.91436
12.2869
0.803884
22.891
0.84836
-9.91496
29.2725
6.58963
19.578
38.508
-40.753
59.9046
44.1479
-24.0024
-47.8412
-42.1707
-18.387
-40.1127
-40.2773
-20.4596
-15.5411
-23.6905
-42.1172
62.583
1.08654
-55.729
9.24145
-0.00856229
-26.5488
-60.3485
-5.45111
-37.7886
-11.6227
-36.792
-10.5035
43.2658
-31.7226
-22.3217
-41.5902
27.4547
-40.3524
1.13603
-66.0402
26.1337
9.34052
0.960928
0.456058
48.1483
8.48891
-31.9406
-14.2611
14.6542
1.21398
-2.77234
-20.0869
-26.1335
-0.524123
-1.45409
19.1933
-22.3608
-3.55178
1.19055
-16.5375
46.5162
-0.183387
7.12158
1.2136
5.50176
-34.3244
11.7882
9.32075
-9.69014
1.3767
7.45343
1.9791
1.27002
65.7664
4.69205
-23.3542
-3.00594
3.53127
-82.2625
-84.0202
10.5867
10.9599
9.92023
13.2201
-17.8621
-5.63214
60.9289
-7.40017
12.9984
-18.9903
-0.346057
-3.80982
10.4561
-7.48012
10.396
-14.7109
-43.8537
-33.421
36.1348
-17.8746
18.5772
10.8355
-45.181
-55.1484
33.1794
-64.3121
11.2624
-48.9215
37.4564
-11.2614
24.7504
-9.03987
2.42321
0.215608
-1.88994
-9.04192
-30.2357
2.38775
13.9347
-80.7046
14.5412
-16.365
14.4427
0.274219
11.7902
2.94078
1.05463
0.234247
-1.02572
8.14716
3.09196
16.8628
0.741745
-56.6511
36.6626
13.0877
42.8717
14.0757
4.92665
12.7836
14.6902
32.6465
1.20632
32.6197
1.13296
0.831065
-13.4216
0.798069
0.376533
-14.8273
-9.3636
-23.4109
-0.86674
37.1483
6.25055
31.0442
0.893638
17.1512
17.1664
1.4656
0.477094
0.254045
2.4365
62.306
0.2706
-3.50051
-38.3251
14.0627
14.3797
18.887
14.2126
-15.0258
-21.8847
2.6563
-1.10514
-0.953413
-9.27335
37.075
0.308686
-43.6134
0.227098
-22.8974
1.90876
10.7204
-18.8819
14.0282
14.0491
-11.8265
14.4689
1.17936
8.66986
-43.5938
19.189
57.9016
1.43952
1.31348
38.0666
11.0455
2.55148
35.2413
9.39213
-8.91145
40.1464
-15.2117
42.2001
-67.2639
5.48294
14.5261
1.2345
-5.16104
3.23371
0.887219
0.721116
0.254786
14.5933
-25.862
5.58576
1.59814
-15.4657
1.74099
3.0655
14.0931
14.3047
26.0134
6.44513
3.48061
-5.12379
1.51613
-7.35058
13.921
1.69008
-13.5744
63.4977
-13.8522
1.60105
62.1519
14.1079
-81.3451
56.4374
2.55987
4.46716
35.6915
14.3866
-38.7255
39.8072
-38.6646
0.920763
-38.3731
-14.3228
-31.1546
38.2168
1.57057
63.4686
0.585163
-39.6682
-36.7942
-86.9318
-83.0227
-31.3849
-68.5268
-21.2326
-40.0229
60.9148
11.0192
12.1968
51.1389
25.714
-32.9193
9.91443
-35.0739
50.4764
0.849017
12.5214
0.00975963
0.943709
0.191963
0.70624
62.146
0.785554
0.547896
18.6513
1.01161
0.872777
12.7927
-4.09148
0.886694
-4.37586
0.939425
8.78346
31.139
-35.0852
1.94064
3.23858
-2.66343
1.25578
-41.4966
-43.0353
-14.8252
2.03966
43.1599
15.5074
-0.315617
-3.58339
6.93983
5.66564
0.878013
13.4971
13.5133
-43.5639
1.03151
17.4444
-0.863037
4.6155
13.2252
0.353399
9.78571
13.644
13.238
-9.62496
12.7654
12.7809
53.1007
29.9915
12.9243
27.2381
12.7139
0.695608
13.1562
0.935744
-0.729586
1.65725
7.20125
-0.0202778
22.8314
12.6462
-12.7709
28.7082
0.343899
11.3016
32.3366
-9.26098
35.7884
-18.9845
-38.5057
-53.3849
1.92086
-0.0201248
-15.183
36.09
-4.41035
-0.0630366
10.479
2.66202
0.308508
0.110351
11.0227
14.7698
31.6857
9.37908
3.16634
13.3732
12.8734
0.0968735
-26.5629
38.0176
-0.0842733
9.94667
-6.45138
42.3228
14.3175
12.4061
-6.90782
-40.1333
-82.4259
13.6033
13.4477
-4.50739
-8.99518
-4.96575
-24.0091
35.5073
1.25056
1.80005
0.487226
-0.312174
19.4137
-12.2263
-0.0639302
0.549176
34.6328
0.624472
-2.33101
26.0111
-27.5242
-19.4039
0.654731
-6.7576
15.6502
-0.0289996
0.597392
14.4813
11.2828
-6.3901
23.8364
6.57964
-48.3597
0.516185
0.861749
-40.2926
-7.32789
15.4893
0.594552
9.44794
14.0017
65.1134
0.631839
-5.87187
-32.4078
-28.1729
-69.1342
-47.7819
0.648272
19.0651
51.0698
-0.0383961
14.1778
13.472
-37.2478
14.8297
7.79409
-25.1692
14.0337
21.6258
-11.8347
10.5567
-34.2892
-62.1424
16.9459
21.4405
-49.1373
17.1159
12.9358
4.47029
15.6983
14.2424
2.80951
-25.9237
-3.00702
15.8181
16.1347
15.9021
14.6547
9.61984
0.061172
42.2903
-0.0663978
-2.45359
1.79882
39.5055
14.3248
-8.2845
6.29187
60.6745
-16.829
-21.5278
-44.1416
4.73178
-2.28118
-38.8249
-13.2022
16.655
-10.626
-1.07689
-0.0228764
-4.6664
13.6127
11.4826
8.73411
0.132604
0.156973
-14.2313
-1.44025
-8.15143
1.32324
1.53749
0.207405
1.27675
-2.36803
14.6948
-30.9834
15.0171
1.23725
1.47019
14.0839
13.0593
13.7615
1.52077
1.69882
-4.27354
5.61415
1.2716
2.16295
-36.7974
3.09126
-6.38566
-49.6001
-38.4306
-44.9379
16.574
-64.9626
19.036
-37.3351
1.18966
-41.1968
0.571304
3.86676
2.93186
-1.62835
0.982997
4.00082
0.226719
15.7808
2.69996
16.9994
-2.01669
-6.84035
-83.4206
-39.5566
26.3905
33.6914
-43.4601
-28.2817
-29.0539
-70.302
-39.8601
-4.24148
-40.6548
1.55903
1.52943
-55.9686
-77.4023
-7.85149
1.53129
14.6601
53.6149
-2.34323
-78.039
2.83554
6.60388
0.602386
1.38197
-30.3209
2.47043
1.47265
1.41315
3.60423
9.05656
1.88886
0.877553
-68.2206
-71.6555
-29.6229
27.7052
-34.6645
14.1508
0.693621
15.9722
8.64023
5.65999
25.7702
13.6366
27.734
0.426479
5.64471
7.16792
1.57987
4.08701
-6.52539
10.3041
15.0895
10.2108
43.709
2.17811
23.564
-47.8611
-1.48647
-38.7402
39.6184
12.2733
11.1751
7.53613
-21.4423
-7.00975
12.1617
-35.9482
9.46869
6.44732
-1.6097
17.6183
11.413
-2.54606
-10.0418
-23.2405
14.6712
-0.982977
-42.3461
1.69815
-34.3456
-36.131
14.5323
-76.8935
-2.12411
35.1038
-3.15164
14.4695
13.0378
18.0538
-2.45058
13.9588
-40.3411
-6.44744
-39.2298
-3.25644
-7.74567
22.3892
-40.3588
-12.8357
1.58892
2.28542
21.0318
-40.9431
12.6964
2.73975
-34.7325
0.645292
0.800501
13.2489
-86.9631
-2.1438
4.19989
1.14607
0.694516
13.0004
11.7354
2.24484
12.9994
-10.2539
13.15
-87.5009
13.1032
-54.5177
-22.8854
-2.91252
10.2846
-3.47206
-4.16858
12.5734
-1.88462
1.4269
-4.06579
57.0149
0.460073
38.7439
-3.25685
0.325451
-1.88711
-0.110003
14.4166
12.879
14.0923
-2.13906
0.659221
13.4497
-4.15892
0.196245
0.450416
-16.1809
3.59084
-0.0256682
14.2536
-38.5905
-55.1058
-0.0653436
-1.34056
0.555427
-29.5412
0.343454
0.353171
1.35582
0.497927
1.33078
1.26847
0.084193
0.591857
13.36
-32.6573
-30.6805
14.3849
51.1588
18.1067
13.8879
-0.0431991
14.5607
44.5907
-0.044047
40.4215
2.00482
-0.461733
7.80666
32.8598
0.963673
-0.0460406
56.775
14.7679
28.2806
-4.65297
-8.79514
0.134139
-1.55362
-0.0844748
0.944504
3.89852
0.876487
54.0944
0.85843
0.623767
0.678834
13.8288
-26.0124
-13.4537
-1.54492
2.10215
1.69791
0.548864
15.2889
-20.1489
27.1477
20.3369
0.976487
0.521785
46.7636
-9.54269
45.2875
32.5625
12.8784
14.1068
0.386478
-3.94819
3.41951
-7.84084
-7.59546
14.3794
-82.3781
1.32153
1.21123
1.08517
12.549
1.33187
53.2211
-1.41881
49.0176
1.11007
-68.3428
-7.9524
-9.04037
1.03427
-37.7165
1.3354
34.4444
14.0672
36.2329
1.12864
-11.8822
5.35016
-37.7785
29.5911
13.5194
13.6286
1.08847
-17.5144
13.4488
-87.4384
-14.4617
13.6894
37.8134
13.4582
-15.7492
47.249
6.00894
-2.10712
46.2694
36.3242
3.35263
4.83341
-64.4286
45.6186
11.3051
44.3827
-1.88887
-57.1028
30.4828
0.265092
0.0171005
0.0772662
0.194433
1.87217
15.8964
-36.7626
1.5115
-22.5104
18.4575
42.3221
-10.1745
39.1933
-0.0127262
0.0238848
-7.67837
59.7789
-11.2913
52.3256
17.3426
6.11956
27.4112
7.64269
20.109
-0.0157601
-0.199877
-0.0726041
-0.0361275
10.2863
-9.01264
15.4268
-27.7992
0.62402
-30.5568
14.1192
-15.2087
50.0331
2.52099
1.51048
0.136179
44.0084
0.135718
24.5624
0.264416
10.4607
-4.24405
2.37259
35.9232
39.1427
-8.50464
0.256
1.55077
-35.7972
-55.7435
-6.24864
55.957
31.4211
58.5501
61.0185
49.2703
-48.2174
1.08679
49.2015
-40.8222
0.0315156
6.74667
0.184793
-18.4909
-24.69
0.0517917
3.31448
-3.65778
-0.144729
13.0347
-34.0735
44.0395
-36.4727
13.0881
1.06771
12.3152
4.04429
-2.37942
-85.0977
2.34096
-23.0826
-11.1886
13.3227
-75.8084
-82.9095
13.2321
-5.96078
-8.09079
20.572
13.1546
-8.34011
27.7596
-68.4913
-21.5133
-31.1203
41.6349
-31.0669
6.74559
27.9042
6.90575
-40.7255
-41.9327
5.89077
1.10516
54.2966
1.26218
-29.2499
0.16497
-10.1295
-50.4878
-7.57365
-38.7902
1.36813
-39.6446
0.25265
-38.6995
13.443
-15.7395
54.7925
-39.6229
24.7029
-21.616
-40.6421
-12.104
-31.1245
36.8634
34.66
-27.0767
13.022
22.5427
18.1442
7.65535
15.1787
-3.99006
-42.9065
-112.2
-59.0143
20.942
24.6309
-28.5593
27.9058
-37.6212
-7.89516
8.68006
4.61275
-38.313
14.3219
-41.064
16.7762
35.1987
36.5828
64.8494
34.5599
-17.7624
-46.5287
49.8015
14.3307
39.9016
-36.3611
-40.1041
53.3211
32.1298
-1.62268
23.9582
21.1831
-33.6645
-40.8389
-83.1714
23.1462
11.3363
40.1314
-43.4642
49.2179
32.6551
14.6671
41.3626
-54.8273
7.34179
4.59926
14.9089
-6.33999
-34.4592
-45.4532
48.1288
-0.381697
-35.9325
-69.6032
47.6018
48.5313
44.6418
-50.1734
-80.4809
48.0279
-14.6855
-45.3225
48.9471
1.06112
-5.59293
13.8999
1.07305
2.31203
-4.07821
46.3765
-23.7482
0.23867
2.45315
2.29688
2.8583
1.66036
11.2548
-24.1106
-2.03378
1.95962
-42.7053
-60.9895
-41.5818
-11.5998
2.14616
-10.5303
-34.4274
-23.0777
2.07991
-40.9491
3.53832
-39.7658
-38.2488
45.9727
23.0116
28.9053
0.08285
10.7419
-56.796
-16.8205
-5.67154
-53.645
-0.0281086
-46.8723
-30.6116
-16.7244
-31.6065
0.667131
17.9664
13.9805
17.0243
13.0072
45.1703
0.159745
-0.0892733
0.0780295
16.9117
-17.8759
-63.3426
-43.6879
17.296
41.3003
26.1996
33.7006
5.15025
-66.2766
-2.82195
16.3396
7.61041
0.861241
21.6222
11.4079
-7.15367
17.1477
-6.74514
-6.05
0.690398
18.4071
39.1786
-21.8299
58.2826
-62.4526
21.8323
-86.1921
-58.399
-6.44121
13.7859
40.0947
-3.41486
-36.7718
3.14411
17.0185
-17.5008
-44.7607
21.092
50.0492
65.06
-53.9746
-9.13158
-46.6309
16.6422
3.02942
-8.13934
12.6025
9.18446
-14.7731
5.58722
12.4553
-30.5349
-4.48142
-42.9585
-2.36451
-55.8571
0.0544622
13.9359
-84.0813
-10.4748
-0.0790168
64.6669
12.1374
52.0271
8.08924
-34.3506
19.6293
6.88657
37.811
59.2267
17.9433
38.3379
-0.162736
-41.1141
14.4448
14.2398
2.92011
12.5583
-26.3526
1.50956
-3.98317
14.5661
5.77234
-14.1172
7.04604
11.6859
-3.0054
-5.06477
-24.5651
-0.00344197
15.267
0.0149189
16.2427
0.259228
-7.73175
14.2169
-14.7671
13.7118
-40.3055
-0.0902237
35.7197
-7.043
40.1373
0.219163
4.54518
-0.0313514
0.0112227
-4.47745
6.26512
18.6464
38.6782
29.8774
-62.1937
-42.3221
48.5622
28.8777
23.3605
10.2548
0.0701634
0.118215
-60.0319
49.3259
23.509
19.2549
0.443643
21.0452
0.113698
0.103974
-12.8776
-18.6145
-27.0163
-44.8187
12.3041
1.52643
-11.5837
14.2546
42.8362
12.8131
-8.03574
13.0102
-4.03476
-63.3086
-12.6911
0.191848
8.32482
-2.94453
-2.91938
-40.0734
14.1139
-41.3309
27.7773
-60.8585
-22.6793
-18.9111
0.242577
24.4103
7.96913
14.541
37.1255
14.5089
-4.81372
12.4114
13.5851
12.8094
14.4025
-29.6281
16.7203
12.9834
46.2585
14.2665
-14.3688
14.6357
14.5324
-39.3848
-61.9577
-19.2281
-41.2465
-37.7084
13.3597
60.3991
-45.818
-7.1717
16.957
23.9474
-38.0398
0.670139
0.493863
12.3278
-15.4488
-44.5904
-36.3006
37.0786
4.51028
1.02628
8.91649
-50.0726
30.7773
11.5842
-44.3211
-54.3906
-46.1463
65.3876
15.9873
12.0144
8.14996
16.1315
-60.3088
19.6764
12.9564
21.5617
-11.8734
18.7769
26.572
48.5306
40.0112
12.3473
-10.4895
25.4259
-3.72809
0.610622
0.417851
32.8248
-21.8838
-14.3987
0.414489
59.5214
0.422704
-49.3022
31.9022
27.7784
43.2916
-43.51
-28.8297
-40.316
36.2194
-6.63372
-22.2926
-10.9525
12.7762
2.46931
16.2341
1.27897
22.4552
1.1304
13.1872
1.28107
-5.71382
0.323444
39.51
7.56457
5.88983
-17.8108
8.51405
1.24051
9.39191
-0.643902
-33.9774
-38.8043
-13.6821
6.75099
40.2493
0.974617
62.6874
-46.7034
62.0657
57.4379
0.991064
4.32459
5.50928
0.955157
1.01452
-75.3284
15.9916
-38.6809
-24.2602
6.47995
1.66815
-37.8421
6.6487
6.48831
12.6633
8.92103
1.01283
-50.7272
-0.588643
1.46677
-1.14732
1.45894
1.0006
1.43556
1.33079
-0.251318
6.37886
-44.128
0.6494
1.71522
-7.92635
-3.17357
24.1117
-15.4135
13.7968
13.7402
-0.118122
0.2587
-5.44841
-9.85168
7.90749
0.393484
2.99648
9.25783
0.069428
59.4798
0.272251
2.26839
0.0610688
-0.0383012
-20.0933
-0.0416151
-42.5949
0.871902
53.6426
4.83721
0.0311967
-11.0096
-5.795
0.877578
-30.4982
2.04266
0.097473
7.75622
-41.9857
0.116985
6.00315
28.5233
42.9918
-3.86428
9.7882
11.1374
-34.7496
-16.8656
0.0637887
50.8914
-48.2787
-14.76
-5.43299
53.8179
-6.89986
-4.41892
33.5028
-53.855
4.04053
0.0570641
0.0591387
0.278988
0.00643181
-0.083123
-47.0135
19.0514
-0.15241
-43.6742
5.48741
0.339169
-3.88238
3.22143
19.195
-37.6013
7.48384
17.5941
-18.4739
1.83273
15.8142
63.3472
16.7137
-62.4515
44.2625
19.5818
32.3296
0.304594
49.5167
0.399828
11.5384
25.4357
0.0291636
-34.9575
-42.1372
0.759023
0.580532
-121.196
24.7126
-42.9132
1.85961
-3.96772
0.738131
14.6711
28.3333
54.0409
14.6963
56.6053
14.6993
-70.8475
-42.7962
-42.1663
-43.3244
-5.52328