/*--------------------------------*- C++ -*----------------------------------*\
| =========                 |                                                 |
| \\      /  F ield         | OpenFOAM: The Open Source CFD Toolbox           |
|  \\    /   O peration     | Version:  2506                                  |
|   \\  /    A nd           | Website:  www.openfoam.com                      |
|    \\/     M anipulation  |                                                 |
\*---------------------------------------------------------------------------*/
FoamFile
{
    version     2.0;
    format      ascii;
    arch        "LSB;label=32;scalar=64";
    class       surfaceScalarField;
    location    "0.0292463";
    object      phi;
}
// * * * * * * * * * * * * * * * * * * * * * * * * * * * * * * * * * * * * * //

dimensions      [0 3 -1 0 0 0 0];

oriented        oriented;

internalField   nonuniform List<scalar> 
92401
(
0.147343
-0.0954224
-0.00695377
-0.0449671
-0.0624435
0.0600418
0.0372221
-0.0348203
0.022504
-0.0396408
0.0428594
-0.0257226
0.0063687
-0.0124747
0.0123628
-0.00625675
0.00139729
-0.000451877
-0.00573201
0.0047866
0.0195444
0.00970122
-0.0255484
-0.00369722
0.00546013
-0.00449386
0.000431016
0.0324503
-0.025815
0.0129091
0.0483037
-0.0387105
0.0322754
-0.0418686
0.000572131
-0.00114841
-0.000220708
0.000796992
0.00472718
-0.041885
0.0373904
0.0250249
0.0238406
-0.0862559
-0.0166916
0.0107184
-7.56332e-05
0.00604892
-0.0342426
-0.0402375
-0.0170103
-0.0162425
0.0565379
-0.0232851
0.00161796
-0.064847
0.063229
-0.0020374
-0.007649
0.00194046
0.00337455
0.002334
-0.000928134
0.00143635
0.000303833
-0.000812044
-0.00470061
0.0102711
3.56626e-05
-0.00560613
0.0159818
-0.00565094
-0.00459238
-0.00573843
-0.0402816
0.00809908
0.0367671
-0.00458464
-0.0391468
0.0107288
-0.0552107
-0.0541119
-0.00330439
0.0556155
0.00180076
0.0906727
-0.0893269
0.0231747
-0.0245205
0.0499918
0.0601051
-0.0713114
-0.0387856
-0.0324174
0.0512647
-0.0579941
-0.00254794
-0.00105452
0.0038614
-0.00025894
0.0317598
-0.0637286
-0.000448591
0.0613319
-0.0611873
-0.0321819
0.0320372
0.0126143
-0.0172677
0.00116531
0.0034881
-0.0364867
0.106707
0.0606575
-0.130878
-0.0846023
0.108051
0.00841175
-0.0318602
-0.130789
0.0316442
0.0299167
0.0692281
0.015448
-0.0617927
0.0368228
0.0095218
0.0609284
0.00963466
-0.055115
-0.0440318
0.0104367
0.00199998
0.0315951
-0.0503732
-0.0412001
0.0653914
0.0261819
-0.0334487
0.0402358
-0.0139072
0.00712007
-0.0198471
-0.101829
0.0648798
0.0567958
-0.0865344
0.0863682
0.000166195
0.0316327
-0.000856142
-0.0749117
0.0441351
-0.000358663
0.0268378
-0.028109
0.00162993
0.0269942
-0.0504125
0.0234183
0.000133014
-7.24376e-05
-2.86845e-05
-3.1892e-05
-7.34329e-05
-0.0590031
0.0590765
-0.0686954
0.0426837
0.0627754
-0.0367637
0.089976
-0.0255683
-0.0124728
-0.051935
-0.000270705
0.0700243
0.000422347
-0.0701759
-0.0473787
0.0729883
0.0391767
-0.0647863
0.000515799
0.00101159
-0.000359463
-0.00116793
-0.00221992
-0.00367133
0.000461544
0.0054297
-0.0383472
0.0840129
-0.046101
0.000435287
0.00033385
-0.000793862
-0.000687525
0.00114754
-0.0547496
0.054273
0.00047655
0.0747977
-0.00752033
-0.0190179
-0.0482595
-0.0974726
0.089612
0.00576098
0.00209966
-0.0554207
0.027285
0.0115495
0.0165862
-0.00192503
-0.0159048
0.00676528
0.0110646
-0.0125043
0.0258468
0.0376332
-0.0509757
0.00092705
-0.000275995
-0.000317205
8.31451e-05
1.83157e-05
0.000724943
-0.000826404
0.00120102
0.00021549
-0.000826533
-0.000589978
0.00405254
-0.00910431
0.00519984
-0.00014807
0.0679419
0.00505537
-0.0172368
-0.0557605
-0.014968
-0.00450661
0.0101007
0.00937392
-0.0406862
-0.0531906
-0.0551925
0.149069
0.00360787
-0.0335689
-0.00379025
0.0337513
-0.000433432
0.000542437
0.00071193
-0.000820936
0.00485106
0.00412401
-0.0283802
0.0194052
0.0186227
-0.0069275
-0.00946107
-0.0022341
0.0416596
-0.0761845
-0.0275126
0.0620375
-0.0281627
-0.00339434
0.0102243
0.0213328
0.011897
0.0080409
0.0129145
-0.0328523
-0.000932655
-0.000413159
-5.28765e-05
0.00139869
0.0250809
-0.00964542
0.0366272
-0.0012611
0.000873458
-0.00151265
0.00190029
0.0444095
-0.0330784
-0.0683449
0.0570138
0.000627837
-0.00028292
-0.000344917
-0.00106662
-6.08702e-05
0.000562153
0.000565338
0.000955791
-0.000456894
0.00101302
-0.00151192
0.0222951
-0.0218443
-0.0627545
0.0623036
0.00118911
-0.0127634
0.00263264
0.00894162
0.0434068
0.0575519
0.0189103
-0.119869
-0.116413
0.0256263
0.129287
-0.0384997
-0.00520851
-0.0438084
0.00399829
0.0450186
0.0527638
-0.0285709
0.0252823
-0.0494753
0.0251625
-0.00424015
-0.150842
0.12992
0.00620241
0.0170049
-0.026185
0.00297768
0.000695132
-0.000246901
-0.000687366
0.000239136
0.037885
0.0127265
-0.00199545
-0.048616
-0.00183439
0.0831919
-0.0849916
0.00363409
-0.0183002
0.049952
-0.11624
0.084588
0.04182
0.00528866
-0.0523172
0.0420693
-0.000249298
-0.00239389
-0.029
0.041373
-0.00997907
0.07105
0.0166585
-0.0313302
-0.0563783
0.128056
-0.141577
-0.0284363
0.0419565
-0.0145571
-0.0455198
0.057683
-0.0810213
-0.000547043
0.0815684
0.00143556
-0.0984485
0.16474
-0.0677268
-0.00237592
0.00330123
-0.000541229
-0.000384076
0.0885246
-0.147697
0.0308732
0.0282988
0.00155986
-0.000291704
0.000810705
-0.00207886
-0.0854742
0.143189
-0.104322
0.0466076
0.0289984
0.00334608
-0.0397306
0.00738611
0.087221
-0.0165042
-0.0796429
0.00892606
0.00601448
0.0311254
-0.051697
0.031233
0.0285346
-0.13385
0.0740826
0.0852512
0.113104
-0.0786912
-0.119664
0.00026391
0.000783915
-0.00281173
0.0017639
-0.0949516
-0.0290276
0.111735
0.0122443
0.00163653
-0.00580834
0.0149893
-0.0108175
-0.0139233
-0.0334949
0.0575381
-0.0101199
-0.00535074
0.0165744
-0.0140339
0.00281021
0.000310946
-0.000650117
-0.00050922
0.000848391
0.0211149
-0.0253344
-0.00113133
-0.00174802
-0.000736681
0.00144176
0.00104294
-0.0570683
0.0595829
-0.0025146
-0.00241163
-0.00612122
-0.00200391
0.0105368
-0.0359831
0.0278682
-0.00580835
0.0185336
-0.0473731
-0.0557629
-0.0510089
0.0414052
0.0981631
-0.0885594
-0.00743515
-0.00167356
0.0049467
0.004162
0.0469392
0.0116731
0.00182061
-0.0604328
0.000335271
-0.00901033
0.00665816
0.0020169
-0.0388074
-0.0534323
0.0116344
0.0806053
0.0646782
-0.0388539
0.0265733
-0.0523977
-0.00911247
0.0594581
-0.0587795
0.00843382
-0.0593323
-0.0341
0.0083771
0.0850553
0.0167896
0.00514411
-0.0335203
0.0115866
0.0595161
-0.0587571
-0.00075896
0.00189136
0.00185116
-0.00119355
-0.00254897
0.041342
-0.0437617
0.00241969
-0.0513196
-0.039841
0.106765
-0.0156045
0.000859414
-0.00966459
0.00942733
-0.000622147
0.00304809
0.00595254
0.00250155
-0.0115022
0.00175362
0.00612399
-0.00754234
-0.0249729
-0.0573541
-0.00931148
0.0916384
0.0254862
-0.00724048
0.0168933
-0.035139
-0.0844061
0.0923738
-0.101707
0.0937391
0.0766675
-0.0510901
-0.0255774
0.00131532
-0.0343209
-0.0100361
0.0430417
0.00800026
-0.00551046
-0.00893748
0.00644768
0.045991
-0.0695871
-0.0613668
0.0849629
0.0742243
-0.0647347
0.0291868
-0.0386764
-0.0132471
-0.00842002
0.0316175
-0.00995035
-0.0585627
-0.0873188
0.0565725
0.089309
-0.0413693
0.0536865
-0.0110019
0.0979032
-0.0486015
-0.0493017
-0.0040859
0.0146154
-0.00252922
0.000940441
0.000641928
-0.000696527
-0.000885842
0.0476331
-0.0161127
-0.00527543
-0.0262449
0.00351942
-0.00177208
-0.000507285
-0.00124005
0.00553624
-0.00991746
0.00853395
-0.00415274
0.0727556
-0.0422027
0.0256269
-0.0561798
0.00848285
-0.000294651
-0.00682268
-0.00136552
0.00160836
-0.000564601
-0.00104376
-0.063785
0.0642621
-0.00047703
0.011968
0.00565793
-0.0960393
0.0784134
-0.0110626
0.013975
-0.0101383
0.00722592
-0.0724971
0.016701
0.0828236
-0.0270275
0.0185954
-0.0976338
0.0754952
0.00354312
-0.0523848
0.0423402
-0.00801936
0.0180639
0.00853558
-0.00176623
-0.00285949
-0.00390986
8.4762e-05
-0.000960422
0.00087566
0.0267328
0.170726
-0.242766
0.0453071
0.000284629
-0.000261494
-0.0249702
0.0605468
-0.0528126
0.017236
-8.74715e-05
0.00512019
-0.00421561
-0.000817104
0.000715669
0.00182249
-0.00299506
-0.0718694
0.0003128
0.0715566
-0.032669
0.114329
-0.0479611
-0.0336988
0.000267148
0.000822266
0.00937648
-0.0104659
-0.000235926
0.090021
-0.0897851
0.00233285
-0.00163082
-0.00112707
0.000425039
0.00127742
0.000606914
-0.000611418
-0.00127291
-0.0365876
-0.00143717
0.0323423
0.019255
-0.0641016
-0.0719102
-0.0164218
0.0058588
0.0824732
-0.000586128
0.00186354
-0.0991786
-0.0417916
0.112491
0.0284787
0.0275144
0.168556
-0.0844319
-0.0575203
-0.0266043
-0.017602
0.11855
-0.0436639
-0.0572838
0.0407204
0.0301794
0.0375353
-0.108435
0.105152
-0.247536
0.108278
0.0341066
0.00153073
-0.00133438
-0.00142674
0.00123039
-0.0120071
-0.0358321
0.0559913
-0.00815206
0.0252421
0.0405343
-0.0256384
-0.0401381
-0.0353138
-0.0260739
-0.0196785
0.0810662
-0.0541997
-0.0131784
0.055371
0.000720198
-0.0119345
0.00812558
0.00308874
0.0554559
-0.0285244
-0.0508883
0.0239567
-0.0884657
0.104291
-0.0500547
0.0342299
0.0158669
-0.0228271
0.00710435
-0.000144164
0.051856
-0.0601996
0.0637995
-0.0566315
-0.00367926
-0.014458
0.0747687
-0.00534935
-0.0124735
0.00211578
0.0157071
-0.000318757
0.0576319
-0.0572
-0.000113092
0.136467
-0.0538523
-0.00319465
-0.0794199
0.0593233
-0.00782669
-0.0484267
-0.00307001
0.0528102
-0.0208891
-0.0751613
0.0432402
-0.00955719
-0.00201007
0.0146702
-0.0031029
0.00524733
-0.00166304
-0.00477204
0.00118775
0.00213678
-0.0430014
0.0395862
0.00127848
-0.000946654
-0.0864192
0.00366006
0.0192351
-0.0129254
-0.0631644
0.0474989
0.0156655
-0.0596825
-0.0168822
0.0106769
0.0658877
-0.0982895
-0.00233851
0.103159
-0.00253095
0.00382345
0.0231347
-0.0125906
-0.0143675
-0.070376
0.150027
-0.0663406
-0.0133109
-0.00505792
0.0140681
0.0224467
-0.0314568
-0.0507493
0.0969629
0.0380381
-0.0842516
0.0277087
0.00226027
-0.0147098
-0.0152592
-0.0358821
0.0368919
0.00112698
-0.00368343
0.00672605
-0.00928758
0.00624495
-0.000436655
-0.00417038
0.0101433
0.0363966
0.0383106
-0.0747072
0.00110744
-0.00184521
6.16827e-05
0.00067609
0.0190185
0.00829844
-0.0184062
-0.00891078
0.0220024
0.00955687
-0.00256582
-0.0289935
-0.0509616
-0.000777038
0.00621689
0.0455218
0.00033986
-0.0433413
-0.000916029
0.000584624
0.00143884
-0.0523588
0.0376212
0.0517389
-0.0370013
-0.0439614
0.0295402
0.0185335
-0.00411236
0.00131857
-0.00314459
-0.0096536
0.0114796
-0.00856079
-0.00494371
-0.00358895
0.0170934
-0.0428728
-0.00460078
0.0115915
0.0718357
0.0395395
-0.071936
-0.0394392
-0.0439772
-0.000302995
0.0442802
0.0864607
-0.048588
0.0592275
0.00363691
-0.00780911
-0.0381434
0.0423156
0.0358519
0.0111509
-0.00575879
-0.041244
-0.000481326
0.000287046
0.000988408
-0.000794128
-0.0168459
-0.0446246
0.0614705
-0.000290838
-0.00125711
-0.0045522
0.0317587
-0.0235696
0.00607115
0.0280786
-0.0419588
0.0976217
-0.0908264
-0.00191926
-0.00487608
-0.0211675
0.100595
-0.0187796
-0.0606483
-0.0317473
0.00685055
0.0153429
0.0095538
-0.0391642
0.035571
0.0143932
-0.0108
0.0323139
-0.0251257
0.00140594
-0.00859412
0.0183588
0.0720138
-0.120608
0.0302358
0.0757199
-0.074476
-0.0241335
0.0228896
-0.142753
0.00276939
0.00279025
0.137193
0.0300756
0.0127064
-0.0411368
-0.00164521
0.0401515
-0.0579009
0.0199957
-0.00224625
0.00206882
-0.0012351
0.000234961
-0.00106869
-0.0148577
-0.00148553
0.0734159
-0.041621
0.0188645
-0.0506594
-0.0113983
0.0473875
0.0007055
-0.0366947
0.00578754
0.0957205
-0.0932068
-0.0083012
0.0501361
-0.0987931
0.0580832
-0.00942623
-0.0490088
-0.000393129
0.0380036
0.0154178
-0.0041827
0.0087586
-0.0199937
-0.0234531
0.0478915
-0.0133614
-0.0110771
-0.0489574
-5.13357e-05
-0.00530571
-0.122637
0.175961
-0.0480189
0.00999001
0.00912541
-0.0624738
0.0433584
0.0503191
0.00528128
-0.0456104
-0.0124247
0.00664112
-0.00355721
0.00934079
-0.0556385
0.000249976
0.0553885
0.109698
0.043623
-0.135279
-0.0180423
-0.00896991
0.000414232
-0.00386902
0.0187944
-0.114749
-0.0227828
0.118737
0.0125933
0.0657635
-0.0692315
0.00298206
-0.0548093
-0.0106466
0.000452448
0.00182942
-0.0025727
0.0019393
-0.0018227
0.000335849
-0.0509631
0.0255023
0.0744077
-0.0489469
-0.00192419
0.000962352
0.000900971
-0.0346883
-0.00775541
0.0454258
0.000214933
-0.000309711
0.00033121
-0.00090201
9.11906e-05
0.000479609
5.47555e-05
0.00209948
-0.00169173
0.00133993
7.61849e-05
0.000275618
0.000481028
-0.000294786
0.000740808
0.105094
0.120529
-0.0782798
0.000128348
-0.000862071
0.00121475
-0.0528689
0.0530885
-0.000219615
-0.0110658
0.0755789
-0.0706362
0.00612313
0.00181663
-0.0190996
0.00500212
0.0122809
-0.0603065
-0.00362818
-0.0170294
0.00408391
0.0475082
-0.0345627
-0.064645
-0.000811752
0.0654568
-0.00620965
-0.0162548
-0.0124758
0.0349402
0.000258807
-0.000339854
-0.000459857
0.000540904
-0.00405022
-0.00740271
0.00890477
0.00254816
0.0549785
0.0439164
-0.0175119
0.0474162
0.088683
-0.0379167
-0.0981826
-0.0122822
-0.044388
-0.0210521
0.0205417
-0.0563216
0.0568321
-0.0102847
0.028964
-0.00727317
-0.0114062
-0.0152696
-0.0133365
0.0139347
0.0146714
0.0970339
-0.0958419
0.0182645
-0.0194564
0.00103513
-0.00428675
-0.000269111
0.00352073
0.000628621
-0.0652054
0.0645768
-0.073198
0.00374255
0.0668794
0.00257604
0.0395515
0.0379165
-0.077468
0.0190147
-0.0602931
0.0289963
0.00225465
-0.0013527
0.000786829
-0.00168878
7.65338e-05
-0.000480133
0.00168477
-0.00128117
-6.27716e-05
0.000399355
-0.000930675
0.000594091
0.0633268
0.0557379
-0.0389838
-0.0800809
0.00549551
-0.0861793
0.082213
-0.00152929
-0.0135068
0.000191207
0.0265038
-0.0131882
0.0523974
-0.0520263
0.0194036
-0.0197748
-0.000473033
0.00126939
-0.000630766
-0.000165589
0.0203469
0.0480086
-0.0493408
-0.0473238
-0.0017461
0.000863151
0.00155601
-0.000673061
0.000365836
0.0795632
-0.079929
-0.0499871
-0.0153065
-0.0226596
0.0879532
-0.0503047
0.000317598
0.0117136
0.0170222
0.0164634
-0.0451992
0.000467577
-0.00279502
0.000204323
0.00212312
-0.00165569
-0.000702664
0.000612248
-0.10746
-0.00845619
-0.0440708
0.159987
-0.0106973
0.00728885
0.138201
-0.134793
-0.0382322
0.0425541
-0.0645798
0.0602579
-0.0785839
0.077634
0.000949985
0.00160029
-0.0506284
-0.0302561
0.0653382
0.0189368
-0.00528005
-0.0789949
0.050412
0.0932359
-0.155385
0.0117372
0.0422545
0.015557
0.0327894
-0.0906009
0.104374
-0.107796
0.0429732
-0.00337052
0.0128119
-0.0115946
0.00215322
-0.00218761
0.00023819
-0.000794437
0.00274385
-0.00271717
-0.00549939
0.00151435
0.00670221
0.060585
-0.00589781
-0.0182995
-0.0363877
-0.0566815
0.0282956
0.0283859
-0.092419
-0.00774862
0.0123162
0.000310496
-0.000386364
-0.00211174
-0.11712
0.0246913
0.00558734
0.0868417
0.000835898
-0.0536634
-0.00977524
0.0626028
0.0454799
0.0285249
-0.101233
0.0272278
0.0380888
-0.0440134
-0.0188667
0.0247912
0.0477177
-0.0599747
0.0503458
0.0304728
-0.056076
0.0498781
-0.0242749
0.0342318
-0.0357587
0.000677091
0.000849827
0.0163562
-0.142588
0.0911428
0.0350887
0.00109164
-0.0609572
-0.00333869
0.0526408
0.000339777
-0.108401
-0.0337114
-0.00928307
0.00672819
0.0362663
-0.0484766
0.0445545
0.050269
-0.0463469
-0.0422959
0.0820848
-0.0397889
0.010837
-0.102655
0.0478049
-0.0167969
0.0076371
0.0243142
-0.0151544
-0.0883939
0.0931435
0.036936
-0.0416857
0.0581742
0.0333971
-0.0821351
-0.00943627
-0.0479509
0.142149
0.00482136
-0.0990195
-0.000437223
0.00310195
0.003437
-0.00610173
0.0544307
-0.0729232
0.0832609
-0.0647684
0.00885904
-0.0402013
-0.00861208
0.0399543
-0.0434977
0.0314041
0.102944
-0.0908509
-0.0501342
-0.0266897
0.0537637
0.0230602
-0.0102465
-0.000554753
0.00652711
0.00427418
-0.0095848
0.0209468
-0.0177196
0.00635766
5.09731e-05
0.0737118
-0.0737628
0.0149134
-0.0442151
-0.019175
0.0485427
-0.0339194
-0.00146129
-0.013162
0.00157897
-0.0249108
-0.0203977
0.0437296
0.0349819
-0.0348979
-8.40268e-05
0.0619139
-0.0415827
0.0634583
-0.0837895
-0.0995511
0.097156
0.0994289
0.00014267
-0.0107461
-0.0018255
0.012429
0.0498954
-5.85435e-05
-0.000109208
0.000123574
4.41771e-05
-0.000175705
0.0468458
-0.10856
0.0618899
-0.00861938
-0.000429323
0.00493504
0.00411366
0.0268431
0.010009
-0.0368521
0.00117134
-0.00106824
-0.00872247
-0.0317186
-0.0336725
0.0140715
0.0572135
0.000666102
-0.0578796
0.07285
-0.0440636
-0.0512044
0.0224181
0.00183089
-0.0247229
-0.0211398
0.0695045
0.042945
-0.0395995
-0.00797652
0.00929053
0.134944
-0.119762
0.035569
-0.0507507
-0.0451223
0.0369058
0.0218901
-0.0136736
-0.0528647
0.052124
0.000740713
-0.0479111
0.0297829
0.0104344
-0.0466456
-0.0105186
0.0467298
-0.00258163
0.159437
-0.158576
0.00172093
0.107922
0.0159488
-0.0158201
0.0507842
0.00857162
-0.0513394
-0.00801639
-0.0143777
0.0045251
0.0105613
-0.000708707
-0.00956281
-0.00525059
0.00478117
0.0100322
0.0666604
-0.0380868
-0.0531516
0.024578
0.0298039
-0.0158457
0.0236284
-0.0375866
0.0269354
-0.0941112
0.0899146
-0.0227388
-0.00568353
0.000392703
-0.00908688
-0.0940564
0.107651
-0.0235363
0.00994215
-0.0113081
0.0477669
0.0138755
-0.0503344
-0.00440322
-1.72156e-05
0.00317506
0.00124538
0.0827581
-0.00525459
0.0517943
-0.129298
5.18173e-05
-0.000725281
1.86457e-05
0.000654818
-0.0664089
0.0578667
0.0743371
-0.0657949
0.00358754
0.00131432
-0.00221556
-0.00268631
-0.0778512
0.0755535
0.00229766
0.0621948
-0.0588228
-0.00337193
0.0602278
-0.000486051
-0.0597417
-0.0119591
0.123433
-0.000709816
-0.110764
0.00987977
-0.0311029
0.0329367
-0.02372
-0.000242073
-0.0564813
-0.0674959
0.0123884
0.0667485
-0.011641
-0.0131353
-0.00211102
0.000452857
-0.000668476
-0.000158689
0.000374309
0.00111787
-0.000213038
-0.000236532
-0.000668303
-0.0636415
0.00734332
-0.00124695
0.0575452
0.000495456
-0.00538378
0.00179996
0.00308836
0.011998
-0.0145071
3.13009e-05
0.00247787
0.00806972
-0.0067014
0.0106296
0.0558753
-0.00974739
-0.022346
-0.0237819
0.0363159
-0.00556128
-0.0365133
0.00575873
0.00039186
0.0667339
-0.000342947
-0.0667828
0.00747166
-0.0715734
0.0193945
0.0447072
-0.0428831
-0.0323148
0.042173
0.0330248
-0.0342156
0.0201318
-0.0909158
0.105
-0.000860798
0.0149964
-0.00776467
-0.00637095
0.0491511
-0.0590015
0.0473225
-0.0374722
-0.0629534
-0.00675189
-0.00761014
0.000693225
-0.000135219
0.00418711
-0.00474512
-0.0117998
-0.00273686
0.00175603
0.0127806
-0.00788879
-0.00912919
0.0106814
0.00633656
-0.000125259
-0.00214147
0.00130687
0.000959856
-0.000474346
0.000562599
-8.82528e-05
0.00119013
-0.0713083
-0.0259797
0.0960979
-0.000157459
-0.000172561
-0.00128858
0.00161859
0.000131627
-0.000506934
-9.90393e-05
0.00170953
-0.0663546
-0.00013824
-7.27829e-05
0.000773621
0.000654589
9.26457e-05
-0.000421509
-0.000325726
-0.0282635
0.0644387
0.076789
-0.112964
-0.0089946
-0.00221197
0.00713902
0.00406754
-0.014391
-0.000264089
0.00566044
-0.00518316
0.00539085
0.0129268
-0.0131345
-0.000715701
0.000817278
-0.000239817
-0.065981
0.0663512
-0.000370206
0.0304453
0.0468175
-0.0598508
-0.0174119
0.0125899
-0.0754713
-0.0219969
0.0848783
-0.0132804
0.00267803
0.00541918
-0.00451264
-0.00623126
-0.00253646
-0.0165498
0.0582541
0.012839
-0.0545432
0.069128
0.00459992
-0.0534383
-0.0202896
0.000154253
0.000430252
-0.000795041
0.000210536
-0.000380242
-0.000203831
-0.00260329
-0.00114196
-0.00122121
0.00496645
0.0654275
-0.0460445
0.0118428
-0.0312258
-0.000794193
-0.00264355
0.00145338
0.00198436
-0.0161952
0.0107597
-0.00402847
0.00946399
0.00166588
-0.101536
0.101782
-0.00191117
0.00298626
0.000675064
-0.0103197
0.00665834
0.00977855
-0.0104134
0.00165395
-0.0010191
0.00987326
0.00368423
-0.0105712
0.0373835
0.0559014
-0.0278574
-0.0273161
0.054845
0.0282216
-0.0557505
0.0277208
-0.0550369
-0.000267432
2.24327e-05
-0.0332037
0.0124602
-0.0100351
0.0792177
0.0237234
0.00718173
0.0686797
-0.0539503
0.0974004
-0.11213
0.00472612
0.0924795
-0.0972056
-0.00677056
-0.00678782
0.0131423
0.000416099
-0.0338466
-0.0875725
0.0278127
0.0936064
0.0226632
0.0617443
-0.0253792
-0.0590282
-0.0234023
0.113995
-0.0532091
-0.0419363
0.0449445
0.0518368
-0.0560963
0.0554692
0.000627119
-0.0385436
0.0367237
0.00181989
0.0405319
-0.0796097
0.0730374
-0.0339596
0.0664678
-0.0830176
-0.00936067
-0.00812676
0.0107169
0.000905655
0.000646604
-0.00060826
-0.000943999
-0.00620537
-0.0427239
-0.00716706
0.00127033
0.00139077
-0.0024996
-0.000161503
-0.0572012
0.0515316
0.0859709
-0.0803014
0.0343616
-0.0326586
-0.00170301
0.00873131
0.0230937
-0.0122531
-0.0195719
0.00421876
-0.000541652
0.00221779
-0.0058949
-0.0645456
-0.000629841
0.0205254
0.04465
-0.00282069
0.00673506
0.000304388
0.0404387
-0.110229
0.103821
-0.0340303
0.0455544
0.0140594
-0.0593133
-0.000300593
-0.0035871
0.00693544
0.00155326
-0.0049016
-0.000496207
0.0608676
-0.0603713
0.0369305
0.00621861
0.0145742
-0.0577233
0.00418418
-0.00730918
0.00258334
-0.181848
0.028308
0.1612
-0.00766017
0.0389098
-0.0109764
-0.0279334
-0.0010817
-0.00156334
-0.00120679
0.00385184
-0.0411293
0.0446048
0.124135
-0.127611
-0.0017708
0.000655535
-0.00209067
0.00320593
0.0905057
-0.0021821
-0.0427692
0.000459548
-0.00116629
0.0020484
-0.00134166
-0.018648
-0.116117
0.0158337
0.118931
0.00387372
0.0518401
-0.00381209
-0.0519018
0.0490502
-0.070424
0.0600343
-0.0386605
0.0318316
-0.0365634
0.0487671
-0.0440352
0.0086334
-0.00223852
0.00612167
-0.0125165
0.00113785
-0.0445569
0.0533214
-0.0536255
-0.0362593
0.0968196
0.018199
-0.025138
-0.0898805
0.0475595
0.0178569
-0.135058
0.0696415
-0.00157871
-0.0086087
0.00628685
0.00390056
0.0280423
-0.0502275
-0.00336319
0.0290463
-0.026819
0.00748382
-0.00576927
0.000112098
-0.00182665
-0.0868428
0.00289411
-0.00129318
0.0727288
-0.149911
0.0784754
-0.027079
-0.0869052
0.041434
0.0725502
-0.0719865
0.0210603
0.00229699
0.0486292
-0.0432727
0.0293294
0.0102462
-0.0831669
0.0963733
-0.0132064
-0.020735
-0.00952008
0.117869
-0.0876142
-0.0034798
-0.00393033
0.00605711
0.00135302
-0.0258358
0.0592426
0.0408175
-0.072183
0.0281194
-0.000694446
-0.000409838
-0.000975036
0.00207932
0.0465501
-0.0485048
0.0545955
-0.0378087
-0.00689664
-0.0452346
-0.124167
0.0479283
0.0762387
-0.0429724
-0.0325321
0.0275935
0.00306518
-0.00211322
0.000667226
-0.00161918
0.00260444
-0.000278358
0.0007391
-0.085927
0.00310745
0.0828196
0.0604935
0.0141173
-0.122569
0.0479582
-0.0713845
0.000378705
0.0710058
0.00131419
-0.00184549
0.00833227
-0.00780097
0.0488509
0.154402
-0.224013
0.0207601
0.00175248
-0.00226502
0.00148846
-0.000975922
-0.0916706
0.0652076
0.0261805
0.000282447
-0.00301929
-0.000901227
0.00309093
0.000829586
-0.000756889
0.00837229
-0.00812123
0.000505828
0.00812276
0.00797291
-0.0154962
-0.000599461
0.0411779
0.0119539
0.00298099
-0.00267317
0.00144466
-0.0980406
0.105271
0.00703275
-0.0142629
0.0117397
-0.0668053
-0.0226587
0.0777243
0.00165618
-0.00374422
0.0880181
-0.08593
-0.0425278
-0.0365209
0.0880766
-0.00902785
-0.0408075
0.0246695
0.0404556
-0.0243176
0.0535922
0.0213708
-0.0729325
-0.00203055
-0.00191155
0.000243257
0.00193965
-0.000271357
-0.123685
-0.0429316
0.0399244
0.126692
0.0481801
-0.0377457
-0.0315272
-0.0377288
-0.0312366
0.100493
-0.00192856
0.00426561
0.000311756
-0.00264881
-0.0306948
-0.080058
0.0280329
0.0827199
-0.0296206
-0.0289911
0.020803
-0.000858866
-0.00318292
-0.00167269
0.00336802
-0.00367155
0.00197622
-0.00547403
0.00537856
0.0253216
-0.0772111
-0.0853175
0.137207
-0.000293735
-0.000447416
0.000431416
0.000309735
0.0570994
-0.0605334
0.0474727
-0.0440386
-0.0144861
0.0428954
-0.00725539
-0.0211539
0.0863229
-0.0858462
-0.0187688
0.0182921
0.0261571
0.0226584
-0.0635205
0.014705
-0.127612
0.0742763
0.0185774
0.0347583
-0.00520172
0.00286641
0.000132164
0.00220315
-0.00782774
0.00953274
-0.000390813
-0.0134774
-0.00371792
0.0183847
-0.00118928
-0.0629715
-0.00456453
0.0146994
0.0528365
-0.00953949
0.104043
-0.0057788
-0.0887246
0.00890781
-0.0471148
0.080168
-0.041961
-0.00166518
0.0041614
-0.00170051
-0.000795715
-0.0149096
0.000398569
-0.00236692
0.0168779
-0.107779
0.00478208
0.0123972
0.0905995
9.62285e-05
-0.000314723
0.000669691
-0.000451196
0.0365841
0.00808703
0.0271646
-0.0049013
0.0456119
0.0533422
-0.0940528
-1.69545e-05
0.000772854
-0.000659671
-0.000593268
0.00211521
-0.00142293
-9.90167e-05
0.017335
0.110396
-0.0472475
-0.0804832
-0.000206282
-0.000108441
0.000238643
-0.000444925
0.0619797
0.0170169
-0.0922552
0.0132586
-0.156567
0.0863849
0.0761686
-0.00598674
-0.018281
0.000698096
-0.051873
0.0694559
0.0251587
-0.0149223
0.0172001
-0.0274365
-0.0660236
-0.0237759
0.0897995
-0.0774661
0.0380994
0.0393667
-0.00221468
-0.000240546
0.000211658
0.00224357
-0.0391751
0.0419697
0.00759796
-0.0103925
0.0472551
-0.0549851
0.00772994
-0.0606547
0.0338996
0.0452618
-0.0185068
0.00443469
-0.00237266
-0.00187005
-0.000191981
-0.00316265
-0.00260008
0.000561004
-0.0420111
-0.0423949
0.0460829
0.014455
0.00198444
-0.0625224
0.00225987
-0.000364163
-0.00194099
4.52836e-05
0.00166382
0.00510147
-0.010827
0.00406174
0.00704056
0.021815
-0.0398703
0.0110147
-0.0190545
-0.0157547
-0.00893787
0.0437471
-0.0748052
-0.0103025
0.0299403
0.0551674
-0.00168457
0.0148463
-0.00830078
-0.00486097
-0.0528393
0.000457441
0.0333273
0.000249216
0.0252448
-0.134568
0.126212
-0.0168884
0.0285043
-0.0341626
-0.05141
-0.0271959
0.0549166
-3.30373e-05
0.0395309
0.00322451
-0.0427223
-0.0563868
-0.0598149
0.116202
-0.00304594
-0.00106304
-0.00171989
0.00582886
0.00319236
-0.00468853
0.00169729
-0.000201122
0.0360849
-0.00534525
-0.0283918
-0.00234783
-0.00315382
-0.00226209
0.00236998
0.0039931
-0.0121435
0.0672298
-0.0590794
0.0757435
8.45818e-05
0.0278751
0.0092163
-0.0062145
-0.0308769
0.0588155
-0.00030908
-0.0585064
-0.0531515
0.11314
-0.0285407
0.0598979
0.0201698
-0.051527
-0.0151401
-0.0247749
0.0162574
0.0236575
0.00327159
0.00365348
0.000739544
-0.00766462
-0.0335199
-0.038537
0.0992393
-0.0271824
0.0434908
-0.0353706
-7.20914e-05
-0.00804807
-0.0517636
0.114855
-0.0493113
-0.0137806
-0.00153376
0.00182132
-0.000199842
-8.77142e-05
-0.00104256
0.0216704
-0.00407981
-0.0165481
0.00279531
0.00392004
3.28496e-05
-0.00674819
-0.000246041
-3.8226e-05
-4.22887e-05
0.000326556
3.26821e-05
7.26853e-05
-0.000351409
-0.00885724
0.0220827
0.0705098
-0.0837352
0.0807456
-0.0799848
-0.000760796
0.000310521
-0.000371994
6.14724e-05
-0.0128387
0.000953523
0.00222803
-0.00140663
-0.00177493
-0.00781511
-0.00580992
0.00405059
0.00957444
-0.0557715
0.0272308
0.00021547
0.000308066
-0.000806092
0.000282556
0.0343017
0.0542461
-0.0342914
-0.0542564
0.0133957
0.157089
-0.179664
0.00917976
0.0583819
0.063786
-0.0622701
0.00196837
-0.0130044
-0.00177192
0.012808
-0.0332575
-0.0300342
0.0632917
0.0312446
-0.0645021
-0.0545652
-0.0447506
-0.0650484
0.164364
0.050408
-0.0563701
0.00596217
-0.073179
0.134727
-0.0712958
0.0328415
-0.0302196
0.0853704
-0.00401061
-0.0685249
-0.0128349
0.069984
-0.071101
0.0108927
-0.00977568
-0.000210297
-0.00599646
0.00744642
-0.00123967
0.00242287
-0.00577264
0.00629461
-0.00294484
-0.000192609
0.000106648
0.000774305
-0.000688344
0.0221457
0.0226095
-0.0337125
-0.0110427
-0.00513087
-0.00534062
0.00612951
0.00434198
-0.011362
0.0322608
-0.0425966
0.0216978
0.000914437
-0.0084538
0.0109806
-0.00344126
0.0499156
-0.00440845
-0.0455071
0.0382605
0.0352848
-0.12657
0.0530252
-0.0980558
0.0600428
0.0762735
0.0329896
-0.0998008
-0.0466822
0.108338
-0.0377673
-0.0238888
0.00183384
0.00883765
-0.0123116
0.00164008
0.0281541
-0.00325824
-0.0248959
-0.0304543
0.0438148
-0.00356039
0.0197737
-0.0314828
0.00119063
-5.33411e-05
0.000926585
-0.00206387
0.0118804
-0.0386994
-0.00112743
0.000172985
0.000218262
0.000736188
0.00265586
-0.000271975
0.000965363
-0.00334925
-0.000895722
-0.00236703
-0.0776661
-0.0137718
0.00158167
-0.0114886
0.0236787
0.0202224
-0.0907829
0.0210875
0.049473
-0.00324962
0.057986
-0.0821689
0.0274325
0.00107494
-0.000759748
0.00110209
-0.00141729
0.0787672
0.0124956
0.00214378
-0.0934066
-0.000939912
-0.000757045
0.00200359
-0.000306637
0.00428334
0.00049399
-0.0698519
0.0650745
0.00641033
-0.000910212
-0.00471894
-0.000781174
0.00629272
0.00441418
-0.00347947
-0.00722743
-0.111343
0.0971921
-0.0879007
0.102051
-0.055302
0.10986
-0.0545585
0.00265056
-0.0446059
0.0092768
0.0326786
0.00351862
-0.00363139
0.000828759
-0.000715987
0.048947
-0.00309739
0.0015379
-0.129141
0.00269639
0.0732929
-0.0333642
-0.000130671
0.00157804
0.0306059
-0.0251336
-0.00705041
0.0781002
-0.0306324
0.0341492
0.00394064
-0.00490954
0.000204938
0.00076396
0.0335303
0.0230751
-0.0738181
0.0172126
-0.000316594
-3.66118e-05
0.000449641
-9.64347e-05
-0.000390926
0.00145996
0.00522368
0.000166087
-0.00777507
0.00617134
0.00554437
0.0747184
0.0408116
-0.0371032
-0.0784268
-0.131771
0.141038
-0.00836787
-0.00089893
0.0313675
-0.032014
0.000646446
-0.0359798
-0.000134032
0.000293372
-0.00301499
-0.00218792
0.0148869
0.206621
-0.158609
-0.0628996
0.0287612
-0.0604398
-0.0174836
0.0491622
-0.00306751
0.0391363
-0.00082115
-0.085728
0.0474129
-0.0227173
0.00981262
-0.0380461
0.0476225
0.0463039
-0.0558803
-0.0667583
0.0892468
-0.152097
0.129609
-0.00014131
0.000136573
-0.00145868
0.00146342
0.000240581
0.00218456
-0.000691669
-0.00173348
0.0446676
-0.0156643
0.0398992
-0.0689025
-0.00348941
0.000392461
0.00321943
-0.000122478
-0.0118328
0.0107968
-0.0370101
0.0121732
-0.0462736
0.0057662
-0.00300613
0.0180389
-0.0207989
-0.133421
0.0167095
0.126933
-0.0102221
0.0390243
-0.0258676
-0.0181471
0.00499037
0.0345133
-0.0532403
0.00689423
0.00475766
0.00771348
0.0514048
-0.0638759
0.0249606
-0.00710199
-0.0249658
0.00710722
-0.0792041
-0.00791776
0.0146248
0.00120649
-0.000982662
1.67565e-05
-0.00184792
0.00342944
0.00139882
-0.00298035
0.0185204
-0.0321861
0.0386263
0.0175696
-0.143629
-0.0222356
0.148296
-0.111923
-0.0153419
0.026036
0.101229
0.0573896
-0.0354095
0.0289588
-0.0509389
0.109956
-0.00633366
0.00451494
-0.108137
-0.0173153
-0.0373509
-0.00412032
-0.0157346
0.00768436
0.0121706
-0.00134872
0.000507552
0.000119166
0.000722006
0.0151172
-0.0770501
0.0619329
0.107942
-0.00751367
-0.112388
-0.026678
0.0555402
-0.0461775
0.0399431
-0.122225
0.0141943
0.0680878
-0.00433605
-0.0121299
-0.0274108
0.0438768
0.00280414
0.0491946
0.0825735
-0.130327
-0.00144069
0.0494849
-0.0831496
0.0893221
-0.0556574
-0.0966549
0.0953444
-0.00645397
0.00776447
0.00157986
0.00387408
-0.0942255
0.0887716
-0.00150593
0.00357045
0.00588016
-0.00794469
0.000153237
-0.000873334
-0.000241657
0.000961754
0.0880025
0.000855421
-0.017774
-0.071084
-0.00069312
0.000826835
-0.000447702
0.000313987
0.000909468