/*--------------------------------*- C++ -*----------------------------------*\
| =========                 |                                                 |
| \\      /  F ield         | OpenFOAM: The Open Source CFD Toolbox           |
|  \\    /   O peration     | Version:  2506                                  |
|   \\  /    A nd           | Website:  www.openfoam.com                      |
|    \\/     M anipulation  |                                                 |
\*---------------------------------------------------------------------------*/
FoamFile
{
    version     2.0;
    format      ascii;
    arch        "LSB;label=32;scalar=64";
    class       volVectorField;
    location    "0.0292463";
    object      U;
}
// * * * * * * * * * * * * * * * * * * * * * * * * * * * * * * * * * * * * * //

dimensions      [0 1 -1 0 0 0 0];

internalField   nonuniform List<vector> 
47425
(
(10.1028 0.0688553 -0.0347762)
(10.0411 -0.0584351 -0.0523754)
(10.0222 -0.0504693 0.0451759)
(11.101 -0.438568 -0.182012)
(11.9715 0.704294 0.665117)
(10.0969 -0.0322866 0.0076979)
(11.8963 0.521849 0.618888)
(10.1082 -0.0103328 0.00953178)
(10.0222 0.00608829 -0.00752407)
(4.62514 6.68579 -0.624443)
(10.0721 0.000202668 0.00383267)
(9.92259 0.222893 0.0346478)
(11.762 0.488507 0.172513)
(10.0201 -0.023277 0.0551016)
(10.5195 0.458398 -0.105434)
(9.86311 -0.126178 -0.00745711)
(10.0286 -0.0343621 0.0627773)
(8.63491 -0.458526 -1.26245)
(8.50368 1.07719 -4.59818)
(12.9218 -0.493738 -0.944902)
(10.6419 -0.58205 -0.446955)
(9.74235 -0.0531229 0.0275672)
(10.0172 0.0938708 0.00886778)
(10.0812 -0.0300006 0.108587)
(9.9587 -0.166864 0.0880158)
(9.98185 0.0284713 -0.0180238)
(9.97279 0.0500062 0.0227359)
(11.1766 -0.266138 -8.10803)
(10.0019 0.0376541 0.02988)
(10.0717 -0.0255917 -0.0269343)
(9.70403 0.682107 0.131169)
(9.95075 -0.00552499 0.0315068)
(10.0181 -0.042014 -0.0189942)
(9.96637 -0.0276542 -0.00851152)
(10.0058 -0.111703 -0.0516055)
(10.1226 -0.013748 -0.0430859)
(9.71671 -0.0831536 -0.0134182)
(9.98735 0.0344355 0.0088015)
(10.5158 0.279476 -0.0188348)
(10.015 0.0106641 0.00541812)
(9.88846 0.103552 0.0114704)
(9.30679 0.24475 -0.415206)
(8.36042 -0.685063 -0.0606573)
(9.99696 0.0233167 0.0123743)
(0.191738 -0.268592 1.31469)
(10.1416 -0.0435796 0.00711749)
(9.98121 -0.033568 -0.0899671)
(10.0001 0.0816247 -0.0136937)
(10.0233 -0.0435974 0.0116961)
(10.0111 -0.018328 -0.0455645)
(1.98332 -0.619068 -5.34436)
(9.25317 0.953083 1.22322)
(10.0331 0.00212221 0.0373321)
(6.96064 -6.16256 2.89716)
(9.99091 0.0293514 -0.0099898)
(10.1864 0.0818385 -0.0887106)
(10.0996 -0.0719887 -0.0519572)
(10.0648 0.0487879 0.0327329)
(12.6952 0.764793 1.09164)
(10.0231 0.00331347 0.0162062)
(5.03846 -6.02752 2.33861)
(5.1111 0.270986 2.53927)
(6.41943 -7.16655 1.58922)
(9.09729 -1.09394 0.120011)
(10.006 0.00788262 -0.00248696)
(10.5895 -0.198308 0.117215)
(10.0354 -0.0175375 -0.00156795)
(10.5319 0.191305 0.473571)
(8.54418 -6.73751 3.17358)
(9.10111 0.574737 0.435993)
(10.8164 -0.31492 0.211615)
(9.98449 0.0431125 0.049926)
(10.643 0.0161774 0.0275531)
(10.602 0.274128 -0.549009)
(6.84393 4.81045 1.47449)
(9.9934 -0.0157487 0.0244122)
(7.05372 -6.99415 2.46925)
(10.0045 -0.0087098 0.0141467)
(8.3656 -5.93169 2.94199)
(11.4564 0.439455 1.74872)
(7.3089 4.0321 1.56829)
(10.171 0.248249 0.0926171)
(9.29147 0.108492 -0.113815)
(10.0066 0.110756 0.0238177)
(9.89234 0.0205324 -0.0687082)
(10.0498 -0.0457899 0.073936)
(10.4461 -0.168429 -0.0122676)
(10.1255 0.0704101 -0.000753151)
(10.2602 0.999904 -1.49297)
(10.6524 0.00789137 2.56049)
(9.74604 0.439374 0.101832)
(10.5099 -0.0664109 0.0322933)
(10.0775 0.0502601 0.0398389)
(9.99215 -0.0232252 -0.00118883)
(9.95858 -0.0671831 -0.0121619)
(10.0109 0.00295191 -0.0122281)
(10.0442 0.0127178 -0.0532904)
(10.1307 -0.269378 -0.0648704)
(10.0682 -0.0796389 0.104012)
(9.87341 0.0700755 0.0100973)
(10.1628 0.022479 -0.0808282)
(8.57944 0.0866345 -3.65981)
(10.2332 0.160116 0.0748898)
(5.42829 1.9269 -0.388389)
(10.2633 0.030486 0.0563461)
(10.1954 -0.576307 0.12245)
(10.0542 0.0620955 0.0163505)
(9.95725 -0.0413644 0.118132)
(9.81243 -0.0257065 -0.00364937)
(9.89968 0.176074 0.0505812)
(-4.16478 -1.80074 0.539629)
(10.1207 -0.0651523 0.00517997)
(10.1108 -0.749684 0.224514)
(10.1484 -0.00321412 0.0264033)
(10.5429 -0.456316 0.139319)
(1.74948 -4.16175 -5.29652)
(10.5398 -0.426793 0.103091)
(4.09657 0.090137 -3.81048)
(10.2606 0.138728 0.0146614)
(10.7119 0.272137 0.445399)
(10.188 0.0105924 -0.0135025)
(10.0036 -0.0216082 -0.00105458)
(9.99996 0.0545343 0.0532752)
(11.4635 0.829115 -0.625331)
(10.0663 0.0269473 0.00918212)
(10.3412 -0.799448 0.266608)
(9.99406 -0.07211 0.0263017)
(9.99867 0.00270433 -0.00595727)
(9.92755 -0.0378643 -0.0243831)
(10.0446 0.0146598 0.0236137)
(9.36486 -0.174447 0.451609)
(9.98352 0.285115 -0.0365761)
(4.39778 0.0293639 1.0752)
(10.467 -0.32697 0.0734459)
(9.59464 -0.216481 -0.289919)
(11.6437 -0.493166 -0.751444)
(10.9248 0.573096 0.274645)
(10.3794 -0.797731 0.394627)
(10.1358 -0.0434957 -0.00271116)
(10.7549 0.217561 -0.0618661)
(10.0829 -0.0893198 -0.0342984)
(12.2008 -0.0548152 -0.0944123)
(10.4244 0.0209743 -0.0998456)
(10.1524 -1.08106 0.391764)
(10.0929 0.217236 -0.0264747)
(10.013 0.00570575 0.000119596)
(11.7839 0.0680164 0.795685)
(10.1219 0.0220618 -0.0863489)
(10.3679 -0.0122122 -0.0488477)
(10.0011 0.00485802 -0.0287468)
(10.0648 -1.08907 0.259824)
(2.98673 -0.384629 -6.27408)
(10.0415 0.040371 0.0343926)
(5.66539 0.129727 -10.7983)
(8.90415 -1.08085 -0.491574)
(9.99096 -0.00426605 -0.015546)
(10.6744 0.362819 -1.48849)
(7.3939 -3.59279 -2.35893)
(9.93803 0.0447991 -0.0808468)
(9.89538 -0.01911 0.0255071)
(10.776 -0.39621 0.182065)
(9.94832 0.109519 -0.0590856)
(10.0456 -0.00856536 0.0256294)
(10.0734 0.24964 -0.0353874)
(11.7724 0.094491 -0.324535)
(1.16243 -1.82803 -1.94199)
(9.89984 -0.0340401 -0.0819368)
(7.30782 4.51905 1.43649)
(9.98914 -0.032306 0.00919446)
(11.876 0.532822 -3.80649)
(8.42689 3.84041 1.11845)
(10.1273 -0.019127 -0.0137799)
(10.0619 0.0460536 0.0108155)
(9.33261 -0.905895 -0.459883)
(10.1331 0.0650349 -0.0510219)
(9.2869 -2.87977 -0.99634)
(2.76442 0.79484 -6.94825)
(9.99421 0.0321873 0.0175256)
(10.0559 0.0300626 0.0384989)
(10.0388 -0.060642 0.000860404)
(2.55366 0.285649 -10.2626)
(9.99336 -0.0348492 -0.0173761)
(10.0268 0.029008 0.0257238)
(9.91789 -0.0361329 0.0204372)
(9.98702 -0.0685845 -0.0312426)
(10.0727 -0.0662057 -0.0696317)
(10.1451 -0.00666023 -0.0633266)
(5.59237 -0.390148 -0.20464)
(9.95728 -0.0279017 -0.0725945)
(10.0717 0.0514865 -0.0140431)
(10.0072 -0.000269811 0.027534)
(10.0343 -0.0832254 0.0233832)
(11.7054 0.418762 -1.19634)
(10.0047 0.0123451 0.00672024)
(9.91717 -0.025896 0.0105663)
(10.7997 -0.211446 0.0640144)
(10.0163 0.00039984 -0.00285721)
(10.0007 -0.0159001 -0.0560018)
(10.9566 -0.196995 0.136342)
(10.1203 -0.149297 0.0445101)
(10.0602 -0.03542 0.0279711)
(10.2496 -0.110096 0.00412874)
(9.90779 0.0484307 0.0591325)
(10.7196 -0.295158 0.0622977)
(10.1653 -1.32715 -0.746425)
(10.4177 -0.0162744 0.083647)
(10.0189 0.0111123 0.0452801)
(10.7303 -0.229556 0.0509823)
(10.0213 0.199958 -0.0659275)
(9.97998 0.0489351 -0.0118574)
(10.1198 -0.0962 -0.0690978)
(10.8618 0.0688645 0.0837187)
(10.0112 0.120889 -0.00980761)
(10.0741 -0.0957879 0.0205335)
(10.3921 -0.0203296 -0.00096351)
(10.9551 -0.31009 -0.161946)
(10.5868 0.0189371 -0.00317698)
(10.2564 0.393864 1.00965)
(8.67748 -1.1948 -0.404172)
(10.0713 -0.0289446 0.0121005)
(11.3996 -0.0578736 2.13499)
(10.8163 0.0712524 0.135693)
(9.55132 -1.01232 -0.401039)
(10.5693 -0.025037 0.0401424)
(10.4156 -0.00987466 0.108817)
(11.4415 -0.336759 2.08435)
(10.075 -0.0453972 0.0384949)
(10.8454 -0.259593 -0.0756423)
(10.9744 0.496269 0.322067)
(11.468 0.72741 -0.21156)
(10.609 -0.000516317 -0.0213714)
(9.93309 -0.00611612 0.0773183)
(10.2038 -0.0813888 0.0116717)
(10.0051 0.00640618 0.0077709)
(10.0507 0.0361896 0.00709795)
(9.92975 0.165198 0.00318865)
(11.305 0.586222 1.83941)
(9.91256 0.0324249 -0.025845)
(11.5946 0.559205 1.64805)
(10.0291 -0.00601184 0.0220723)
(9.93963 0.0222996 0.0588752)
(9.98711 -0.00856344 -0.0279637)
(9.98582 0.0119092 0.0167168)
(11.5882 0.186846 -0.148418)
(10.3816 0.294028 0.0370843)
(9.97982 -0.0254451 0.0292103)
(10.1949 -0.0244246 0.0284929)
(9.93265 -0.0217957 0.03557)
(10.0071 0.026203 -0.0583425)
(9.89475 0.0729876 -0.0156865)
(9.98433 -0.000623379 0.0597842)
(11.4222 0.0785561 1.82636)
(10.1273 -0.0104983 -0.0462139)
(10.0013 -0.0135167 0.00648566)
(9.98476 -0.0751449 0.0261129)
(9.9525 -0.022634 0.053371)
(9.87074 0.0576287 0.0829732)
(10.0362 -0.0769526 -0.0809194)
(10.559 -0.440958 0.156259)
(10.0305 0.00492347 0.00610739)
(9.94094 -0.0391257 -0.0927046)
(9.9817 -0.0404451 -0.0212739)
(10.0317 0.0872991 -0.0659025)
(10.2756 0.0253561 -0.0344445)
(11.3742 0.280525 0.659582)
(9.85471 -0.326197 -0.057608)
(9.92294 0.0275413 0.0135326)
(11.443 0.290407 0.520111)
(9.88953 0.00294448 0.0520889)
(10.1893 0.148493 -0.0785099)
(10.0471 0.0830981 -0.0387441)
(11.6396 0.673373 1.30821)
(11.1358 0.71401 1.52138)
(10.2355 -0.104564 -0.00226291)
(11.496 0.3809 1.64027)
(10.2042 0.0397663 0.0296436)
(11.5574 0.526051 1.47652)
(6.98857 3.22214 2.61267)
(11.1024 0.60866 1.59855)
(5.80917 1.19446 -4.73831)
(4.12531 -5.80237 2.08095)
(10.1237 0.0462984 -0.023947)
(4.00061 -6.25323 1.351)
(9.88182 0.102665 -0.0410884)
(9.98444 -0.0351657 -0.106003)
(10.9581 -0.171069 0.107417)
(9.93027 0.0485616 -0.0254142)
(9.99598 -0.057001 0.0279249)
(9.88585 0.0494628 0.030303)
(10.4756 -0.598845 0.0502578)
(1.38804 1.69426 -3.08095)
(9.2189 0.711759 0.168498)
(10.003 -0.000980822 -0.00227131)
(9.88865 0.0315972 0.0287571)
(9.9961 -0.0825636 0.0434996)
(10.7857 0.160645 0.445848)
(11.719 0.313643 -0.00679481)
(10.1986 -0.501705 0.193042)
(10.0533 -0.0955335 -0.0501019)
(11.4875 -0.000181472 0.446179)
(9.91451 0.0956701 -0.0120056)
(10.1433 -0.00450103 0.0999717)
(9.99646 -0.108243 0.000919772)
(10.0085 -0.0903199 0.0574327)
(12.5377 3.60256 0.240619)
(7.35977 1.48975 0.771225)
(1.45387 1.12886 -5.81993)
(9.88117 -0.0142178 0.0187528)
(10.0402 -0.0516497 -0.0431298)
(10.0066 -0.57381 0.051153)
(10.045 -0.449864 -0.0898364)
(1.13035 -0.620653 -5.32392)
(10.0218 -0.0163824 -0.0219868)
(10.0284 -0.0220776 -0.02451)
(10.6967 2.63228 1.62205)
(9.99958 -0.0195169 -0.0959317)
(9.94635 0.0390878 -0.0376457)
(9.85633 0.0979914 -0.0565988)
(9.91299 0.0390351 0.0179297)
(13.6033 1.22939 -0.13874)
(10.9355 2.34114 1.53221)
(10.0749 0.153483 0.0888515)
(10.197 0.104069 -0.0565877)
(10.0116 0.0595677 -0.107949)
(10.1346 -0.0760805 -0.0644134)
(10.0573 0.0419026 -0.0517745)
(9.92774 0.101652 0.0526676)
(10.0087 0.0749577 -0.0396295)
(10.0239 -0.0426328 -0.0515657)
(10.022 0.000718506 -0.0796391)
(11.0434 0.0725305 0.320401)
(11.9891 -1.74674 1.1553)
(10.3106 -0.684632 -1.09206)
(9.98312 0.0366282 0.0358295)
(9.95368 0.0124946 -0.00686083)
(9.94416 0.00953624 0.0334976)
(12.0247 -1.12259 1.24615)
(9.91514 0.0592972 -0.157211)
(10.0701 -0.0335821 -0.0350464)
(9.96087 -0.0588086 -0.0127914)
(10.061 0.223257 0.0670589)
(10.0326 0.217379 0.0277241)
(10.0855 -0.0113943 0.0474617)
(9.81456 0.173722 -0.0438105)
(10.0815 -0.0153121 0.0346218)
(9.86989 0.00276834 -0.0705957)
(10.0964 0.00152319 0.051113)
(9.65864 0.373168 -0.0621449)
(9.98368 0.0799575 -0.0215959)
(9.96553 -0.0313775 0.00567617)
(10.0249 0.20762 0.0592222)
(10.3859 -0.397092 -0.0244695)
(10.0369 0.197509 0.0380436)
(9.87797 0.108679 0.0057644)
(10.0401 0.204144 0.114001)
(11.1861 -0.957349 0.0365301)
(10.0321 -0.00906762 -0.062252)
(9.38243 0.243516 0.222965)
(9.93642 0.165635 0.0262108)
(10.0622 0.0664785 0.0122969)
(10.204 0.1821 2.05711)
(10.8944 -0.615196 -0.446229)
(10.0433 -0.0288814 0.047324)
(9.97171 0.0355868 -0.0461831)
(10.3491 -0.275293 0.0934531)
(10.2378 0.334593 -0.0253736)
(9.9275 0.0037848 -0.00390655)
(10.0355 0.0149296 0.0515085)
(10.0354 -0.0929955 -0.028259)
(10.1345 0.661114 -0.0874469)
(9.95053 0.00238722 -0.0314064)
(-1.31426 -0.543454 0.11845)
(10.4149 -0.0754038 0.0610891)
(10.0871 0.817 -0.0367984)
(9.98253 -0.0178372 0.00683475)
(10.0701 0.720715 -0.0357426)
(9.80761 -0.214651 -0.489724)
(9.96603 -0.0717857 0.0249019)
(10.0032 0.00139756 -0.000341989)
(9.74885 -0.0869198 -0.00168162)
(10.0152 -0.00733588 0.000920529)
(10.0321 0.775152 -0.0715914)
(10.1746 -0.036998 0.0209847)
(10.054 0.0362253 -0.0259325)
(9.97828 -0.0982969 0.0183886)
(10.0192 0.0298867 -0.00159829)
(9.96588 0.0914435 0.00909263)
(10.1004 0.184215 0.0549223)
(10.0578 -0.0548045 -0.0335371)
(9.99637 0.0129075 -0.00738631)
(10.4302 0.824094 -0.212703)
(10.2953 1.02526 -0.243797)
(10.0932 -0.00215904 0.0254675)
(10.4932 -0.296847 0.114736)
(10.0003 -0.0388542 -0.0829381)
(10.3587 0.769563 -0.191825)
(10.0022 -0.0113282 0.0304605)
(9.91542 0.0270446 -0.0022107)
(11.8558 -0.424184 -0.689125)
(9.94983 0.0126454 0.0538472)
(10.362 -0.953399 1.72387)
(9.98521 -0.0687979 0.00614903)
(11.2649 -0.888176 -3.71832)
(9.9644 -0.0420142 0.0170534)
(10.5032 0.140596 -0.00870202)
(9.94535 0.0323948 -0.0737637)
(9.99867 -0.0579006 -0.0574668)
(9.81314 -0.020182 0.0401961)
(10.0883 0.0135527 -0.026154)
(10.0255 0.0491253 -0.107649)
(10.2821 0.910446 -0.183337)
(2.19037 -1.87959 2.2169)
(2.20191 -0.469399 -2.19952)
(10.0709 0.0320769 0.0532234)
(10.2703 1.43958 -0.69487)
(10.583 0.678588 -0.308049)
(10.6723 0.636452 -0.295676)
(9.98822 0.0137816 0.0433223)
(10.0025 -0.0675012 0.0024538)
(9.97328 -0.0195847 -0.0132524)
(9.95257 0.0605829 -0.0153384)
(9.99022 -0.0637586 0.0101406)
(10.1433 -0.0906965 -0.0188443)
(10.655 0.587673 -0.176102)
(9.96674 -0.0192165 0.0259776)
(10.0249 0.00482333 -0.0380805)
(10.8414 -1.32018 0.567148)
(11.2339 0.531886 -0.179019)
(10.884 0.524853 -0.0113915)
(8.01412 -1.26641 -4.60487)
(0.00798719 5.94099 0.582678)
(10.2657 -0.21957 0.0478111)
(7.38449 -0.936752 -5.08639)
(0.0880422 5.62143 0.879682)
(9.9407 -0.0524118 0.02088)
(-0.0828017 6.003 0.752119)
(8.80818 -1.98001 1.58412)
(10.0118 0.0965268 -0.0416172)
(10.8629 0.629203 -0.305019)
(10.8248 0.662704 -0.334963)
(11.06 0.588513 -0.311656)
(-0.911631 5.62865 0.962386)
(10.1188 0.118212 -0.0361454)
(9.99192 0.019866 -0.0403764)
(10.0194 -0.0914235 0.0286374)
(11.1121 0.615274 -0.424823)
(11.0071 0.642621 -0.484955)
(10.033 0.0214062 0.00810674)
(10.065 0.0488827 0.0120496)
(9.9095 3.79994 3.30069)
(-0.904917 5.32513 0.808751)
(12.4789 -0.321906 -2.7717)
(10.0227 0.0158626 0.000550328)
(8.6522 -0.714971 -2.91943)
(10.2197 0.181169 0.806568)
(9.99697 -0.0114999 0.0237449)
(10.7234 0.300161 0.0232171)
(11.6038 0.424755 0.285631)
(10.7041 0.182236 0.0324091)
(10.0421 0.0304807 -0.00192895)
(10.0034 -0.00171416 0.00737174)
(9.98354 0.00218307 0.000154793)
(10.4505 0.294715 -0.0162868)
(9.99719 0.00286321 0.00065102)
(9.99333 -0.0162068 0.0671641)
(10.0373 0.108507 0.01021)
(9.94298 0.0361065 -0.0296328)
(10.8432 0.0677542 0.0677229)
(10.0419 -0.0609198 -0.034145)
(10.0782 -0.0506489 -0.029477)
(10.0521 0.0234315 -0.0102409)
(10.0147 -0.00388071 0.000256182)
(9.94471 -0.115466 0.0113646)
(10.3779 0.224782 -0.0416841)
(10.2086 -0.00820257 -0.0866136)
(9.93854 0.00746826 0.0227606)
(10.781 0.0737114 0.0427318)
(9.40446 4.60158 2.75475)
(9.97308 -0.111588 0.0395488)
(11.7165 1.65253 -1.18583)
(10.0065 -0.0223592 -0.0341864)
(10.5342 -0.246811 -0.00579598)
(8.06368 -0.339961 1.00405)
(9.74915 1.37609 -0.432023)
(9.99435 0.00107673 -0.0563388)
(9.82739 1.44404 -0.481442)
(10.0325 -0.00569479 -0.141207)
(10.031 0.0127954 0.0960478)
(9.99802 1.2617 -0.753884)
(9.96633 0.0192886 -0.115337)
(10.3858 -0.173222 0.00913131)
(9.89319 1.14837 -0.489732)
(10.1799 -0.0895347 0.0696649)
(10.3918 -0.0186524 -0.251882)
(8.09552 0.269002 -3.737)
(10.0137 0.0404069 -0.0203233)
(9.6665 1.78159 -0.390925)
(9.97813 -0.0382305 -0.0039348)
(9.05047 1.95795 -0.797747)
(10.0606 -0.116957 0.0175385)
(9.93668 -0.0599017 -0.00380931)
(9.98327 0.0574256 -0.0292015)
(9.99526 -0.00716427 -0.0396415)
(10.9883 0.570555 0.777564)
(9.99521 0.0134313 -0.0461355)
(9.98248 0.00998089 -0.0253626)
(10.0464 -0.00259534 0.0404443)
(10.0235 0.0135264 0.00303233)
(11.0167 0.33113 0.0955264)
(10.1133 -0.0392501 0.0120178)
(10.1132 -0.00701401 0.00906018)
(8.71079 0.26672 -0.40524)
(9.99564 -0.00971674 0.0537542)
(9.88445 0.0314518 0.0315343)
(9.9925 -0.0924509 0.0480245)
(9.97657 -0.0817035 -0.085707)
(10.0858 -0.0725395 -0.00417454)
(10.046 -0.0160503 0.0264968)
(10.1025 0.0312849 -0.0411838)
(10.2291 1.30597 -0.907348)
(10.0319 0.0112407 -0.00154936)
(9.98336 0.00142658 -0.00835145)
(2.85263 -0.303083 -5.32419)
(10.0146 0.0644843 0.0233362)
(10.0369 0.0580916 -0.0176574)
(10.0343 0.114032 0.00473518)
(10.0134 0.0128585 -0.00471524)
(12.4685 1.10697 -0.0153756)
(12.5545 0.736008 0.301612)
(9.95555 -0.0885575 -0.00511865)
(9.88444 -0.0406029 0.0746762)
(9.96216 0.0109116 -0.0234492)
(11.1069 -0.263574 0.993236)
(9.90658 0.0550107 0.0449955)
(12.4877 1.41234 -0.0926342)
(9.98775 -0.0304621 0.00902024)
(-0.193087 -2.36247 3.34798)
(8.10023 -0.419361 -0.45941)
(9.51347 -0.696333 2.06543)
(10.0193 0.0455875 -0.0337527)
(12.4312 1.29244 -0.0136131)
(10.0205 -0.00704596 -0.047765)
(10.0788 0.0507865 -0.00510905)
(10.0669 0.0213238 -0.018606)
(9.96011 0.00549055 0.0709466)
(10.0248 -0.00534018 -0.0311395)
(10.0933 -0.045647 -0.017978)
(8.48494 -0.493941 0.652591)
(9.97932 0.00437469 0.00849989)
(9.91016 0.100415 -0.00900053)
(9.99364 -0.0405278 -0.0244519)
(12.417 1.04635 0.0273993)
(10.0279 -0.055109 0.0288066)
(10.0586 0.0515332 0.00504201)
(12.2285 1.13473 -0.0796822)
(12.1008 0.40285 0.239992)
(9.98977 0.0835744 0.0228973)
(10.0296 -0.00634937 0.00113861)
(-0.457539 1.81028 1.29082)
(9.98733 0.0610857 -0.047478)
(10.34 -0.288716 0.10625)
(9.95271 0.0516587 0.0224556)
(10.044 0.077983 0.048041)
(10.0657 -0.00893931 0.00327068)
(11.8216 0.53489 0.0154427)
(10.9475 -0.167952 1.18785)
(9.42201 0.57955 0.959772)
(10.0141 0.0283532 0.0533181)
(10.0381 0.0477675 -0.0141675)
(9.96551 0.0356816 -0.0102974)
(12.5516 -0.292087 1.0225)
(9.33407 0.132419 -0.308843)
(9.91064 -0.0309748 -0.0674871)
(-0.284978 1.73323 0.97656)
(9.95939 0.00195644 0.0885797)
(10.0241 -0.00685914 0.0418989)
(-1.36924 1.71268 1.45794)
(11.8128 2.083 -1.01937)
(9.8179 0.13438 0.0254567)
(0.0878214 1.82731 0.662926)
(-0.0527465 2.00503 1.18877)
(10.0193 0.0351526 0.0170789)
(9.96293 -0.0347399 0.0201399)
(10.0373 -0.0181716 -0.0708084)
(9.7423 -0.356376 0.0800963)
(9.99473 -0.0129031 0.0407236)
(9.89201 0.0360005 0.00432274)
(12.2582 2.35622 0.787473)
(10.1575 0.219369 0.16139)
(10.0335 0.121699 -0.0314429)
(10.092 0.0146368 -0.0139031)
(12.4565 0.254964 0.249146)
(11.7618 0.863338 0.0114483)
(10.0369 -0.0956404 -0.0560519)
(10.2159 0.287935 -0.140916)
(-4.74182 -2.26148 -0.696544)
(4.14318 -1.51399 -2.96569)
(10.5907 0.291277 -0.191306)
(9.95547 0.0107915 0.0457944)
(10.2092 -0.173324 0.154707)
(10.7431 -0.159666 -0.642649)
(9.94468 0.0378012 -0.0758501)
(9.91776 0.0962091 -0.0662091)
(10.0184 -0.0558981 -0.0968188)
(10.2252 0.158497 -0.014115)
(9.98731 0.00461425 0.000496197)
(10.5602 0.199984 0.24679)
(10.081 -0.0252433 0.0898967)
(12.5238 1.0369 -0.558685)
(10.2342 1.49014 -0.953717)
(10.5042 0.220447 -0.16744)
(12.5771 1.21916 -0.847381)
(10.2842 0.0384675 -0.128472)
(9.9595 -0.0293526 -0.110485)
(10.5668 0.609517 0.161148)
(10.2512 -0.00763902 0.0280569)
(9.97144 0.0349543 0.0108463)
(10.0409 0.0112271 -0.00464712)
(10.4792 0.793341 -0.37571)
(7.92633 -0.676023 -1.1051)
(10.0333 0.00914866 0.0580746)
(10.5973 0.239953 0.0986983)
(9.99741 0.010412 0.045847)
(13.0403 -5.33113 -1.44569)
(10.6942 -0.557578 0.917895)
(11.2967 -0.224995 0.62299)
(6.0961 1.55508 0.411826)
(5.98452 1.55624 0.281456)
(10.0409 -0.0430733 -0.0280002)
(9.91045 0.12098 0.0871775)
(5.23047 1.35611 -0.161783)
(10.0602 0.000724319 0.00166531)
(9.79651 -1.69217 -3.06105)
(7.99312 0.296153 1.02206)
(9.98189 0.000884343 -0.024822)
(9.81658 1.68098 0.967192)
(10.0665 -0.106654 0.00759633)
(10.0061 0.066954 -0.00866392)
(10.0549 -0.0154114 0.0419118)
(12.7264 0.363469 -0.106115)
(9.9592 0.00108738 -0.0130316)
(9.98371 -0.0155774 -0.00922156)
(10.0171 -0.00724802 -0.014137)
(9.96467 0.0178036 -0.0281034)
(10.0287 0.0235894 0.0074601)
(10.018 -0.0256926 0.0397972)
(10.0115 -0.0276124 0.0649751)
(10.0134 0.0487007 -0.0508733)
(11.212 0.581207 0.492226)
(10.3514 1.7185 -3.52666)
(13.8891 2.66512 0.753009)
(10.6717 0.286308 0.0194147)
(9.97064 1.10879 1.42683)
(10.0299 -0.0311451 -0.0839521)
(9.41699 -0.859347 0.209677)
(10.2426 0.0219486 -0.0296866)
(10.003 -0.00889734 0.0143231)
(10.0226 -0.00221333 -0.00637676)
(10.0105 -0.00540873 -0.0169437)
(10.0059 0.0101488 0.0588678)
(9.1105 0.275129 -0.759107)
(11.4888 0.349454 0.241449)
(9.99361 0.0103597 0.0132962)
(10.1963 -0.392743 0.160789)
(11.8576 1.07113 1.73615)
(10.0844 -0.00621294 -0.00762497)
(5.69468 -1.93553 3.12051)
(12.6906 -0.982958 -2.55927)
(9.89998 0.0187127 0.0206552)
(9.53633 -0.449727 0.151615)
(10.4862 -0.0352794 0.0486113)
(10.049 0.0083011 -0.0217445)
(6.29494 0.0697518 2.64956)
(9.94992 -0.00320472 0.013408)
(9.30284 -5.0048 1.19811)
(10.0988 0.0906779 0.0243421)
(11.2746 -0.372491 0.812287)
(11.6701 0.529745 0.0124465)
(10.0403 -0.0116773 -0.0618464)
(9.97649 0.0962225 -0.000127775)
(10.3028 0.406391 -0.019638)
(8.49535 -0.569325 -2.00966)
(9.91836 -0.0544378 0.0513582)
(9.97665 0.0412045 0.0723313)
(10.1455 0.00311092 0.0565805)
(11.7501 -0.0168539 0.575556)
(9.99856 -0.00610442 -0.00218914)
(11.8462 0.568167 0.315471)
(10.1925 -0.0109054 0.0226169)
(3.34408 1.12721 1.22602)
(11.6162 0.471517 0.114284)
(10.1663 -0.00342876 0.0402016)
(11.6961 0.516797 0.230403)
(10.0166 -0.00677108 -0.00698248)
(10.1119 -0.0207041 -0.0136907)
(10.4577 0.292698 -0.00129478)
(10.2053 0.000651973 0.0231259)
(11.8669 0.625865 0.148982)
(9.98933 -0.0444264 0.0402012)
(9.98894 -0.258313 0.0643585)
(11.747 0.548728 0.0630164)
(10.0097 -0.0191268 0.00391901)
(10.2194 -0.0219516 0.0134032)
(10.0061 -0.000987871 -0.00547362)
(10.0418 0.00912523 0.0170337)
(6.8066 0.308778 -4.7013)
(6.61445 -0.190677 -5.24114)
(10.0498 0.0537972 0.406457)
(8.68638 0.327839 -3.80776)
(10.024 -0.0022636 0.00443114)
(9.96464 -0.0111251 0.00229364)
(10.6329 0.535288 -0.246824)
(10.2067 -0.104788 0.0802981)
(9.73951 0.0641084 0.647951)
(10.0408 -0.00641159 0.0138095)
(9.97674 -0.00422319 -0.0564591)
(10.0207 -0.0378659 0.0531096)
(9.93292 0.135655 -0.049544)
(5.18925 0.103453 -5.85984)
(3.78873 -1.89499 -0.873521)
(10.035 -0.00777993 0.0205888)
(10.0142 0.0932153 -0.0053881)
(9.90517 -0.0546713 -0.00887352)
(9.9561 -0.0167495 0.00790716)
(10.0702 -0.0701005 0.0121921)
(10.0716 0.0132587 0.0112352)
(10.8866 -0.170329 0.147606)
(11.3564 -1.48361 2.26863)
(10.0325 -0.00351286 -0.00367981)
(10.0337 -0.0452427 -0.00354536)
(10.057 0.00540082 0.0735601)
(10.0091 -0.0146661 0.0597678)
(9.86774 0.140499 -0.00188888)
(10.0082 -0.0237047 0.0997026)
(10.3882 -0.133873 0.0273393)
(9.99868 0.00705869 -0.00864418)
(10.0207 -0.0607097 -0.0523182)
(10.102 -0.0618226 0.039316)
(9.17981 -0.790623 -0.996674)
(5.1005 0.600398 -4.32518)
(9.94763 -0.0138252 -0.0114667)
(-0.544803 -1.61776 1.10228)
(9.99076 -2.62557 1.39765)
(12.7086 -1.39351 -0.907723)
(-0.322442 -1.70532 0.736966)
(10.064 0.0391995 0.0122079)
(8.31907 -0.189556 0.600867)
(10.2849 -0.497769 -2.29519)
(11.0531 -1.1258 0.441057)
(5.58495 0.268689 -3.35514)
(-0.425557 1.75268 2.28158)
(1.3757 0.442261 -2.95466)
(11.2369 -0.0150492 0.482265)
(10.5105 -0.0330629 -0.00362257)
(11.024 -0.0156237 0.940454)
(10.0394 -0.0113049 -0.0358757)
(3.85873 -0.270656 0.120274)
(10.583 -0.0329601 -0.328315)
(10.4527 -0.0100297 -0.00564987)
(9.98023 -0.00160725 0.00743731)
(10.0823 -0.046309 0.0121889)
(11.1271 -0.250174 0.819138)
(9.81746 0.14064 0.0142764)
(10.0906 0.0403596 0.0680715)
(9.98825 0.027005 -0.0340262)
(-2.95227 0.827894 0.635196)
(8.09332 0.266179 -2.17834)
(10.1033 0.0136709 -0.0557881)
(9.9955 -0.0145251 -0.0039021)
(5.09635 0.286552 -1.9583)
(5.8995 0.13474 -2.64989)
(10.5867 0.374198 -2.13982)
(-2.57761 -3.71691 -1.45393)
(4.39609 1.34725 0.420577)
(4.22283 0.0816758 -3.40312)
(3.91654 0.0102085 -4.27804)
(10.0331 0.0099614 -0.00931353)
(9.85851 0.000516557 -0.012905)
(9.53524 -0.0331485 0.166261)
(9.94473 -0.0407239 0.0345593)
(10.3851 0.0423451 -0.0664549)
(-0.58649 1.80554 1.36629)
(10.7139 -0.114046 -0.254686)
(10.4002 0.0255617 -0.0628742)
(10.3874 0.0206584 -0.0191075)
(10.0529 -0.0371173 0.0443383)
(-0.389292 1.75441 2.18276)
(-0.179971 1.96716 2.21679)
(9.95307 -0.0464969 0.0148191)
(10.3668 -0.032993 -0.0286186)
(9.94941 0.0367381 0.0797468)
(9.92166 -0.00583578 0.00606658)
(10.38 -0.0172387 -0.0103844)
(9.97877 0.0196735 0.0313106)
(9.676 -0.00936827 0.0116242)
(10.0572 -0.00425598 -0.0467303)
(9.95402 -0.0324955 0.01264)
(6.76742 -0.641293 -2.79339)
(9.92684 0.00247508 -0.0452748)
(9.98458 0.0369533 0.0416717)
(10.0255 -0.097993 0.0209457)
(9.97791 0.0586967 -0.011448)
(10.0144 0.00613925 -0.0333042)
(4.10041 -0.461588 -2.00437)
(12.3772 -1.25648 -0.11319)
(10.0131 -0.0262757 -0.034023)
(10.5255 0.40608 -0.190943)
(10.0694 -0.0388951 -0.0250085)
(9.81886 -0.374891 0.187266)
(9.74071 -0.42832 0.305424)
(11.7653 -0.0341651 -0.04416)
(10.0179 -0.0839226 0.0305375)
(-0.917758 -0.994084 3.14079)
(11.8864 -0.101102 -0.0630604)
(10.3681 0.132431 -0.000181154)
(10.6042 0.19618 0.0105029)
(8.05451 0.297435 -3.07806)
(13.6361 1.88496 0.521945)
(10.0399 -0.0645475 -0.0314605)
(10.0433 -0.0781511 -0.0125501)
(12.2216 1.28139 1.8451)
(10.0437 0.0194535 -0.0861398)
(10.0337 0.0234204 -0.0245896)
(11.2562 0.331318 0.357948)
(10.0034 -0.0952068 -0.00201369)
(9.9807 0.0112636 0.00533885)
(0.419108 -0.609222 1.67588)
(12.2675 -0.252064 0.393472)
(12.7159 2.68396 0.415163)
(10.0085 0.00128846 0.00542742)
(7.63239 0.501146 -2.30072)
(9.97272 -0.0701456 -0.0606974)
(11.4826 -0.835307 -0.20083)
(9.61393 -0.387354 0.418823)
(11.8226 -0.0469093 -0.0274578)
(10.1735 0.046883 0.00366574)
(9.42791 -0.387577 0.390006)
(2.2066 0.953963 2.26968)
(12.3087 1.40142 2.29523)
(12.0242 -0.346634 -0.740421)
(-1.11199 1.89558 2.57125)
(11.7398 0.33296 0.0572158)
(10.3147 0.10935 0.0973603)
(10.0524 0.0256916 -0.0495528)
(11.7238 0.721072 -0.150827)
(10.0043 -0.0615268 0.0326874)
(11.9744 -0.0471947 0.102323)
(-0.211833 -0.931845 2.22312)
(9.99346 -0.0391116 0.0543376)
(12.268 0.0149453 -1.10903)
(9.99434 -0.0228033 -0.0527984)
(10.0367 -0.0219113 -0.0354329)
(11.3619 -2.00884 1.47526)
(10.1231 -0.0321252 0.0152377)
(10.0054 -0.0479731 -0.0973774)
(8.43745 -5.72742 0.506079)
(9.59479 0.413322 0.0283912)
(9.98675 -0.191169 0.116596)
(12.2604 -0.856027 0.281581)
(10.3191 1.28963 1.45738)
(10.1173 -0.100792 0.0420241)
(11.8668 -2.14307 -0.434618)
(5.35189 -0.720344 0.195112)
(10.4311 0.0398121 0.0870365)
(9.51402 -0.66777 -0.659528)
(10.015 0.0239557 -0.00375193)
(10.2135 0.122149 0.021756)
(10.1442 -0.0477271 0.0842783)
(10.1014 -0.0400369 0.0228966)
(4.25962 1.96719 -2.6077)
(0.751109 -1.73058 1.59405)
(11.848 0.0977762 -0.513947)
(9.71539 -1.32464 -0.140652)
(11.6017 -1.95221 -0.0434782)
(3.10747 5.87182 -0.341363)
(-0.438363 -0.00495783 -1.25593)
(10.2079 -3.3978 4.35219)
(10.0722 -0.0259024 -0.0448361)
(10.0168 0.0286253 -0.00272529)
(9.97169 -0.0167117 0.00268142)
(9.99175 -0.11704 -0.125094)
(6.78642 0.576422 -2.11308)
(9.69808 -0.530276 0.3066)
(9.21065 -0.488662 1.29071)
(9.96615 0.0219649 0.0137168)
(-1.45728 -1.10742 0.788722)
(11.9135 -0.0454462 -0.00562887)
(9.84621 0.200107 -0.0331003)
(10.0234 -0.0125304 -0.0505804)
(10.0186 -0.00900098 0.0132198)
(10.0029 0.0307681 -0.0747712)
(6.18582 -1.7766 -2.79901)
(10.0107 0.0240375 0.00653983)
(6.85201 5.91257 -0.039594)
(10.0232 -0.127908 0.0211611)
(9.98891 -0.597871 -2.79532)
(9.9977 0.000432729 0.00304258)
(10.0249 -0.0106674 0.00126889)
(10.0604 0.00153118 0.0690413)
(10.1264 0.0364089 0.0303361)
(9.97726 -0.00916501 -0.00821965)
(12.832 0.44456 -0.160039)
(12.2978 0.0600288 0.340844)
(9.29051 1.22921 2.62526)
(7.40689 3.99302 2.75257)
(9.46994 0.909001 0.612221)
(10.2328 0.47001 -0.0560376)
(11.1626 0.754162 0.169628)
(6.36966 -0.31408 -2.61458)
(10.3563 -0.107929 0.0469544)
(10.8861 0.0591992 -0.0988955)
(10.1677 -0.537984 0.105451)
(11.6989 0.0601041 -0.0379899)
(9.01485 0.116057 4.96923)
(6.91457 -0.531023 0.449432)
(10.3408 -0.250646 0.175333)
(10.0003 0.0136639 0.00957288)
(9.588 0.878375 -0.185264)
(10.0377 -0.00857755 0.00316459)
(10.0833 0.0332074 0.0103358)
(14.2874 -1.97232 1.96042)
(11.9173 -0.759967 0.647526)
(-0.833486 3.5474 0.376538)
(10.1661 -0.743764 0.294225)
(11.6436 -0.871605 -0.210723)
(10.2892 -0.981799 -0.924251)
(12.916 0.17076 -0.685912)
(10.1284 -0.0750523 0.0402939)
(-1.68813 -1.68037 0.099101)
(10.0101 0.0153255 -0.0649303)
(10.0132 0.0360433 -0.0335548)
(10.6954 -0.116723 0.643996)
(10.6125 0.14477 5.25754)
(10.1783 -0.0365521 0.0130355)
(10.0749 0.496584 -0.322287)
(10.0442 0.00543871 0.0504848)
(10.7134 -0.993743 0.623282)
(10.9512 0.0120208 0.91057)
(10.0021 -0.00789173 -0.00810286)
(10.7806 -0.451711 -2.73617)
(10.3278 -0.502334 -3.05448)
(12.8838 0.214062 0.743684)
(10.285 0.444349 -0.117728)
(9.69464 0.0214542 0.337373)
(3.14884 0.720459 -3.23138)
(1.06229 0.853747 3.82472)
(5.49595 3.14876 1.02009)
(12.696 -0.83293 -2.42556)
(5.66216 -0.387912 -0.076328)
(9.94034 -0.0223347 -0.177117)
(9.92328 -0.0462116 0.0182802)
(8.67801 1.50008 2.97243)
(9.99104 -0.0658378 0.112592)
(4.57236 -0.645292 0.174679)
(9.97179 -0.0583056 -0.148563)
(9.97518 -0.0325939 -0.168787)
(-1.96369 1.71447 -0.472105)
(9.71693 -1.11421 0.965526)
(10.8297 -0.214784 0.174772)
(10.0523 -0.0234495 0.0301748)
(9.86152 0.0519443 0.0635809)
(8.22213 0.311482 -2.52358)
(10.0082 0.0611331 0.107348)
(10.0037 -0.0147157 -0.00233486)
(10.2239 0.632432 1.02843)
(11.975 -0.741693 -2.53186)
(10.2784 0.269932 0.129773)
(9.87429 0.137594 0.0114912)
(9.88815 -0.125206 0.0399302)
(9.97338 -0.000484205 -0.0285309)
(9.93759 -0.0618393 -0.017436)
(11.6249 -0.746934 -1.63682)
(11.6641 0.121033 -0.0843958)
(8.42122 0.025797 0.206484)
(9.859 -0.890798 0.612911)
(9.83134 -0.0814633 -0.00681883)
(10.0567 -0.0257851 -0.053553)