/*--------------------------------*- C++ -*----------------------------------*\
| =========                 |                                                 |
| \\      /  F ield         | OpenFOAM: The Open Source CFD Toolbox           |
|  \\    /   O peration     | Version:  2506                                  |
|   \\  /    A nd           | Website:  www.openfoam.com                      |
|    \\/     M anipulation  |                                                 |
\*---------------------------------------------------------------------------*/
FoamFile
{
    version     2.0;
    format      ascii;
    arch        "LSB;label=32;scalar=64";
    class       volScalarField;
    location    "0.0689058";
    object      nut;
}
// * * * * * * * * * * * * * * * * * * * * * * * * * * * * * * * * * * * * * //

dimensions      [0 2 -1 0 0 0 0];

internalField   nonuniform List<scalar> 
3923
(
0.00321103
0.00437901
0.00487631
0.00090216
0.00112958
0.000904476
0.000714252
0.00103225
0.00107724
0.00107263
0.000196831
0.0019205
0.00383815
0.00147408
0.00321454
0.00699371
0.00580375
0.00497474
0.00501189
0.0034636
0.00183044
0.00184271
0.00442132
0.00161162
0.00329395
0.00169809
0.00190668
0.00220362
0.00212717
0.00176858
0.00222237
0.00222207
0.00181675
0.00090243
0.00082001
0.000818999
0.000959128
0.000844341
0.00122108
0.00216758
0.000386078
0.00664396
0.000487903
0.000461625
0.00101727
0.000744645
0.00525826
0.00151536
0.00335815
0.00100345
0.00121816
0.00127198
0.00188683
0.00396726
0.00184355
0.00404188
0.00407461
0.00616777
0.00253365
0.00194003
0.00233265
0.000569026
0.0038644
0.00283277
0.00698258
0.00298855
0.00427054
0.00254855
0.00332916
0.000546603
0.00616301
0.0014215
0.00428868
0.00175604
0.00251547
0.00120271
0.00312234
0.00111751
0.00158545
0.00363839
0.00548801
0.000998533
0.00189152
0.00194004
0.000709398
0.00278809
0.00322681
0.00282408
0.00159311
0.00150944
0.00394712
0.00118711
0.00239448
0.00150701
0.00462081
0.00456765
0.00298512
0.00315673
0.00279244
0.00174982
0.00350572
0.00208258
0.00393205
0.00281816
0.00147667
0.0040933
0.000554778
0.000908053
0.000375052
0.000479707
0.000919907
0.000840835
0.00541046
0.00448873
0.000460639
0.000726109
0.000881964
0.00153898
0.000770573
0.000573104
0.00588775
0.000563469
0.00164825
0.00443416
0.00585602
0.00164413
0.0015033
0.00106097
0.000763807
0.00141557
0.00182772
0.00257373
0.0019294
0.00432911
0.00370557
0.00587311
0.00249655
0.00151226
0.00401158
0.00192618
0.00173396
0.00346838
0.00190154
0.00328218
0.00388205
0.00702367
0.00247385
0.00442761
0.00323527
0.00482044
0.00603763
0.00183076
0.00197331
0.00282845
0.00453536
0.000738854
0.00398664
0.00442116
0.00143656
0.000237131
0.00217406
0.000757537
0.00677484
0.000303056
0.00107764
0.0035597
0.00422234
0.00419127
0.00373987
0.00151649
0.00467097
0.00491345
0.00692827
0.000501339
0.000501222
0.0048208
0.00410706
0.00176952
0.00184219
0.00446101
0.00498319
0.000551751
0.00464427
0.0019988
0.0021601
0.00310454
0.00565666
0.00219899
0.00417474
0.0046327
0.00136787
0.00182977
0.00297561
0.00323468
0.00200267
0.00218853
0.000479814
0.00232414
0.00194803
0.0020261
0.00200998
0.00165507
0.00183515
0.000919642
0.00301051
0.000578839
0.00446757
0.0012651
0.00454646
0.00163463
0.00303144
0.00217305
0.000343874
0.00315297
0.00161161
0.000343044
0.00491146
0.00399303
0.00141292
0.000926809
0.000573819
0.00152513
0.00170151
0.00113155
0.00159483
0.00484148
0.00401402
0.00314703
0.00320231
0.00348844
0.00286724
0.00385084
0.00299458
0.00398107
0.00254342
0.0038744
0.00363764
0.00291902
0.00313869
0.00263495
0.0032308
0.0043454
0.000755843
0.0021168
0.00111165
0.000791107
0.000429225
0.00364
0.00343014
0.0033598
0.000815928
0.00223054
0.00324446
0.00247068
0.00250732
0.00253181
0.00128591
0.00047309
0.00251896
0.00240374
0.000799223
0.000714696
0.00303456
0.00247657
0.00267296
0.00276194
0.000982524
0.0016495
0.00186069
0.00239513
0.00256264
0.00079549
0.00361964
0.00327158
0.00394504
0.00460076
0.00336969
0.00478777
0.00404191
0.00326348
0.00297762
0.00282221
0.00339431
0.00490069
0.00128209
0.00480533
0.00257829
0.00227943
0.00548849
0.00236249
0.00220431
0.00269567
0.00249188
0.00260805
0.00395229
0.00109435
0.000491121
0.000563197
0.000439289
0.000193453
0.00035086
0.00100078
0.000968082
0.000953098
0.000648727
0.000744302
0.000213688
0.000814388
0.00278608
0.0022183
0.00214357
0.00235477
0.00242264
0.00135407
0.00128246
0.00153185
0.00148432
0.00142003
0.00246733
0.00270716
0.00163574
0.00149281
0.0016869
0.00147482
0.00197325
0.0016412
0.00224065
0.00133575
0.000470404
0.00132001
0.00181412
0.00256453
0.00158469
0.00275468
0.0019104
0.00311518
0.00284632
0.00185294
0.00220934
0.00198785
0.0020359
0.001912
0.0024572
0.00176754
0.00193442
0.00241941
0.00248499
0.00247451
0.00285638
0.00247516
0.00224115
0.0019866
0.00267804
0.00473143
0.00451158
0.00502521
0.00217313
0.00372301
0.00468607
0.00382599
0.00385595
0.00421275
0.00312062
0.00354397
0.00433942
0.00381792
0.00358476
0.00395013
0.00390206
0.00645402
0.00687234
0.00183616
0.00205986
0.00188366
0.000571136
0.000471516
0.000644495
0.00201302
0.00218074
0.00213634
0.00185048
0.00136829
0.00196638
0.00368585
0.00348744
0.00341665
0.00366613
0.00396034
0.00461495
0.00251768
0.00298835
0.00208739
0.00188927
0.00201816
0.00203514
0.00140206
0.00194514
0.00134068
0.00102124
0.00304443
0.00287782
0.00274412
0.002983
0.0031384
0.00154008
0.00122578
0.00298733
0.00208529
0.00213617
0.00210959
0.00189467
0.00207411
0.00128406
0.00117139
0.0011294
0.00089342
0.00147076
0.00166616
0.00149006
0.00253624
0.00242996
0.00157981
0.00239127
0.00336924
0.00219851
0.00269772
0.00257595
0.00290066
0.00340812
0.002288
0.00273573
0.00101375
0.00330847
0.00146677
0.00291932
0.00061462
0.000488089
0.000866605
0.0026873
0.00162069
0.00143984
0.00520539
0.00376612
0.00155357
0.00663561
0.00704626
0.001877
0.000564515
0.00333327
0.00146428
0.000816541
0.00145448
0.00527549
0.00162185
0.00166039
0.00395103
0.00102916
0.00386404
0.00240683
0.00327915
0.00334127
0.00229385
0.00162854
0.00497676
0.000543426
0.000712529
0.00388289
0.00276099
0.00254829
0.000399281
0.00484779
0.00374683
0.00111553
0.00477357
0.00233824
0.000429872
0.000809068
0.00147404
0.00420288
0.0033297
0.00272695
0.00085434
0.00194347
0.00134825
0.00293602
0.00304745
0.00349388
0.00373732
0.0031688
0.00170708
0.000418271
0.000589732
0.00353703
0.000826308
0.00331759
0.00316994
0.00353221
0.00056747
0.00228698
0.000556254
0.00309746
0.00529489
0.00379953
0.00509397
0.00272422
0.00679557
0.00115053
0.0045233
0.00365979
0.00406419
0.00460956
0.000379311
0.00244248
0.00213113
0.00328619
0.000744295
0.0048374
0.00724292
0.0015204
0.00422105
0.000753098
0.00242579
0.0015373
0.00268777
0.00319553
0.00151796
0.0026777
0.000966171
0.000846729
0.000951242
0.00238397
0.000560116
0.0028466
0.00152748
0.00184485
0.00134846
0.00121764
0.00438034
0.000814242
0.00203536
0.000635433
0.00102151
0.00126242
0.0020541
0.00338654
0.000929063
0.00180291
0.00237411
0.00247495
0.00376017
0.00158735
0.00169057
0.00231301
0.000608996
0.00239707
0.000870252
0.00190965
0.00276009
0.000970817
0.00113544
0.00341075
0.000506011
0.00102511
0.00129944
0.00253255
0.00209005
0.0022022
0.00163022
0.00288396
0.00126001
0.00146201
0.00130541
0.00539658
0.00240725
0.00184927
0.000959959
0.00230607
0.00291469
0.00329519
0.00269199
0.00241685
0.00191907
0.00396598
0.000856032
0.00127726
0.000548373
0.00219904
0.000746114
0.000714993
0.00281872
0.00319451
0.00335147
0.00431561
0.0039425
0.00304861
0.000629633
0.00265525
0.0015449
0.00472591
0.00128815
0.0019074
0.00478392
0.00321192
0.00304125
0.00199486
0.00245136
0.00259124
0.00390854
0.00371145
0.00212723
0.00396582
0.00259507
0.00195141
0.00156286
0.00285224
0.0027266
0.00201833
0.00124044
0.00218724
0.00120447
0.00294929
0.00101259
0.001567
0.00167045
0.00239209
0.00118331
0.00419392
0.00296164
0.00208647
0.00120872
0.00543949
0.00502968
0.00713625
0.00325671
0.0037357
0.00258869
0.000873472
0.00105399
0.0018969
0.00450625
0.00150321
0.00197177
0.00273364
0.00081531
0.00284175
0.00107283
0.00435191
0.00168809
0.000792287
0.00143948
0.00205926
0.000117976
0.000497154
0.000856501
0.00246463
0.00101537
0.0017595
0.00298165
0.000602284
0.00329765
0.00262865
0.00165085
0.00245153
0.0016474
0.00480479
0.00142922
0.00205581
0.00100205
0.00272072
0.00515662
0.00638142
0.00730755
0.00288787
0.00419225
0.00428901
0.00569729
0.0042942
0.00158349
0.00185731
0.00576044
0.00165698
0.00266099
0.00622258
0.00675982
0.00379322
0.00599568
0.00302041
0.00536428
0.00442025
0.00406889
0.00276068
0.0048069
0.00573812
0.00496354
0.00511671
0.0070709
0.000680664
0.00454824
0.00649311
0.00526998
0.00254755
0.0020403
0.00160643
0.00279355
0.000697373
0.00153422
0.000822825
0.000914729
0.000486707
0.000488606
0.000833706
0.000567696
0.00362967
0.0023924
0.00117307
0.000842863
0.00224688
0.000332621
0.00124585
0.00134557
0.000841452
0.000900727
0.00109728
0.00216142
0.00231906
0.000896353
0.00191329
0.00223716
0.00125072
0.00104031
0.00139716
0.00484968
0.006027
0.00482346
0.00340014
0.00400366
0.00397141
0.00241072
0.00325106
0.00366524
0.00378544
0.00258348
0.00491676
0.00107073
0.00410271
0.00548543
0.00241974
0.00143664
0.00369178
0.00309446
0.00267037
0.00186682
0.00153606
0.0021214
0.00236182
0.00365981
0.00532395
0.00296678
0.00326896
0.00213279
0.00368105
0.00165949
0.000344889
0.00205368
0.00411048
0.00264108
0.0011963
0.00267858
0.0022187
0.00458432
0.00290622
0.00317734
0.000582435
0.00136604
0.000476975
0.00109374
0.00201527
0.00115118
0.00261324
0.00169589
0.00482249
0.0017431
0.00177861
0.00343864
0.00321626
0.00238626
0.00198118
0.004081
0.0026051
0.00254734
0.00276058
0.00282751
0.000710438
0.00335865
0.00446189
0.00155864
0.00277559
0.002645
0.00245866
0.00250085
0.00150034
0.00370983
0.00402644
0.00162798
0.00456375
0.00458597
0.00234522
0.00363115
0.00475633
0.00365657
0.00424127
0.00495337
0.002501
0.000294673
0.0022814
0.00259065
0.00445698
0.000407045
0.00224627
0.000944936
0.00379194
0.00393117
0.000667841
0.00204363
0.000677734
0.00260222
0.00469465
0.00425698
0.00263156
0.00337818
0.00388954
0.00483403
0.00261172
0.000870605
0.00107991
0.00363995
0.00087775
0.00341588
0.0029802
0.00201277
0.00196751
0.00243844
0.00154705
0.00153448
0.00378394
0.00245087
0.00550444
0.00282485
0.00292464
0.00437756
0.00336237
0.00604479
0.0047587
0.00557033
0.00356805
0.00305224
0.00385969
0.000602078
0.00282173
0.00272101
0.00233398
0.00233883
0.00385072
0.00321922
0.00255911
0.00369692
0.00289785
0.00369978
0.00288668
0.0037204
0.00365441
0.00405902
0.00646651
0.00517957
0.00389677
0.00146978
0.00188323
0.00220949
0.00238535
0.000848343
0.00130375
0.00121936
0.00142524
0.00137023
0.000812673
0.00206986
0.00243233
0.00210318
0.00241774
0.00223271
0.000593316
0.00226711
0.0001937
0.00173598
0.00205088
0.00133648
0.00209372
0.00127931
0.00149236
0.00154788
0.00114729
0.00206908
0.000980956
0.00485036
0.00355317
0.00478285
0.0065672
0.00308511
0.00130509
0.00244246
0.00219574
0.00125422
0.0073397
0.00518095
0.00505474
0.000677827
0.00116488
0.00146497
0.004994
0.00331716
0.00387148
0.000746452
0.00195493
0.00227321
0.00244962
0.00137864
0.00349783
0.00166228
0.001656
0.00220544
0.000941191
0.00110136
0.00138751
0.00156826
0.00485815
0.000531651
0.00120349
0.000436365
0.0016171
0.0015914
0.000664791
0.000334936
0.000259713
0.00100979
0.00381208
0.00582646
0.000703265
0.00112892
0.00435547
0.00180011
0.00161009
0.00198409
0.00194596
0.00143986
0.00108829
0.000417699
0.0025777
0.00222545
0.0017815
0.00306167
0.00251772
0.002866
0.00157087
0.000522013
0.00182419
0.00169178
0.000760772
0.0013606
0.00144883
0.00153671
0.00141362
0.00284672
0.00289009
0.00161434
0.00397874
0.00560022
0.00442864
0.00145175
0.00424499
0.00314927
0.00185822
0.00222506
0.0022863
0.00134856
0.00340168
0.00227462
0.00323986
0.00398539
0.00350796
0.00333371
0.00475603
0.00409386
0.00485723
0.00367699
0.00398533
0.00126484
0.00266328
0.00596634
0.00709894
0.00508848
0.00263598
0.00269914
0.00409482
0.0038185
0.00559002
0.00218788
0.00186586
0.00445446
0.00440948
0.00333658
0.00132295
0.00127239
0.00129342
0.00199998
0.00398415
0.00212453
0.002485
0.0035404
0.000845202
0.00193809
0.00137146
0.00102027
0.00202462
0.00201909
0.00296351
0.00180354
0.00105375
0.00137136
0.000918618
0.00102854
0.00200616
0.000870697
0.00159263
0.00514917
0.000547596
0.000654162
0.00156318
0.00240534
0.00396977
0.00377835
0.00345232
0.00250212
0.00391586
0.00284266
0.00343683
0.000784944
0.0014402
0.00130521
0.00129832
0.00038294
0.00381026
0.00107064
0.00444606
0.00240239
0.00261139
0.00320065
0.00385491
0.000417207
0.00196233
0.00232313
0.00117839
0.00474659
0.00474589
0.00162833
0.00137024
0.00223968
0.00212452
0.00252937
0.00205323
0.000911312
0.00093129
0.00354279
0.00118386
0.00104736
0.00119956
0.00123483
0.00443719
0.00566223
0.00248092
0.000869814
0.000525919
0.00197476
0.000631787
0.00455173
0.00189332
0.000489583
0.00190688
0.00237297
0.000834033
0.000711788
0.0012843
0.00166078
0.00321159
0.00427602
0.0014326
0.0045737
0.00154742
0.00419316
0.00271373
0.00293813
0.00320421
0.0033648
0.0014126
0.00322574
0.00470268
0.00168898
0.00429314
0.00282273
0.0025841
0.00277348
0.00283646
0.00352454
0.00243656
0.00333919
0.00216303
0.00305884
0.000855424
0.00234422
0.000775509
0.00275313
0.00537314
0.000736427
0.00107418
0.000860085
0.000830997
0.00128624
0.00106276
0.00112516
0.00318334
0.0028787
0.00159895
0.00330352
0.000508375
0.00130453
0.00151084
0.00145601
0.000401104
0.00218205
0.000838152
0.000430553
0.001356
0.00215284
0.00185507
0.00204852
0.00145968
0.00188935
0.00146176
0.00253985
0.00139717
0.00138292
0.00135884
0.0070124
0.00323615
0.00202345
0.00247682
0.00241583
0.00334379
0.0021721
0.00224571
0.00161632
0.00221921
0.00220724
0.00476893
0.00148714
0.00193815
0.00156084
0.00109143
0.00188782
0.00181952
0.00395536
0.00695203
0.00299449
0.00316484
0.00141547
0.00364301
0.00265465
0.00157671
0.00221859
0.00110736
0.0030778
0.00208262
0.000894051
0.00125382
0.00161025
0.0016642
0.00168569
0.00823655
0.00544186
0.00471211
0.00435371
0.00324082
0.00359549
0.00474162
0.00481748
0.00479465
0.00412411
0.00676509
0.00620601
0.00565431
0.00429446
0.0062074
0.00438084
0.00602587
0.00419615
0.0034246
0.00467809
0.00576376
0.00340575
0.00506239
0.00385955
0.00424818
0.00441308
0.000948786
0.00069533
0.00365712
0.00394638
0.00425438
0.00343672
0.00393435
0.00325068
0.00245803
0.000438606
0.00525602
0.00280757
0.0036726
0.00119689
0.00175949
0.000806357
0.00136446
0.00187334
0.00125683
0.00244047
0.000414754
0.00141444
0.000552217
0.000635147
0.00123503
0.00107948
0.000431876
0.000354831
0.00205257
0.000313432
0.00133367
0.000877282
0.000480261
0.000294104
0.000615903
0.000710264
0.000847463
0.00232528
0.00199078
0.00239863
0.00173688
0.00104212
0.00128288
0.0048551
0.000684377
0.000219105
0.000500047
0.00118344
0.00225655
0.00428368
0.00329437
0.00397584
0.0032842
0.000243399
0.00207044
0.00095938
0.000476165
0.000762818
0.000156462
0.00518765
0.0047114
0.0030582
0.0051069
0.000911231
0.00472941
0.00195026
0.00216582
0.00121559
0.00197968
0.00278039
0.00327735
0.00451151
0.00305572
0.0028847
0.00378529
0.00116767
0.00161193
0.000904959
0.00398677
0.00721257
0.00436309
0.0059012
0.0032808
0.00193582
0.00335442
0.00397565
0.00451022
0.00362828
0.00245479
0.00104622
0.00312081
0.00224208
0.00340438
0.00123626
0.00558169
0.00589233
0.00633625
0.00162387
0.00497141
0.00361316
0.00457761
0.00357229
0.00413662
0.00485811
0.00479356
0.00354243
0.00660412
0.0016545
0.00391035
0.00730554
0.00411144
0.00245767
0.0020701
0.0012666
0.00293159
0.0039157
0.0029555
0.00464095
0.00469319
0.00363667
0.00675384
0.00438942
0.00397195
0.00134477
0.00242814
0.00171809
0.0038374
0.00202585
0.00237465
0.000407566
0.00281965
0.000547663
0.00275334
0.0016836
0.00309551
0.00457995
0.00414635
0.000744701
0.00410455
0.00164164
0.00363621
0.0031965
0.00244779
0.00202053
0.00433976
0.0062282
0.00515307
0.00239134
0.00235824
0.00327437
0.00319242
0.00415341
0.00398517
0.00403831
0.00392511
0.000702896
0.00108827
0.0022265
0.00184673
0.00115439
0.00146981
0.00197817
0.000900197
0.00261391
0.00292474
0.00155526
0.000836944
0.00257727
0.000539217
0.000923339
0.00106133
0.000532104
0.00054288
0.00122517
0.001301
0.00103191
0.000943191
0.00211077
0.00245971
0.00525974
0.00396097
0.00501416
0.00248141
0.00461366
0.00246233
0.00310482
0.00145503
0.00448625
0.00345377
0.00108736
0.00316759
0.00330563
0.00274521
0.00259406
0.0021825
0.00483535
0.00539107
0.000393317
0.0014695
0.00340036
0.000483816
0.00238415
0.00399566
0.002437
0.00263087
0.00122542
0.00262521
0.00309694
0.00074358
0.00320498
0.000250998
0.00211397
0.00236641
0.00100665
0.000630173
0.00119277
0.00148678
0.00134955
0.0018334
0.00167821
0.00136252
0.00645196
0.00324176
0.00285708
0.00107907
0.00238227
0.00371402
0.00505537
0.00146534
0.00126914
0.00103173
0.00044449
0.000745199
0.0014874
0.00143755
0.00174595
0.00575542
0.00742452
0.00384298
0.00339371
0.00212663
0.00652525
0.00465771
0.00233844
0.00120828
0.00221177
0.00450225
0.00608815
0.00254133
0.00403056
0.0025069
0.00494378
0.00505319
0.00293181
0.00315941
0.00179016
0.00339398
0.000925322
0.00295895
0.00256651
0.00202186
0.00308406
0.00287301
0.00515947
0.0038813
0.00213974
0.00191775
0.00166838
0.00256863
0.000252228
0.00163263
0.000750514
0.000965389
0.00275518
0.00133323
0.00178136
0.00201474
0.000509248
0.000902848
0.00131045
0.000758615
0.00124143
0.00303327
0.00147012
0.00155685
0.0048389
0.00102041
0.000701314
0.000215142
0.00351933
0.00166463
0.00494493
0.00255497
0.001861
0.00126464
0.000789985
0.00201747
0.000451035
0.00115793
0.00239074
0.000946802
0.0026404
0.0014376
0.00321754
0.00597544
0.00256275
0.000815872
0.000381116
0.000715751
0.00638462
0.00212823
0.00120514
0.000842271
0.00213439
0.00120399
0.000121269
0.00163919
0.000316883
0.00162628
0.00178671
0.00436157
0.000782313
0.0043517
0.00119081
0.00121056
0.00140378
0.00157507
0.00147947
0.00143929
0.003001
0.00271742
0.000486094
0.000924014
0.00228579
0.00541511
0.00316524
0.00227241
0.00121664
0.000660018
0.000359596
0.00532331
0.00137761
0.000927281
0.00481626
0.0021359
0.00204195
0.00485758
0.00492982
0.00152124
0.000639204
0.000740588
0.00137034
0.00195501
0.000651984
0.000381716
0.000938163
0.00161422
0.00113583
0.000708099
0.00219419
0.00202243
0.00167162
0.00290301
0.00375524
0.00274503
0.00387127
0.00406809
0.00316641
0.00196328
0.000580703
0.000360896
0.00218922
0.0032408
0.00266009
0.00159828
0.00308744
0.00174517
0.00498356
0.00176519
0.0037354
0.00374677
0.00429153
0.0058704
0.00462031
0.0028794
0.00216595
0.00254862
0.00193822
0.00180093
0.000762207
0.00225979
0.00250639
0.00236553
0.00208856
0.000679465
0.000583622
0.00138739
0.00141171
0.00159804
0.00110384
0.00212377
0.00250007
0.00174898
0.0033501
0.00247753
0.000827412
0.00167518
0.00160346
0.00168347
0.00160006
0.00232406
0.000673313
0.00463609
0.00447488
0.00272615
0.00138778
0.00220826
0.0014407
0.00241445
0.0014824
0.00111511
0.00079394
0.000610992
0.00115131
0.000746462
0.00109853
0.00100931
0.000484324
0.0015228
0.00174144
0.00179674
0.00457859
0.00278325
0.000655523
0.00249261
0.00502479
0.00261713
0.00255315
0.00243137
0.00130281
0.00474129
0.00184549
0.00256476
0.00291627
0.000794075
0.00184832
0.00134609
0.000876282
0.00117263
0.00104574
0.00253772
0.00139606
0.00287879
0.00333151
0.00185014
0.00359658
0.00265848
0.00182324
0.00556787
0.00473038
0.00465448
0.00385766
0.00389805
0.00690309
0.00542253
0.00310353
0.00116638
0.00120277
0.00307965
0.00215886
0.00361943
0.00145258
0.0012977
0.00431436
0.00361258
0.00513137
0.003733
0.00495575
0.00557652
0.00234974
0.00305088
0.0029937
0.00406483
0.00118412
0.00384084
0.00368515
0.0049069
0.00390145
0.0030593
0.00335843
0.0044894
0.00334006
0.00572051
0.000631664
0.00180113
0.00161389
0.00193804
0.00180325
0.00163375
0.000832001
0.00136342
0.000793137
0.000615561
0.00236522
0.00112805
0.00229419
0.00253023
0.000758955
0.00431851
0.000583816
0.000582635
0.00088863
0.000501821
0.00114246
0.00141659
0.000617286
0.000390974
0.00054345
0.000437264
0.000362915
0.000440828
0.00110486
0.00227143
0.00455383
0.0015161
0.00624141
0.00129145
0.00126492
0.00121447
0.000735892
0.00161022
0.000700424
0.000932726
0.000722603
0.000916297
0.00293605
0.00409142
0.00373393
0.00063546
0.00202479
0.00454671
0.00390704
0.00390873
0.00462703
0.00697531
0.00513255
0.00468704
0.00360143
0.0038661
0.00204938
0.0039047
0.00273011
0.00378077
0.00339346
0.00465701
0.00380493
0.00257889
0.00226271
0.00245342
0.00368033
0.00373577
0.00518311
0.00571979
0.0054935
0.00568898
0.00284377
0.00357729
0.00533036
0.00646016
0.000896207
0.00116294
0.00146617
0.00189343
0.00336756
0.00171303
0.00168807
0.00104842
0.00197586
0.00212459
0.0021055
0.00212791
0.00226949
0.00161483
0.0034006
0.00145702
0.000947048
0.00360802
0.00347698
0.00410168
0.00102779
0.00290157
0.00387017
0.00347566
0.00231195
0.00157225
0.0013127
0.00270987
0.00283595
0.00182808
0.00246302
0.00269407
0.00129149
0.00247496
0.00159603
0.000779908
0.00290618
0.00274358
0.00480912
0.00425009
0.00316107
0.0024914
0.0036636
0.000748658
0.00549349
0.00232397
0.00527898
0.00331129
0.00502261
0.00494329
0.000569508
0.00149487
0.00238232
0.000522685
0.00358908
0.00354795
0.00631264
0.00378658
0.00448443
0.00256833
0.00252766
0.00240797
0.00563276
0.00113742
0.00155729
0.00169815
0.00340538
0.0022199
0.00420905
0.00397606
0.00100211
0.00196839
0.00395141
0.00491187
0.00267937
0.000285001
0.00363565
0.00404072
0.00223449
0.000511556
0.00548952
0.00150381
0.000676275
0.00190349
0.00145762
0.00510326
0.000797447
0.000721707
0.000686388
0.00093352
0.000519713
0.00128965
0.00143427
0.00238286
0.00291609
0.00201413
0.00329278
0.0036798
0.00186688
0.00095774
0.00206095
0.00333109
0.000849482
0.00184184
0.00196608
0.00231831
0.00163105
0.0051223
0.00549189
0.00584425
0.0049306
0.00462624
0.00513996
0.00430169
0.00628018
0.00224886
0.00243268
0.00444364
0.00452384
0.00329626
0.000568708
0.000158506
0.000986609
0.00148726
0.00202005
0.00251724
0.00138481
0.000702946
0.00163537
0.00237093
0.00200789
0.000207258
0.00162262
0.00358991
0.00337446
0.00408283
0.00343855
0.00123309
0.00221439
0.00166344
0.0021274
0.0004647
0.000718286
0.000718506
0.00283261
0.00115106
0.000977595
0.0011375
0.00398234
0.00412981
0.00361026
0.00320712
0.00266767
0.00176322
0.00161887
0.00351616
0.0018513
0.00163374
0.0021794
0.00263356
0.00299148
0.00204003
0.0018899
0.00227212
0.00388565
0.00439375
0.00694373
0.00472103
0.00331836
0.00456654
0.00306824
0.00522415
0.00343865
0.00350642
0.00311608
0.00315306
0.00304728
0.00501311
0.000627584
0.00084128
0.0013061
0.000136711
0.00022496
0.00064993
0.0021191
0.00102757
0.00128461
0.00209308
0.00140744
0.0051662
0.00539317
0.00231219
0.00173139
0.00234446
0.00156468
0.00066804
0.00271644
0.00199172
0.00296717
0.0038794
0.00252716
0.0031477
0.00161853
0.00208992
0.00351788
0.00188109
0.00175407
0.00276412
0.00465173
0.00551603
0.00168419
0.00113746
0.00189827
0.0011294
0.00167499
0.00232526
0.00167753
0.00124009
0.00303499
0.00222254
0.0019487
0.00522295
0.00553739
0.00412923
0.00460827
0.00146313
0.00195913
0.00155465
0.00166728
0.00136423
0.00112673
0.00152935
0.00109078
0.00211141
0.0020583
0.00213299
0.00140689
0.00219928
0.00147085
0.00134004
0.00172004
0.00315441
0.000583415
0.000509344
0.00148504
0.000872599
0.00290748
0.00198571
0.00211972
0.00184563
0.00284794
0.00264501
0.000851019
0.00653528
0.00170399
0.00121213
0.0034666
0.00265693
0.00472147
0.00181053
0.00272202
0.00101673
0.00225138
0.00100252
0.00129586
0.00218167
0.00131192
0.00453797
0.00574655
0.00736395
0.00297594
0.00346013
0.0047388
0.00637499
0.00274914
0.00709375
0.0047694
0.00236165
0.00147291
0.00361261
0.00281964
0.00185406
0.00228162
0.00274833
0.00180687
0.00463298
0.00109502
0.00207831
0.000811449
0.00192456
0.000761312
0.00170955
0.00058957
0.00248968
0.00240589
0.00333097
0.00262602
0.00173524
0.000590938
0.00295531
0.00410703
0.00543977
0.00262114
0.000967871
0.00282348
0.00493679
0.00367817
0.00524172
0.0029721
0.00456484
0.00354913
0.00380908
0.00314723
0.00378543
0.00335273
0.00371397
0.00431307
0.00230742
0.00397935
0.00694225
0.00219356
0.00214446
0.00164775
0.00182927
0.00416853
0.00519069
0.00491436
0.00260493
0.000588961
0.00426625
0.0018293
0.00436532
0.00204504
0.00205583
0.00397518
0.00489449
0.00170818
0.00278584
0.00186904
0.00137055
0.00313266
0.000307486
0.000661575
0.000670894
0.00179764
0.00184272
0.00128368
0.00153438
0.00191572
0.00114757
0.00220084
0.0024152
0.00150897
0.00226217
0.00136327
0.00195429
0.0010978
0.00119624
0.00131171
0.00533912
0.00223064
0.000917046
0.00262705
0.00195602
0.00030538
0.00230275
0.00300367
0.00338862
0.00178183
0.00198438
0.00359975
0.00435097
0.00465317
0.00159998
0.000955955
0.00125853
0.00192251
0.00164101
0.00281697
0.00121218
0.00162613
0.00216251
0.00609084
0.00352083
0.00587349
0.00498698
0.00310821
0.00321222
0.00518067
0.00417757
0.00575987
0.00130536
0.00290845
0.00210831
0.00219231
0.00177577
0.00165091
0.00154561
0.00226602
0.00288177
0.00583414
0.00173038
0.00138372
0.00146879
0.000581768
0.000883454
0.00489473
0.00251534
0.00392172
0.00304249
0.00391646
0.00301045
0.00192204
0.00108987
0.00182734
0.000987144
0.001328
0.00116683
0.00163555
0.00218194
0.00134008
0.00139055
0.00341355
0.00262199
0.0050679
0.00122904
0.0029675
0.00320746
0.0013515
0.00132275
0.00314374
0.00112268
0.00365177
0.0028207
0.00441915
0.00149991
0.0037757
0.00255077
0.00114392
0.00741147
0.00112286
0.00503862
0.00117609
0.00143122
0.00231905
0.00485311
0.00362473
0.00555258
0.000427877
0.00556912
0.00171572
0.00467489
0.00117591
0.00390066
0.00266438
0.00208974
0.00177604
0.00226288
0.00557665
0.00230967
0.00120584
0.00388871
0.00335737
0.00465996
0.00159692
0.00590977
0.00135678
0.00148259
0.00270188
0.00253923
0.00249025
0.00156122
0.00223012
0.00209942
0.00119288
0.0014418
0.00222291
0.000884174
0.000678906
0.000490405
0.00141329
0.00367906
0.00499184
0.00410692
0.00218114
0.00118771
0.00368313
0.00533966
0.00395151
0.00116972
0.000991747
0.00254468
0.000945513
0.000588258
0.000576189
0.000743064
0.00126872
0.000576551
0.00192193
0.00207482
0.00165936
0.000943193
0.00311461
0.00508435
0.00370068
0.00300281
0.00691594
0.00346988
0.00239501
0.00299142
0.00145118
0.00197951
0.00451115
0.00458219
0.00330572
0.00316645
0.00486051
0.00485591
0.00357397
0.00531359
0.00627388
0.00593994
0.00454546
0.00122512
0.00229555
0.0034887
0.00206406
0.000840612
0.00249989
0.00188573
0.00241003
0.00345747
0.00250968
0.00287639
0.00349028
0.00226339
0.000628632
0.000245302
0.00156285
0.00200251
0.00329756
0.00090738
0.00118153
0.00511055
0.00643023
0.00229172
0.00203024
0.00159486
0.00217596
0.00428268
0.00102956
0.000247694
0.00137859
0.000390056
0.000200979
0.000608658
0.00115275
0.00109787
0.00388753
0.00294506
0.00343228
0.00230978
0.00444237
0.00399679
0.00450628
0.00316471
0.00378769
0.00479824
0.00361355
0.00356073
0.00344509
0.00319833
0.00062223
0.00195028
0.00170411
0.00252089
0.00650944
0.000929803
0.00354653
0.00267499
0.00293516
0.00322431
0.00350393
0.00207468
0.00252796
0.00592204
0.00374359
0.00454448
0.00423107
0.00223619
0.00480274
0.00376506
0.00569296
0.00091265
0.00759846
0.00503573
0.00493
0.000896386
0.00452382
0.00494842
0.000724985
0.00382802
0.00353923
0.0011078
0.00191359
0.00329495
0.00372723
0.00301372
0.00126991
0.00141045
0.00374187
0.00593785
0.0037494
0.00470424
0.00300818
0.00360112
0.00154006
0.00393847
0.00391161
0.00492571
0.00437027
0.00518716
0.00487275
0.00364457
0.002099
0.00387808
0.000554062
0.00574802
0.00145974
0.000628529
0.00430604
0.000966116
0.00704628
0.00288098
0.00459816
0.00465369
0.00611646
0.00254316
0.00539912
0.00527638
0.00410634
0.00315919
0.00266199
0.00277261
0.00365172
0.00353905
0.00166653
0.00315172
0.00285482
0.00138964
0.00162991
0.00217343
0.00373218
0.00369953
0.00312755
0.0040828
0.00592714
0.00511858
0.00687017
0.00304272
0.00349809
0.00380088
0.00382419
0.00429245
0.00443882
0.00173831
0.00290544
0.00400101
0.00207266
0.00259831
0.00192438
0.00228244
0.00384969
0.00291569
0.00315744
0.00152881
0.000660542
0.00193389
0.00375965
0.00408203
0.00404443
0.00302965
0.00289199
0.0015314
0.00299305
0.000992362
0.00340004
0.00103042
0.00267742
0.00251748
0.00460113
0.00331938
0.000735511
0.000701493
0.00287377
0.00685688
0.00692794
0.00689802
0.00607948
0.00237404
0.00524924
0.00600593
0.00213645
0.00621566
0.00192649
0.00146699
0.0056135
0.000912859
0.000932597
0.00410307
0.00310025
0.00486193
0.00357861
0.00269122
0.00315154
0.00492725
0.00430911
0.00313011
0.00364687
0.00388778
0.00383609
0.00613906
0.00272053
0.00261706
0.00550824
0.00492377
0.00381141
0.00236716
0.00211461
0.00140087
0.00239364
0.00185744
0.0029176
0.00313463
0.0030419
0.00415596
0.0050764
0.00212308
0.00250489
0.00154562
0.0016197
0.00202232
0.00217812
0.00105203
0.000770893
0.00697672
0.00289459
0.000350354
0.00373665
0.0019022
0.00214974
0.00170257
0.000424074
0.0021921
0.00165455
0.002346
0.00242874
0.000704377
0.000668715
0.00191311
0.00142259
0.00160323
0.00652263
0.004145
0.00214111
0.00371188
0.00181177
0.00133434
0.00185561
0.00163094
0.00282512
0.00241251
0.00183257
0.00179344
0.00558256
0.00361852
0.00443578
0.000515702
0.000808128
0.00145991
0.000309635
0.00370977
0.00102745
0.00193536
0.00163504
0.000909063
0.00156397
0.00111259
0.00202465
0.00198213
0.0020871
0.00208865
0.00128134
0.00181583
0.00163628
0.000865087
0.00637768
0.00364414
0.0059466
0.00537689
0.00385478
0.00476854
0.0064422
0.00103849
0.00727799
0.0045933
0.00437097
0.00360337
0.00494861
0.00129443
0.00273082
0.000923376
0.00375997
0.00528195
0.003151
0.00252552
0.00379245
0.00130176
0.00179269
0.00307223
0.0023686
0.00319735
0.00538814
0.00163587
0.00309789
0.00401426
0.00291746
0.00281913
0.000721977
0.00199092
0.00325296
0.00283816
0.00108308
0.00210572
0.00429897
0.00366979
0.0044318
0.00287211
0.00157299
0.00191314
0.00277119
0.00318729
0.00157776
0.00351552
0.00318376
0.00190887
0.00126076
0.0012359
0.00242613
0.00291952
0.00171025
0.00309496
0.00254802
0.00257545