/*--------------------------------*- C++ -*----------------------------------*\
| =========                 |                                                 |
| \\      /  F ield         | OpenFOAM: The Open Source CFD Toolbox           |
|  \\    /   O peration     | Version:  2506                                  |
|   \\  /    A nd           | Website:  www.openfoam.com                      |
|    \\/     M anipulation  |                                                 |
\*---------------------------------------------------------------------------*/
FoamFile
{
    version     2.0;
    format      ascii;
    arch        "LSB;label=32;scalar=64";
    class       surfaceScalarField;
    location    "0.0689058";
    object      phi;
}
// * * * * * * * * * * * * * * * * * * * * * * * * * * * * * * * * * * * * * //

dimensions      [0 3 -1 0 0 0 0];

oriented        oriented;

internalField   nonuniform List<scalar> 
7426
(
0.00134276
-0.00052668
-0.00591863
0.00510254
0.00586181
0.000305864
0.0020719
0.0264682
-0.0205476
-0.00799249
0.000171188
-4.78053e-06
-0.000123141
-4.32661e-05
0.000337915
-0.000803283
-0.000570532
0.0010359
0.000928011
-0.000368878
-0.000221217
9.93744e-05
-7.09256e-05
0.000774461
-0.000802909
0.000556296
0.00018022
-0.000463086
-0.00027343
-0.000335248
0.000542431
0.000473759
-0.000680941
-0.000646608
0.000381295
-0.000730401
0.000995714
0.00044864
-0.000270483
-0.000178156
-0.00111904
9.04841e-06
0.000566028
0.000543966
-0.00543237
-0.0445283
0.00374008
0.000689518
-0.000207126
-0.000746429
0.000264037
0.00531545
-0.0531969
0.0308541
0.00287723
-0.0412312
0.00749981
0.00122902
-0.00598151
0.0160689
-0.0113164
0.00822508
-0.00562986
-0.00953612
0.00694089
-0.00467073
0.0154876
-0.00259177
0.000234084
0.0587967
-0.0582048
-0.000825958
-0.00493928
0.00749835
-0.0101616
0.00760249
0.0010903
4.06913e-05
0.000775272
0.0225542
0.0110205
-0.00192067
-0.031654
-0.000987117
0.000544669
0.00153275
-0.0452725
-0.000294432
0.0455669
-0.000478734
0.000338514
0.00102053
-0.000880309
-0.000228034
-0.00136974
0.0021454
-0.00122334
0.000247425
-0.00116948
0.000529278
0.00192612
0.0020507
-0.00178611
0.000264684
-0.00193773
0.000977257
0.000969519
0.000292857
-0.000304462
0.000234152
0.00210941
0.00035884
-0.000170443
0.000739614
0.000151577
-0.000754981
0.000962245
-0.000198248
0.00113902
-0.00117907
-0.00148612
-0.000124977
-0.000586451
0.00219755
-0.000557759
-0.000230152
2.60155e-05
0.000231728
-2.75918e-05
0.00326484
0.000786465
-0.00224017
-0.00181113
-0.000299965
0.000375227
-7.52616e-05
0.00170925
-0.0738629
0.0996854
9.99958e-05
-0.000305303
-9.4658e-05
-6.51885e-05
-8.18192e-05
0.000522234
-0.000388405
0.000577107
-0.000253891
-7.55912e-05
-0.000212818
-0.0149769
0.0445261
-0.0217528
0.00206719
4.01336e-05
-0.00177367
-0.000333653
-0.0750493
-0.0097933
0.0291436
0.055699
-0.000631696
0.0001781
0.000370486
8.311e-05
0.000763455
-0.000475074
0.00040666
-0.00069504
-0.000421467
-0.000791638
0.00136188
-0.00014878
-0.0340523
8.78036e-05
0.0342367
0.0237355
-0.0756743
0.0177021
0.000184446
-0.0367203
2.19226e-05
-0.0231311
0.0101463
-0.137131
0.0187183
-0.0108073
5.19829e-06
0.00275545
0.00180648
-0.00456712
-0.00132579
0.000466012
1.70554e-05
0.000842727
0.00076691
0.00331294
-0.00231985
-0.00176
-0.00075713
-0.000282781
0.00103991
0.0113059
-0.017502
-0.000536415
0.00673256
0.00562419
0.00355318
-0.00754066
0.00166594
7.44068e-05
0.0291138
0.00220078
0.0779823
-0.0382447
-0.0419385
-0.00829658
-0.00553224
0.00265135
0.0111775
0.000347119
0.00190797
-0.00288285
0.000627758
3.63389e-05
-0.00322228
-0.00230391
0.00548984
0.00465595
0.000395442
0.128793
0.035881
-0.144321
-0.0203534
-9.20033e-05
0.00136224
-0.00169171
-0.000666269
0.000590683
0.00444077
-0.00436518
0.00111384
-0.000520873
0.00032104
-0.000914011
0.011628
-0.00691588
-0.000229886
-0.00448221
-0.000767653
-7.04588e-05
0.000930495
-9.23832e-05
0.0407965
0.0170992
-0.000145904
0.00226963
-0.00193782
-0.0001859
-1.6819e-05
0.000600852
-0.000426522
-0.00015751
0.000635895
-0.00233864
0.00167758
2.51626e-05
-0.00039949
0.000144273
0.00080194
-0.000546722
0.000114615
0.0006813
-0.000590767
-0.000205147
0.00267191
-0.000120702
-8.92374e-05
-0.00080993
-0.00157737
0.00247654
-2.54335e-06
-0.000146378
-1.83106e-05
0.000167232
-8.45355e-05
-0.000951834
0.00036026
0.0023826
0.00412028
-0.00402686
-0.00162818
-0.00429457
0.00617092
-0.000248164
0.00164515
0.00336511
-0.00135996
-0.0036503
-9.43175e-05
0.000957554
-0.000397905
-0.000465331
0.00167148
0.00636152
-0.00724568
-0.000787313
-0.000830261
0.000657591
0.000385143
-0.000212474
0.00171264
0.000558854
-0.00991886
0.00764737
0.000246523
0.00123346
-0.00149044
1.04586e-05
0.0125149
0.00289637
-0.00893816
-0.00647309
-0.00501982
0.0107355
0.0168384
0.0548319
4.19568e-05
0.0759397
-0.000959554
-0.0023087
-0.00311326
0.00406512
0.00135684
-0.00109576
0.00155722
0.00170511
-0.00216657
0.0534404
0.0104464
-0.00546586
0.00130721
0.000818385
-0.00173619
-0.000389402
-0.0543205
-0.0956972
0.105489
-0.00220804
0.00179679
-0.0114691
0.0118803
6.79091e-05
-0.000362582
0.00147651
-0.00118184
-0.00366436
0.00188349
-0.00573588
0.00568534
0.000379462
0.00030786
-0.000270085
-0.000417238
0.000496594
-0.000117131
0.000191291
-0.000419256
0.000534956
-0.000516023
0.000404628
-0.0348511
0.0152402
-0.0584907
-0.00730944
0.00339752
-0.0412865
0.0451984
-0.000360247
-0.000319903
0.000680151
-0.000609216
0.000373173
-0.000124204
0.000302874
0.000226641
0.000338879
-0.000868394
0.000578817
0.00147933
-0.0027065
0.000648358
9.19028e-05
0.000146224
-0.000411274
0.000173148
-0.000300111
0.000602984
-0.0186446
0.0164132
0.0166263
-0.0143949
-0.000306744
8.87359e-05
0.00264909
0.00201509
-0.00355229
-0.00111189
-0.010869
-0.00876892
0.00924667
0.0103913
-0.000420046
0.00118745
-0.000431461
-0.000335943
0.00712856
-0.00020044
0.000319035
0.000499212
-0.0052202
0.00511643
7.2886e-06
0.000166844
-0.000470395
0.000159736
-0.000152447
0.00194427
0.000861361
-0.00222681
0.0036299
-0.000421784
0.00028784
-0.00349596
0.000277979
-0.000537004
0.000804383
-0.000545358
0.000439904
0.00018817
0.000197927
-0.000826001
-0.0375731
4.21866e-05
0.00488611
0.0326448
-0.0180296
-0.0105898
0.016792
0.0118274
0.0134412
0.0149442
-0.00970193
-0.0186834
-0.00252344
-0.00155393
0.00252437
0.001553
0.000523686
-0.00037602
0.000292237
-0.00245292
-0.0138811
0.0276168
-0.0112828
0.00154462
0.000878399
-0.00127801
0.00173261
0.00337662
0.00496032
-0.00319939
0.00438142
-0.00614235
0.000254746
0.000693217
0.00148321
-0.00243117
-0.0136092
0.0227579
0.00283561
-0.0119843
0.00489371
-0.000616906
0.000294788
-0.00457159
-0.0554371
-0.0203585
0.0775048
0.000993057
-0.000121709
-0.00118839
-0.000709415
9.53127e-05
-0.000323064
0.000937166
0.0581848
-0.053698
-0.00219473
-0.00229207
0.110188
-0.048875
-0.0323454
0.0367003
-0.00438693
-0.00890342
-0.0234099
0.000380957
0.000481128
0.00294885
-0.00381093
0.00174369
-0.00238882
-0.000247557
0.000892686
0.00204178
-0.0078264
-0.00106429
0.00684891
-0.0042474
0.0174861
-0.00895795
-0.00428079
-0.000704172
-2.48202e-05
9.56401e-05
0.000633352
0.000265341
-0.00214248
0.0244196
-0.030639
-0.000536698
0.00285197
-0.00216605
-0.000149223
-0.000376205
0.00046044
-8.42348e-05
0.00270919
-0.00315861
0.000514239
0.000426082
-0.000333747
-9.23342e-05
-0.000508014
0.00329374
-0.00293126
0.000145538
-0.00194137
0.00244059
6.01849e-06
-0.000456996
0.000362978
8.79992e-05
-0.0070045
-0.00059606
0.0103971
-0.00279658
0.00740908
-0.00434792
-0.000955853
-0.0021053
-0.0160902
-0.0144381
0.023962
0.00656634
-0.00506837
-0.00768399
0.0214116
-0.00865919
-0.000177208
0.000339878
0.00126525
-0.00142792
0.00384959
-0.00307063
0.00335848
0.00796085
-0.0618791
0.0310795
0.0228387
0.00354522
0.000771353
-0.00171411
-0.00260247
-0.000399915
-8.1335e-05
0.00048125
-8.67915e-05
-0.000313123
-0.0358076
-0.006314
0.0233206
0.018801
-0.00252667
0.00210127
-0.0189865
0.0194119
-0.000540348
0.000117109
3.68342e-05
0.000386405
0.00356018
0.000823102
-0.00173419
-0.00509341
0.025651
0.000893033
-0.0214506
-0.00105599
0.00138419
0.00161523
-0.00194343
-8.33255e-05
-0.000290494
0.0162594
-0.0330231
-0.0190439
0.000274303
-0.000447211
0.000316989
-0.000144081
0.0019874
0.00189946
-0.000622021
-0.00202603
-0.00179708
0.00458505
-0.000761936
0.0225914
-0.0341056
0.0158687
-0.00435455
-0.00481812
2.53886e-05
0.00683451
0.0157347
-0.0171389
0.00329234
-0.00188814
0.00195914
-0.0118359
-0.000992268
0.00145059
0.00112551
-0.00063183
-0.000577306
-0.00252262
0.00511502
-0.0577622
-0.00647017
0.0258599
0.0383725
0.000355666
-0.0456282
-0.00138972
-0.00025722
0.00191679
-0.000269845
-0.000594723
0.000848709
-1.16559e-05
-0.00024233
0.000364722
8.35008e-06
-0.000258458
0.000111969
-0.000220192
-0.000498593
0.000606816
-0.0018661
-0.00121025
0.00329642
-0.000220074
-0.00061701
-0.000445113
0.000200982
0.000861141
-0.000150214
-0.000580813
0.00113719
-0.000406162
0.00668342
2.33524e-05
0.00124338
-0.00105767
-0.00142755
0.00124184
-0.000620285
0.000213308
-0.000406388
0.000813364
-0.00127585
-0.00140326
0.00341483
-0.000735717
0.000597431
0.000136405
-0.000708155
-2.56806e-05
-0.00641739
-0.00839005
0.00973906
-0.000330152
-0.000410947
0.000942577
-0.000201479
0.0235119
-0.0196375
-0.00180244
0.00038661
-0.00172832
-0.0005517
0.00189341
-0.000412714
0.000364699
0.000238766
-0.000190751
0.00480986
-0.00532081
-0.000324275
0.00083523
-0.00101006
-0.000207729
0.000774313
0.0566534
-0.00340834
-7.87806e-05
0.00103384
-0.000669896
-0.000285161
0.000541828
-0.000454285
-8.75432e-05
-0.0116743
-0.00231441
0.125297
-0.111309
-0.0125743
0.0103899
0.00225865
-7.43036e-05
0.00156385
-0.00243235
-0.00135447
0.00222297
2.86232e-05
0.000322879
0.000284611
-0.000636113
0.000454705
0.00105656
0.000755552
0.000255078
0.000285455
0.00111504
-0.00135089
-4.96071e-05
-0.000914201
0.000869505
-0.00100352
-0.000890715
0.000901882
0.000992353
0.00898248
0.0044419
-0.00669945
0.0144049
-0.00219388
-0.00480193
0.0478711
0.014633
-0.0571197
-0.00538439
-0.000196772
0.0536372
-0.00846472
-0.0467751
-0.0509126
0.0511971
-0.00448372
-0.0362669
-0.0538803
-0.000440281
0.0362582
-0.0279056
-0.00296613
-0.00538648
0.00305879
0.000653089
-0.00402168
-0.0124083
0.0196613
-0.00963034
0.00237731
0.00378355
-0.00335443
-0.00555162
0.00528061
0.00219505
0.000558274
0.00490467
0.000174195
0.00288777
-0.00250369
-0.00328399
-0.00041991
-0.00184772
0.00733008
-0.00290052
0.000786049
3.71406e-05
-0.00104204
0.000218851
6.09165e-05
0.00548783
-0.0017652
0.00153205
-0.00278369
0.00203768
0.000177748
-0.000497651
-0.000190338
-0.000268218
9.49109e-05
0.000363646
0.00746826
-0.00571218
0.000438976
0.00669051
0.00283487
-0.00205712
0.000372099
-0.00198135
0.00829977
0.000350896
0.000146667
0.00103449
-0.00155168
0.00223002
0.000702153
-0.0013805
-0.00902552
0.00758752
0.00599271
-0.00455471
0.00335223
-0.00379127
-0.00251028
0.00294932
-0.00109474
0.00450789
-0.00158201
0.00636031
0.000709533
-0.00334578
0.000751074
-0.000188978
0.000126091
0.000516657
-0.000291851
-0.00289893
-0.00398343
0.00266361
-0.000262194
-0.000858352
0.000705155
0.000233472
-0.000144233
-0.000947592
-0.000843956
0.000389351
-0.000129866
-0.00405076
0.00396761
-0.00149975
0.00091904
-0.00223892
-4.57514e-05
-0.00106111
-0.00285962
0.00340782
0.000202876
-0.00210085
-0.000332488
0.00320025
0.000881703
0.00100361
-0.0043956
0.00578744
-0.00601255
-0.000967602
-0.000669493
-0.00060183
0.0110373
-0.000614948
-0.00574812
0.00975799
-0.00778165
0.00377178
-0.010712
0.00816828
-0.00530785
-0.0045055
0.0158061
-0.0101565
-0.00175812
-0.00136792
-0.000557588
0.0116835
-0.00245436
-0.00330475
-0.00176144
0.00308484
0.000369022
-0.00573089
0.00240875
-0.00189063
0.00864591
-0.00184555
0.000519362
-0.00163082
0.00125812
-0.100635
0.0979518
0.00322402
-0.0059147
0.00847812
0.00240563
-0.0030756
0.00157449
-0.102209
-0.000789964
0.00279922
-0.000901687
-0.00593071
-0.000688329
0.00206433
0.00802555
-0.00185221
-0.000713283
-0.013958
0.00962429
-0.00505579
0.00938949
-4.5058e-05
-0.00048703
0.000317586
0.000214502
-0.000645452
9.42432e-05
0.000506151
0.000723705
-0.000545957
0.000410066
0.0003948
0.000664909
-0.00105971
-0.00138513
0.000812332
-6.44357e-05
0.000370903
0.000633007
-0.000637591
0.000381682
0.000674395
-0.000458942
-0.000597135
-0.000718494
-0.000369298
-0.000136981
0.000102235
-9.56208e-05
0.000125248
-0.000733399
0.000651808
0.0012377
-0.00115611
-0.000875073
0.000792119
0.000841696
-0.000758742
-0.000380458
-0.00105245
0.000557838
-0.00151465
0.000400792
-0.000914674
0.0023586
-0.00140923
0.0026161
0.000692797
-0.00189967
0.00290157
-0.00347172
-0.000839085
0.00267848
0.00315182
-0.00292873
0.00520681
8.77821e-05
-0.000457279
0.00365825
-0.00431626
0.00148028
-0.000822276
-0.000412377
0.0055709
-0.00150027
-0.000601267
-0.00123963
0.00175166
-0.00133937
-0.000706465
0.00144457
-0.000751462
-0.00119317
0.000704997
0.000151407
-0.00224224
-0.00271081
0.00357138
-0.00196368
0.00110311
7.99345e-05
0.0022627
0.000707959
-0.0030506
0.00307006
0.0005791
-0.000265135
-2.38887e-07
0.000634591
-0.000369217
-0.000103921
0.000118045
-1.03541e-07
-1.40203e-05
-0.000496569
0.00203809
-0.000370595
-0.000487619
-0.00133474
0.000170219
0.000818755
-0.00248872
0.00166062
-0.00206792
0.0016102
-0.0012029
0.00078687
-0.0017106
-0.000781963
0.0017057
2.66486e-05
0.0034499
-0.000986214
-0.00249034
0.00275698
-0.00194347
-0.000714283
0.00235413
-4.22169e-05
-0.00159763
0.00242038
-0.00320666
0.000106621
0.000679656
0.00170436
0.00118605
-0.00047002
-0.00333821
-0.000698413
0.00404022
-3.60421e-06
0.0021118
-0.00156147
-0.000402622
-0.000147703
0.000435574
-0.000310066
-0.00212977
0.00200426
-0.00110381
0.0033248
0.000191092
-0.00241208
-0.000521148
-0.0017501
0.00146132
0.00172886
-0.000594622
-0.00123427
0.000100027
0.00373688
-0.00124992
0.00293438
0.0012358
-0.000433298
-0.00582999
-0.000180753
-0.00189937
-0.00290159
0.00192079
0.00288017
0.00222305
-0.000408125
-0.00371429
-0.00125769
0.000166658
-0.00192078
0.00301181
-0.00177837
-0.00128141
0.00180209
-0.000871923
0.00193002
0.00116496
-0.00705226
0.00335975
0.000308913
0.0033836
-0.00199517
-0.00120751
0.00311665
-0.00694598
0.00797804
-0.00414871
0.0369177
-0.000647749
-0.0128186
0.0189113
-0.013125
0.0127831
-0.0271277
0.00715933
0.00718527
-0.000545064
-0.0119985
0.0276574
-0.0151138
0.0183124
-0.0216909
0.0208498
-0.0174712
-0.0151975
-0.0187957
-0.0116338
0.045627
0.0352564
-0.0246522
-0.0515626
0.0409584
-0.0275487
-0.0251896
0.0879947
-0.0292794
0.0155821
-0.0138514
-0.0310686
0.0351134
-0.0192423
0.0389393
-0.0343586
0.0131195
-0.0177003
0.0435153
-0.0279211
0.02132
-0.0369142
-0.00847115
-0.00706726
0.0590537
0.000841398
0.0393171
-0.0628544
0.0226958
0.0384173
-0.0573265
0.0197506
0.00119088
-0.000300558
0.00226577
-0.00315609
0.00319898
-7.66558e-05
-0.00193145
0.000588581
-0.00270722
0.000340274
0.000541233
-0.000758969
0.000217736
0.000710665
-0.000169433
0.000416221
-0.000249599
0.000544043
0.00249348
0.000592877
-0.00134266
-0.00130586
0.00107686
0.00126602
-0.00103703
0.000360023
0.000827598
0.0012915
-0.000559443
0.000661826
-0.00139388
-0.000807094
-0.00061055
0.00162355
-0.000205901
-0.0010964
0.00204747
-0.00175816
-0.0154444
0.00872064
-0.00879009
0.000324499
-0.00697877
0.0156891
0.00329724
-0.0171119
-0.00187449
-0.010603
-0.00966122
-0.0131739
-0.01131
0.0341451
0.0164567
-0.0380681
0.00240814
0.0192033
0.000721454
0.000733423
0.000577708
-0.00203259
-0.00154574
0.000592618
0.00167458
8.42508e-05
-0.00067613
6.35865e-06
0.000585521
-0.000781915
-0.00155727
0.00254251
-0.000203327
-0.000699188
-0.001982
0.00160439
0.000762151
-0.00197397
-0.00110811
0.00198693
0.00109516
0.000562951
-4.52476e-05
-0.00207918
-0.000833803
-0.00109073
-4.94431e-05
-0.000421338
-0.00117056
0.000577276
0.00101462
-0.00278336
-0.00821538
0.0117605
-0.000761768
-0.00991245
-0.0019596
0.00908869
0.000900673
-0.00849226
-0.00232086
-0.000303977
-0.00701073
0.00649244
-0.000775654
0.00604373
0.000608319
0.00030942
0.000752112
-0.00166985
-0.00172719
0.000376244
0.0019139
0.00279871
0.00291546
-0.00437839
-0.00133579
-0.0012217
-0.000747805
0.00123391
0.000735598
0.00153202
0.00210359
-0.00138512
0.00160561
0.00139517
-0.00283836
-0.000162419
0.00325543
0.00105937
-0.000151701
-0.000863197
-0.000424453
0.00143935
0.000909932
-0.000753412
-0.000308221
0.000954897
-0.000113499
6.85341e-05
-0.000341465
-0.000506265
0.000925575
-0.000875098
-0.000391942
-0.000893101
0.000955479
-0.000757188
0.00120974
0.00050234
0.00148915
-0.000326583
0.00130076
0.000670496
-0.00111045
-0.0001117
0.000182852
0.00103929
-0.00137878
0.000953744
0.000239795
-9.4388e-05
0.0013658
-0.00195044
0.00247004
-0.000972634
0.000453029
-0.00491632
0.00751984
-0.00791138
0.00242091
-0.00175197
-3.30998e-05
7.4462e-05
-0.000156232
-0.00625312
0.00370156
0.00270779
1.10836e-05
-0.000176004
6.84085e-05
9.65116e-05
-0.00260862
0.0113247
-0.00119624
0.00245234
-0.00177126
0.000180284
-0.000918776
0.00134805
0.00446444
0.00406722
5.10311e-05
0.00046218
0.00108772
0.00107468
-0.00291021
0.000276112
0.000301954
-0.000578066
-4.12839e-05
0.000681434
-0.000223928
-0.000314228
0.000448095
-0.00013641
0.000869899
0.00152502
-0.00181322
-0.000581699
0.00170685
-0.00138693
-0.000763849
0.00044393
0.00250019
-0.000146853
-0.00235334
-0.054719
-0.0458116
0.0109998
0.0231765
-0.00906912
0.00162742
-0.00128101
-5.64999e-05
-8.8268e-05
0.00142578
-0.00696369
-0.00394442
-0.0423585
0.0418392
-0.00644435
0.000884112
0.000985438
-0.00296531
-0.000266859
0.0004041
-0.000171219
3.39781e-05
0.00383597
0.00878178
-0.0054263
-0.00719145
0.00210812
-0.00364523
0.000768363
0.000768751
-0.000833036
7.42713e-05
0.00038256
-0.00183667
0.000498936
0.00124573
-0.000785181
-5.08701e-05
0.000126636
-3.71512e-05
7.38406e-05
0.000107865
-0.000144554
0.00042984
0.000795913
-0.000194477
-0.00103128
0.0319498
-0.0254462
0.000130727
-0.000121652
0.000162113
0.00475341
-0.00277279
0.0194309
0.00332063
0.0345005
-0.0378212
-0.00687012
0.0194582
-0.00904906
-0.000241474
-0.000591842
-0.000794347
0.00162766
-0.00133519
0.00452522
-0.00248307
-0.000706967
0.00250113
-0.00220287
0.0010969
0.000629483
-0.000195345
0.00821177
-1.53746e-05
0.000329608
6.29844e-05
-0.000377218
-0.000425054
0.000737886
-0.000354116
-0.0564651
1.35592e-05
0.0564516
0.00880457
8.32239e-05
0.000755936
-0.00964373
-0.000124218
0.00252746
-0.000553926
-0.00184931
-0.000337818
-3.85877e-05
0.00947697
0.00246928
-0.00858651
0.00265095
-0.00186455
0.000363246
-0.000538392
0.000175146
0.00138354
0.00013912
-0.00459329
-0.00382207
0.00690593
-0.000184273
0.000297633
0.000447199
-0.000457721
-0.00028711
0.000264697
-0.000536162
0.000304465
-3.29993e-05
0.00156009
-0.00225142
0.000390775
-0.0850139
-0.00785225
0.069735
-0.0539004
-0.019647
0.00236755
0.0711798
-0.00117938
0.00186321
-0.00211709
0.00143326
0.000683916
-0.00106749
0.000239338
0.00329605
-0.0001366
-0.00247142
-0.000688027
0.000491297
0.000693268
0.000584641
-0.000300282
-0.000242923
0.00109493
-0.000551724
-0.00481927
-0.0182715
-0.0159857
0.0245959
0.000542553
0.0139877
-0.010479
-0.00405124
-0.00174128
-0.00609943
0.00728312
-0.000600486
-0.000843751
0.00143369
1.05485e-05
3.70751e-06
1.32075e-05
3.05691e-05
-4.74841e-05
0.000390111
-0.000295517
0.00643789
0.000197454
-0.00884338
6.27631e-05
-8.42419e-05
-0.000101662
-0.00943879
-0.00237246
0.0092706
0.00254066
-0.00620681
-0.00534606
0.00211408
-0.00371945
-0.00652017
0.0119877
-0.00174804
6.17062e-05
-0.000269435
0.00296654
-0.000142665
0.000337133
-0.00316101
-8.79287e-05
7.7177e-05
-7.64732e-06
1.8399e-05
-0.00446964
0.00939332
-0.00864314
0.000357576
0.0597701
-0.0387077
-0.0214199
0.00157676
0.000494142
0.00839087
-0.0104618
0.0180909
0.00496422
-0.0119131
-0.011142
-0.00428302
0.00499063
-0.00704395
0.00633634
0.0648618
0.00860837
-0.0350528
-8.67528e-06
-0.00861572
-0.00428219
0.0121303
-0.0574974
0.0877655
0.0525074
0.00132175
-0.0730002
-0.00475485
-0.00132122
0.00425307
0.001823
-4.62649e-05
-0.0032268
-0.0015754
0.00484846
-0.000872306
0.00167295
-0.000138327
-0.000662318
0.00347386
-0.0105906
-0.000126921
0.000506601
-0.000606808
0.000227128
0.0651783
0.00668001
-0.076205
0.00434676
0.0211709
0.0334975
0.00764745
-0.0623159
0.000290921
-0.000405582
0.000791229
-0.000676568
-0.00312086
0.00494215
-0.00358081
0.00175952
-1.78334e-05
0.000647615
-0.000417714
-0.000212067
0.00711781
-0.00706081
-0.00266561
0.00152636
0.001273
-0.00113874
0.00162066
0.00151704
-0.00461051
0.00147281
-0.00556041
0.00420732
-0.000388193
-0.00032084
0.00090856
0.00097237
0.00183214
0.00115594
0.00060156
-0.00358964
-0.000807864
-0.000217903
0.000474001
0.000551766
0.000246393
0.000274445
-0.00061171
-8.20901e-05
0.00130031
-0.000606512
0.00150931
0.0018326
-0.00211737
-0.00122455
0.00024774
-0.000597384
0.00059526
-0.000245617
-0.00186931
0.00120506
-0.00158926
0.00109489
-0.000616078
-0.00148125
0.00224151
-0.00140127
0.000641005
0.000801302
-0.00170028
0.00057814
0.00216442
0.00154531
-0.00267525
-0.00815802
-0.000835001
0.0149826
-0.00598957
-0.000133076
0.000103094
-0.000137216
0.000167199
-0.000807061
-0.00191695
0.0018517
-0.000157895
0.000318542
-0.000459023
0.000298376
-0.000568638
-0.000415543
9.10803e-05
-0.000273097
0.000483193
-0.00063515
-0.00112468
-0.00103412
-4.12888e-05
0.00220008
8.66481e-05
0.00195605
0.00103841
0.000627565
-0.00100686
-0.000659115
0.000196468
-0.00208883
0.00206924
-0.00259992
-0.000602726
0.0011334
0.00705708
-0.00218194
0.000500018
-0.00537517
-0.000370861
0.000485193
0.000324866
-0.000439198
0.000869856
0.000201014
-0.000726937
-0.000343933
0.0028561
-0.00244883
0.00139775
-0.000868142
0.00110297
-0.0011495
0.000334423
0.000107987
-0.000513335
-0.00296053
-0.0013587
0.00353731
-0.0011887
0.00233637
-0.00114766
0.00308163
0.000195593
-0.002956
-0.00032123
-0.000120255
-0.000659113
0.00357808
0.000378007
-0.000206573
-0.000458192
0.000286759
0.00140239
-0.000536638
-0.000670446
-0.00019531
-0.000157755
0.00422677
-0.00181533
-0.00225368
0.000193389
-6.10897e-05
-0.000342623
-0.000251263
0.000460873
-0.000231046
2.14362e-05
0.000715578
-0.00020577
0.000528605
0.0019445
0.00186007
0.000256503
-0.00406107
0.00100685
0.00190158
1.54467e-05
0.000880027
-0.000621171
0.000382134
-0.000104827
-0.000718402
0.000441095
0.00725114
-0.00449207
-0.00587993
0.000607057
-0.00016235
-0.000932325
-0.00174819
0.00145378
1.8133e-05
0.000276281
0.00148051
-0.00199261
0.000400398
-0.0152389
0.00535344
0.0080538
0.00183167
-0.0031874
0.00178746
0.0011746
0.000225342
-0.00203181
0.00345052
-0.00112691
-0.000291796
0.00019571
-4.08734e-05
-0.000690364
0.000535527
-0.00137244
0.00364445
-0.0036072
0.00517228
-0.00343552
0.0114444
-0.00199014
-0.00601875
0.00396121
-0.0045338
0.00840579
-0.00783321
0.0015798
-0.00452688
0.000641664
0.00230542
0.000839855
-0.0014603
0.000651351
-3.09051e-05
-0.000422299
0.00106286
-0.000362584
0.000303128
0.000238089
-0.000876465
-0.000423185
0.0013136
-0.00087497
0.000276185
-0.000378231
8.66713e-05
-0.000250991
-0.00022125
-0.000180394
0.000189112
0.000212531
-0.000181431
0.000215146
-8.80161e-05
0.000216219
0.00318515
-0.0311813
0.0513124
0.0365224
-0.002669
6.34812e-06
0.00531319
-0.00265054
-0.00582675
0.00579753
0.000874312
0.0143854
0.0029547
-0.0109022
-0.00377802
0.00847446
-0.00576848
0.00107203
-4.0961e-05
-0.000171595
0.000212556
0.000501176
-0.000227042
0.00117922
-0.00145336
-0.00162678
0.000610287
0.00122241
-0.000205917
0.0119479
-0.0446954
0.0291125
0.003635
-0.000368627
0.00036742
1.20687e-06
-0.00347009
0.00083921
-0.00260177
-0.0324465
0.0299548
0.00605608
-0.00662898
-0.00179956
0.0108462
0.0460838
-0.0569301
0.000837312
0.000928539
-0.000928275
-0.000837576
0.0014106
0.00165771
-0.000524203
-0.0025441
0.00143228
0.0001269
-0.00013469
-0.00142449
-0.00727455
-0.00836905
0.000890796
0.0147528
-0.00798664
-0.00451164
0.00549377
-0.0106741
0.00785696
-1.52689e-05
0.00283246
0.0142745
-0.00648365
-0.0112263
-0.00179663
0.0032841
-0.000617567
-0.00127791
0.00125427
-0.00479448
0.00391451
0.000347198
-0.0055036
0.00124189
0.0141911
-0.0005763
-0.00314982
0.000134854
-0.000342776
-0.000109566
0.000317488
0.000145846
0.000368694
0.000155473
-0.000670013
0.000745957
-0.000107479
-7.06763e-05
-0.000219003
0.000584942
-0.00101121
-0.000116585
0.00103746
9.03341e-05
-0.00156704
0.00127829
-0.000667772
0.000956524
0.000548941
0.00033708
0.00156632
-6.47376e-05
-0.000482397
7.20601e-05
-0.00104189
-0.00141208
0.00230376
0.00225742
0.000405792
-0.0011539
-0.000332395
0.000160139
-7.25128e-05
-0.0787741
-0.0406548
0.0826248
0.0368041
0.0521762
-0.04133
-0.000360482
-0.000102016
0.000157189
0.000305309
0.0003975
0.000217653
-0.000427039
-0.000188114
2.74156e-05
-0.000127372
-0.000685224
-0.0161005
-0.0486455
0.010027
-0.000447198
-0.000209634
0.000236786
0.00558034
0.0501202
0.00248426
-0.00452719
-0.00126775
-0.00290853
0.00870348
-0.0424954
0.0477978
-0.0355583
0.0302559
-0.000149201
0.000417493
-0.000181153
-8.71389e-05
0.00024651
-0.000291828
0.00029075
-0.000245432
-0.000447002
0.00052025
-0.000461785
0.000388536
0.00395516
0.00236776
-0.0105964
0.00427345
-0.0018694
0.0012945
-0.00118895
-0.000106445
0.000276314
0.00101908
-0.00385767
0.00211924
-0.00030813
-0.000210717
0.000282142
0.000236705
0.00805059
0.000466572
0.00113954
-5.88583e-05
-0.00108068
-0.000268977
-0.0166851
-0.0254263
0.0423803
-0.000728573
0.00203636
0.000179635
-0.00148742
-0.000604925
0.000135324
0.000446388
2.32134e-05
0.00124327
-0.000971819
0.000358564
-0.000711936
-0.000699082
2.55824e-05
0.000490529
-0.000577131
0.000183976
0.000393155
-0.000467057
0.00048313
0.000173032
-0.000189105
-0.000478669
-0.000362802
0.000367481
0.000259745
0.000218814
0.000119803
-0.000598363
-0.00103367
0.000774062
0.00137345
-0.000129641
-1.84496e-05
0.000487537
-0.000339447
-0.000210584
0.000102817
0.000316462
-0.000208694
-0.0020297
0.0109474
0.00450227
0.00260602
-0.0024624
-0.00464589
0.000109546
-0.00211262
0.00224323
-0.000240157
-0.000812689
0.000688206
-9.57089e-05
-0.00104451
-0.00212829
0.0019841
0.00182154
-0.00241921
0.00123356
-0.00112072
-0.0040443
0.0017898
0.00337522
0.0030852
-0.00137163
-0.00167723
-0.000164106
-0.000142276
0.00117562
-0.000869235
-0.0481176
-0.000440164
0.0485578
0.040516
-0.081194
0.0145992
0.0260788
0.111455
-0.00160107
0.0184369
-0.0368524
0.000345319
0.038173
-0.00598794
-0.00812011
-0.0554976
-0.102207
0.0526548
0.0188127
-0.0507535
-0.00563229
0.00174665
0.0295246
-0.0311969
-0.0368737
-0.0213968
0.0458486
0.0124218
0.00100527
0.000597517
-0.0011383
0.000638281
0.00150529
-0.00728766
-0.0106036
0.0136438
-0.00121808
0.00184508
0.00146581
-0.0020928
0.0481052
-0.047588
0.0122402
0.0802967
-0.0449489
0.0513155
-0.0496177
-0.102509
0.100811
-0.00851845
-0.0431341
0.0431814
-0.0612169
-0.0379826
0.099557
-0.00350534
0.000410414
0.00700183
-0.000373405
-0.000846882
0.00142419
-0.000203901
0.0251351
0.0371204
-0.0503076
-0.0205274
0.0119418
0.0070035
0.00158211
-0.0026283
-0.0103336
-0.0288642
0.0472132
-0.0035437
-0.0148053
-0.043635
-0.0694443
0.00535084
-0.00406929
0.0511927
-0.0150677
-0.0320557
0.000471177
0.102034
-0.102505
-0.00387922
-0.00890716
-0.000215554
2.99821e-05
-3.03167e-05
-0.0110755
0.0230454
0.0425211
-0.0355808
0.02976
-0.00977582
-0.0380687
-9.83441e-05
-0.00415646
-0.00231587
0.00657068
0.000251284
-0.00212957
0.00180067
-0.00021862
-0.00122512
0.00169324
-0.00376765
0.00414366
0.000377686
0.000285299
-0.000750348
8.73627e-05
-0.000200977
0.000103482
0.00135411
-0.00125661
0.000240239
-0.00107327
-0.000132186
0.000331209
-0.000513251
7.43962e-05
-5.09227e-05
8.28242e-05
-0.000106298
0.000127716
0.000188708
4.82975e-05
0.00119968
-0.00067911
-0.000392252
-0.000128315
-5.56494e-05
-0.000201191
-0.000532947
0.000789787
-0.00900677
-0.00442402
0.0221514
0.000390755
-0.00122577
-0.000714554
-0.0025402
0.00196897
0.00128579
0.000574074
-0.000433106
-0.000290169
0.000308926
5.5825e-05
-0.000229896
-0.000342497
8.249e-05
0.000260007
0.000433711
-0.000876332
0.000296716
0.00114966
-0.00012714
0.000402628
-0.00142515
-0.000313711
3.51466e-05
-9.31175e-05
0.000294314
0.000372878
-0.000635541
0.000143964
0.00164064
-0.000615787
-0.000187545
-0.0022846
8.75051e-06
3.60685e-05
-0.000471726
0.000426907
-0.000640584
-0.000971552
-0.000145703
0.000918205
0.00122463
0.000524048
-0.000793229
-0.000955449
-0.000169357
0.000306523
-0.000361935
0.000224769
0.000548239
-0.000575453
2.54325e-05
1.78201e-06
-0.00546507
0.0484806
-0.0503249
-0.00851686
0.0109732
-0.0155558
0.0130994
-0.0248332
-0.0398043
0.00547137
-0.024503
-0.00868996
-0.0418564
-0.0063981
0.00391018
-0.00203927
-0.0716659
-0.000328694
-0.000241134
-0.000372183
0.000942011
0.0569197
0.00154377
-0.0584634
0.00403571
-0.00214056
-0.00390976
0.00201461
-0.0665309
-0.0456229
0.0511489
0.0610049
-0.00587341
0.00307707
-0.000981672
0.00479633
-0.02004
0.0275863
-0.0123426
0.000158176
-0.00120037
0.00104219
0.0787939
-0.0766778
0.0305567
0.0042794
-0.0308733
-0.00396277
0.00138607
-0.00292421
0.000358755
-0.00143237
-0.000233853
-0.000401702
-0.0305751
-0.0520618
0.0751286
0.0075083
0.000331038
-0.00748073
0.00998581
-0.00283612
0.000944159
0.00405455
-0.000701302
-0.0013934
-0.000743665
0.000739923
-1.53606e-05
0.000331997
0.00117122
-0.000664494
-0.000186573
-0.000320152
-0.00314959
0.00159784
-0.0192355
0.0140513
0.00304172
-0.0123951
-0.00127775
0.0121002
-0.00308537
0.00152716
0.00244232
-0.0668058
0.0205572
0.0150672
0.00184948
0.000146253
0.00159831
-0.00359405
0.00239173
0.002517
-0.00342271
-0.000570489
0.00112301
-0.00115301
-1.21106e-05
-9.60682e-06
2.17174e-05
0.003057
0.00366013
-0.00103178
0.0082161
-0.011368
0.0102735
-0.00712159
0.00410598
-0.00224954
0.000222985
-0.00207943
-9.86518e-05
-0.000298782
0.000110484
0.00028695
-0.000375248
0.000153644
0.000215356
6.24729e-06
-0.000179841
-0.000559487
-0.000369209
0.00110854
-0.000802102
0.00219833
-0.000208776
-0.00501025
-0.00311545
0.00216033
0.00596538
-0.00250087
0.00130162
0.00867144
-0.00747219
0.000583808
-0.00011324
-0.000526217
-0.00222948
-0.000309268
-5.75676e-06
-0.000689061
0.000163621
0.00012731
0.000398129
0.000869845
-0.000851811