/*--------------------------------*- C++ -*----------------------------------*\
| =========                 |                                                 |
| \\      /  F ield         | OpenFOAM: The Open Source CFD Toolbox           |
|  \\    /   O peration     | Version:  2506                                  |
|   \\  /    A nd           | Website:  www.openfoam.com                      |
|    \\/     M anipulation  |                                                 |
\*---------------------------------------------------------------------------*/
FoamFile
{
    version     2.0;
    format      ascii;
    arch        "LSB;label=32;scalar=64";
    class       surfaceScalarField;
    location    "0.00481384";
    object      phi;
}
// * * * * * * * * * * * * * * * * * * * * * * * * * * * * * * * * * * * * * //

dimensions      [0 3 -1 0 0 0 0];

oriented        oriented;

internalField   nonuniform List<scalar> 
7606
(
0.00104958
-0.000580058
-0.000874875
0.000405352
-0.002051
-0.0043933
0.00127827
0.00516603
-0.0314072
-0.00476179
0.0332965
-0.00111464
-0.000626565
8.71275e-05
0.00165408
0.00123596
-0.000966582
0.00134415
-0.00161353
-0.00216582
-0.00582896
-0.00217416
0.0101689
0.000271789
-0.000150472
0.00176951
-0.00338077
0.0192583
0.00714809
-0.0174504
-0.00895592
0.0013374
-0.00297506
-0.00912646
0.0107641
0.00200229
0.00515175
0.0114735
0.0010181
-0.00401127
-0.000164522
0.00315769
-0.00145158
0.000812219
0.00143468
-0.000795315
-0.00155683
-0.000532134
0.000637377
2.74382e-05
-0.00071218
-4.39157e-06
0.000689133
0.000737596
0.00017523
-0.000454427
-0.000458399
0.000248335
0.000437625
-0.000634292
-5.16676e-05
-0.015175
0.0111356
-0.00416667
0.0082061
0.00061098
0.00073451
-0.000464211
-0.000881279
0.000766459
-0.00137136
0.00799872
-0.00739382
-0.00743161
0.00877662
-0.000578558
-0.00177099
-0.000150449
0.00223525
0.00207502
0.00216321
-0.0419916
0.00240756
0.00365655
0.000246755
-0.00631086
0.00599538
-0.00114464
-0.00428159
-0.000569144
-0.00117554
0.000740813
0.00086668
-0.000431949
-0.00575792
0.00718057
0.000984906
-0.00387753
0.0122117
-0.000233593
-0.00810055
0.0209857
0.00878201
-0.000467212
-0.00208763
0.00223621
0.000318627
-0.00288956
0.00189205
0.00265688
-0.00165938
0.00126041
-0.00228335
0.000515385
0.000507557
0.00142988
0.000157341
-0.00265944
0.00107222
-0.000576338
0.00195163
0.00209557
-0.00347086
-0.000546151
-0.00117986
0.000205812
0.0015202
-0.00908415
0.00378227
0.00192348
0.0033784
-0.000755184
0.000739734
1.545e-05
0.00160449
-0.00223526
0.000741906
-0.000111131
3.23393e-05
-0.000134663
0.000504055
-0.000401732
0.000592232
-6.52104e-05
0.000239671
-0.000766692
0.000453805
-0.000484662
0.000168659
-0.000137802
0.00243926
0.000799517
-0.000781494
-0.00245728
-0.00041278
-0.00203003
0.00189159
0.000551221
-0.00267552
0.000379186
0.00188356
0.00216931
0.00234655
-0.000144081
-0.00437179
-0.00162139
-0.000813785
0.000405139
-0.000801086
-0.000459837
0.00326615
-0.00200523
0.00197928
-0.000888776
3.17199e-05
-0.000122696
0.000437777
-0.000346801
-0.000232227
0.000280347
0.000158567
-0.000206687
-0.00341773
0.000651838
-4.21105e-05
0.002808
-0.000217156
1.6649e-05
-0.000203056
-0.000423844
0.000462357
0.000164543
6.40154e-05
8.83617e-05
3.72345e-05
-0.000189612
0.000575968
0.00031038
-0.000822332
0.000483213
-0.000307591
0.000514946
-0.000690569
0.0046389
0.00762644
-0.00780952
-0.00445582
-0.00138557
-0.00243205
0.00232109
0.00149653
-0.000417998
-0.000295881
-0.000272989
0.000986867
0.0117058
-0.00225981
-0.00676512
0.00136121
0.00697217
0.00190547
-0.0102388
0.00287107
0.00333849
0.00280124
-0.0254837
0.0244617
0.00102208
-0.00256914
-0.00046094
0.00224403
0.000786044
-0.000501529
-0.00263648
0.000568875
0.000250741
0.00111487
-0.00114899
-0.000216626
0.000149047
-0.00184046
0.0114491
-0.00975773
0.00186693
0.0100918
0.000134303
-0.0120931
-0.00306498
-0.00126913
0.00197299
0.00236112
-0.000348892
-2.23815e-05
-0.000143181
0.000514454
-0.00311873
0.00013522
-0.00187809
0.00486159
-0.000595293
0.000227898
-0.000340313
0.000707708
0.000471756
-0.000165924
-0.00034614
4.03087e-05
-0.00187349
0.00240731
-0.0109081
0.0103743
-0.0157473
0.0116531
0.00552216
-0.0014279
-0.0034386
-0.00644928
0.00201431
0.00787357
0.0120707
0.013229
-0.00757022
-0.0177295
0.0011458
-0.00332093
0.00211947
5.56623e-05
0.000525727
-0.00046694
-0.00029776
0.000238973
0.00221431
-9.15646e-05
-0.00258996
0.000502718
-0.000132778
0.000388768
-0.000758707
0.000460976
0.000169826
-0.000128085
-0.0046063
0.000365924
0.0071224
-0.00288203
-0.00566996
-0.00489362
0.0128792
-0.00231564
-0.00038263
-0.000203388
7.06394e-05
0.000515379
-1.1152e-05
8.94983e-05
-0.000627692
0.000143788
0.00051941
-3.55057e-05
0.000536965
-0.000317795
-4.93443e-05
-0.00222314
0.00467772
-0.00124519
-0.00120939
0.0262681
-0.00586266
-0.0115523
-0.00885312
0.00925842
-0.0103779
0.000505583
0.000613945
0.00346689
-0.00501343
0.0020884
-0.000541861
0.00109014
0.00206445
-0.00108108
-0.00207351
0.000994691
0.00524345
-0.0055116
-0.000726544
-0.0030416
-0.000217162
-0.00799617
0.0112549
-0.00162878
-0.00291196
0.00382426
0.000716479
-0.00364138
-0.00164513
0.00278208
0.00250443
0.000460137
-5.9072e-05
-8.29068e-05
-0.000318158
-0.00937906
-2.20046e-05
0.00923779
0.000163273
-0.000298974
0.00113854
0.00430738
-0.00514694
-0.00056279
0.008009
0.000264903
-0.00771112
0.0066936
0.000597915
-0.0078688
0.000577293
0.00220093
-0.000718386
0.00263235
0.00221738
-0.00438665
-0.00250079
0.00467006
0.00199917
0.000105853
-0.00276495
0.000659929
-0.000474438
0.00234785
0.000678235
-0.00255165
-0.000404839
0.00155201
0.00173732
-0.00288449
0.0157593
-0.00756339
-0.0061919
-0.00200401
-0.000406484
-0.000259242
0.000636562
2.91638e-05
0.00939227
-0.0095811
-0.00484698
0.00503581
0.0085397
0.00219795
-0.00868338
-0.00205427
-0.000918549
0.00174445
0.00077869
-0.0016046
0.0609833
-0.0327217
-0.0234953
-0.00476631
0.000150407
0.00234331
0.000648847
-0.00314256
-0.000960565
0.00123101
0.00298728
-0.0112492
0.0118092
0.000472249
-0.0010323
-0.0032225
-0.000280426
-0.000190192
0.00369312
0.00297928
-0.00191208
-0.000445016
-0.000622182
-0.000998136
0.000168628
0.000397949
3.89594e-05
-0.000436908
0.00811927
0.00037342
-0.00218547
0.00678517
0.00344581
-0.00579655
-0.00443442
0.00428053
0.00262298
-0.00397196
-0.00293154
-0.000794594
0.0027815
0.00148952
-0.0015824
-0.00196623
0.00205911
0.0057979
0.00145296
0.00148489
-0.000824804
-0.000282987
0.00408707
0.00118086
0.00111625
0.000260124
-0.00255724
-0.00060994
-0.000670125
0.00113579
0.00014427
-0.00392448
-0.00220404
0.00248713
0.00271384
-0.00109514
-0.00057661
-0.0010421
0.030186
-0.00634463
-0.00850439
-0.015337
-0.000463585
0.0013179
-0.000213047
-0.000641271
-0.0008013
0.000121482
5.73163e-06
0.000674086
-0.00761455
0.00698675
-0.00203225
0.00266005
-7.76625e-05
-0.000960865
2.62954e-05
0.00101223
-0.00319188
0.00162587
0.00216737
-0.000601354
0.00188131
-0.000566142
1.98285e-05
-0.001335
4.15633e-05
-0.00187591
-0.000718634
0.00255298
0.00417237
-0.00465819
0.00997793
-0.00949211
-0.000756097
-0.000271949
3.99925e-05
0.000988053
0.000791963
-0.00473815
-0.0015645
0.00551068
-0.00867898
0.0129671
-0.00982641
0.00129266
0.00226545
0.000525716
-0.00408383
-0.000886858
0.000579245
0.00049578
-0.000188167
0.0038044
-0.00412086
-0.00261352
0.00292997
0.0144972
0.000705464
-0.0155533
0.000535577
-0.000629932
-0.00185575
0.0019501
0.00352235
0.000181616
-0.00346285
-0.00024112
-0.0136885
0.00116475
0.0139831
-0.00145928
0.00328285
0.000463521
0.00625841
-0.0100048
0.024937
-0.026603
0.00166601
-0.00259878
0.00221718
0.00237871
-0.0019971
-0.00123158
-0.000822468
0.00135957
0.00069448
0.00254158
0.00758328
0.00685681
-0.00144248
-0.00201525
0.00421996
0.00612296
-0.00937295
-0.000969964
-0.00143836
-0.00289926
0.00295242
0.00138519
0.00277944
0.00132804
-0.00292662
0.000611277
0.00284898
-0.00463885
0.00117859
0.00382785
-0.00173964
-0.00383723
0.00174902
-0.00181925
0.00303326
-0.000744885
-0.000469122
0.00894092
-0.00792056
0.00278825
-0.00380861
0.00210757
-0.00975414
0.0100281
-0.0023815
-0.000117813
-0.00504471
0.00980142
-0.00953064
0.00900047
-0.00513978
0.00215984
-0.00241171
0.00158153
-0.00132967
-0.000467227
6.64394e-05
0.00101905
-0.000618259
-0.000688544
0.00670395
-0.00586635
0.00164777
0.00047212
0.00448345
0.00654447
-0.00275646
-0.00827146
0.01775
-0.00801778
-0.0209311
0.0111989
-0.020467
-0.0263818
0.00508557
0.000439103
0.000414161
-0.000804056
-4.92082e-05
0.000731536
-0.000365524
-0.000897916
0.000531904
0.00150073
-0.00484092
-0.00530476
0.00864496
-0.00562308
-0.00135739
0.002068
0.00491247
0.00464084
-0.000632302
-0.0076427
0.00363415
0.0106098
-0.0226713
0.0298116
0.00142868
-0.00336993
0.00323391
0.00176783
0.000345317
-0.0020043
-0.000108851
0.00115473
-0.000885801
-0.000686929
0.011078
-0.00203796
-0.00538921
0.00329048
-0.00112857
0.00311012
-0.00527202
-0.0064472
-0.00157665
0.00531044
0.0027134
0.000171629
0.00343353
0.000675368
0.0014329
-0.00298115
0.0015714
-2.31471e-05
0.0304322
-0.022604
-0.00290644
-0.0049217
0.000352999
0.00269923
-0.000419068
-0.00263317
-0.0358847
-0.00827053
-0.00252124
0.00443678
-0.00285766
0.000942116
0.00349333
-5.63127e-06
-0.00312257
-0.000365134
0.00123635
0.000102593
-0.00907671
0.00773777
-0.0152883
0.00859512
0.00430516
0.00238804
0.00174534
0.0018676
-0.0110322
0.0074193
-0.000733529
0.00190775
-0.00400547
0.00283124
-0.001921
0.0109273
-0.00261258
-0.00170387
0.00373816
0.000578293
0.00380791
-0.000399423
-0.00368203
0.00027354
0.000916784
0.00222706
-0.000697901
-0.000230855
0.00297828
0.00106049
0.00101956
-0.00309012
0.00885573
0.000299052
-0.000443157
-0.000339787
0.000483892
0.00628602
-0.000945823
-0.00506612
-0.000274078
-0.00144022
-0.00259601
0.00245563
0.00158059
0.00912053
-0.00973571
0.000517625
9.75556e-05
-0.000238464
0.000929842
-0.00232015
0.000482323
-0.000436456
0.000174535
-0.000220403
-3.0327e-05
-0.0011039
0.000247368
0.00133977
0.00152644
0.000912242
-0.00374787
0.00221451
0.00314733
-0.00161397
-0.000506343
-0.000145483
-0.000523717
0.00117388
0.0020648
-0.0036637
0.000425024
0.00159917
-0.0025871
-0.0010997
0.0113877
0.00312788
-0.0282848
0.0137692
-7.44648e-05
0.000271832
-0.000537524
0.000340157
-0.00149015
0.000449705
-0.0115663
0.000198754
0.000871245
-0.00201495
0.000944951
0.000283762
-0.000187727
0.000442869
-0.000538904
-0.0116251
0.00773449
0.00784767
-0.00395709
0.000336015
-0.000263418
-0.000539824
-0.000316476
0.00302424
-0.00194864
-0.000759123
-0.00398505
0.00439564
0.000379045
-0.000789632
-0.0106259
0.0115619
0.00320795
-0.004144
-0.000392678
-0.001617
-0.0036134
-0.010885
0.0153894
0.0125158
-0.0170202
0.0154324
0.000888575
-0.00901867
-0.00102787
-0.00964282
0.00936762
0.00130307
-0.000394725
-0.0123304
-0.00195268
-0.000141941
0.00381085
-0.00171623
-0.000645461
0.000810359
0.000633159
-0.000798056
-0.000541608
0.000715827
0.000136862
-0.000311081
-0.00384525
-0.00303817
0.00227713
0.00170518
-0.00406502
0.00297111
0.000790223
0.000451067
-0.000562053
0.00107453
-0.000316531
-0.000195943
-0.00129169
-0.00256203
-0.00357789
0.00226268
-0.00676157
0.00945332
-0.00495443
0.00924309
0.00208244
-0.00958019
-0.000272952
-0.000420614
0.000693566
0.00354903
-0.000168947
-0.00468931
0.00130922
-0.00465439
0.00203982
0.0118487
-0.0092341
-0.00766287
-0.00598753
0.0184987
-0.00484827
0.00393179
0.00206867
-0.00657308
0.000572619
-9.92159e-05
-0.00118584
0.00376133
-0.00247628
-0.0108698
0.000481081
-0.0143265
0.000232727
0.000405227
0.00238615
-0.00217401
0.00115032
-0.00136246
0.00104692
0.00519423
0.00546461
0.00433247
0.00173865
-0.00788946
0.00181834
-0.000780591
-0.00235397
0.004238
-0.00110343
-0.00380744
-0.00296931
0.00260023
0.00417653
0.0113511
0.00500497
-0.00218336
-0.0141727
-0.0022079
0.0043938
-0.00512934
0.00294343
0.00157756
0.000258018
-0.000507678
-0.0013279
-0.00184687
0.00260503
0.00172209
-0.00248025
0.00225684
-0.00239386
-0.000785453
0.000922472
0.000370854
0.000144526
0.000216156
-0.0024798
-0.000322304
-0.000389782
0.00553701
0.00181666
0.0020979
-0.00945157
-0.00168286
-0.00110138
0.00117376
0.00161048
-0.00229341
-0.000558839
0.00322933
-0.000377091
0.00634281
-0.000669286
-0.0018167
-0.00385683
-7.89826e-05
-0.000621222
0.000700205
0.000838694
-6.58035e-05
-0.000364373
-0.000408517
-0.00110372
0.000405876
-0.00187762
0.00257546
0.00112165
0.00014654
0.000873502
-0.00214169
0.000589778
-0.00361515
0.000135815
0.00159256
-0.000674397
-0.00033328
-0.000584888
0.000392457
0.000764439
-0.000672492
-0.000484405
0.00019563
-0.00221991
-0.0010407
0.00151313
0.00225297
-0.00150102
-0.00226508
-0.024638
0.000131105
0.00101598
-0.000980977
-0.000166108
0.00035128
0.00169741
0.000296409
-0.0023451
0.00584805
0.00117151
-0.0023739
-0.00464566
-0.00145299
0.000791201
0.000959264
-0.00029747
-0.0032832
-0.000518168
0.00423914
-0.000437766
-0.00187548
0.00381571
-0.00157165
-0.000368574
0.00163491
-0.000502773
-0.00107529
-5.68545e-05
0.0023589
-0.000356942
-0.00216654
0.00252926
-0.00204352
0.0016808
0.000447529
2.58428e-05
-0.000532688
5.93169e-05
-0.000447495
-0.000818665
0.000453699
0.00081246
-0.00241459
0.00638314
-0.00360262
-0.00180134
0.00162024
0.00244379
-0.00226269
-0.00260086
-0.00113974
0.00334792
-0.00176764
0.00218861
0.000732383
-0.00115336
0.00116682
-0.001954
0.00229802
-0.00151084
-0.00500267
0.00127712
-0.00474349
0.00846905
-0.00186798
-0.00223808
0.00181265
0.000801751
-0.00112165
0.00378817
-0.000493002
-0.00110137
0.000676424
0.000917946
0.000441603
-0.000586061
-0.000990945
0.0011354
0.00156406
0.000270377
0.000199628
-0.00203407
-2.97114e-05
0.00208661
-0.00253884
0.000481948
-0.00102961
0.000113015
0.00200674
0.00153676
-0.00107374
-0.000463018
0.00247974
-0.000784182
0.000185755
-0.000356052
0.000312093
-0.00056598
-9.73902e-06
-0.00151942
0.00114079
-0.000715947
0.000442995
-0.00580329
-0.0117095
0.00688694
0.00282702
0.00150443
-0.0032098
-0.0154466
-0.00168601
-0.00757787
0.00744456
0.000220459
-8.71412e-05
-0.0100149
0.00252671
0.00556414
0.00192407
0.00314553
0.000137389
-0.00292992
-8.52376e-05
0.00105504
0.00179355
0.00553027
-0.00647903
-0.000844792
0.0119384
-0.000338654
-0.00568602
-0.0059137
-0.00160691
0.00379259
-0.00237734
0.000191666
-0.00137496
-0.00103914
0.000247571
0.00114028
-0.00184444
0.000902912
0.00103014
-0.00453425
0.00109407
0.00241004
0.00385154
-0.0177392
6.93765e-05
0.0138183
-0.000103851
0.00113023
-0.000415395
0.000213755
0.000675455
-0.000622928
-0.000266282
-0.00053834
0.00200263
0.000487724
-0.00195201
0.000629741
0.000587106
0.000249934
-0.00146678
-0.00166156
-0.000202788
0.00207446
-0.000489661
-0.000979505
0.000577317
0.000891848
-0.00157252
0.000573898
0.00274545
-0.00174682
-0.000171407
-2.99262e-05
-0.000585988
0.000787321
-0.00511008
0.00865593
0.00406265
-0.00760851
-0.00457143
0.00617589
-0.000812491
0.013033
0.000128975
-0.00391885
0.00510718
0.00904092
0.00316303
0.00212869
-0.00749962
0.00341848
-0.00289561
-0.00130346
-0.000239768
0.000260837
0.000453211
-0.00047428
0.000599901
-0.000565068
0.000213502
-9.29891e-05
-3.58055e-05
0.00187966
-0.00268648
0.00214658
-0.000100771
-3.56225e-05
0.000136393
-0.00103235
0.00489582
3.37219e-05
0.000422839
-0.000456561
0.00133763
0.00189234
-0.00208417
0.000325853
0.000586952
-0.000782338
-0.000130467
-0.000313323
0.00134668
-0.00130445
0.000271089
-0.000348282
0.000790964
-0.000225713
-0.00021697
-0.00324344
0.00182245
-0.00171728
0.00313827
7.85975e-05
0.00149136
-0.000904815
-0.000665143
-0.00171644
-0.00240785
0.00386268
0.000261613
-0.000159098
0.00479632
-0.000165232
-0.004472
-0.000995381
-0.00272329
-0.00020581
-0.00189361
-0.000466504
9.08348e-05
0.00226928
-0.000355923
0.00011533
-0.000257881
0.000498474
0.000713624
-0.00015856
-0.00158468
-0.000610859
2.85044e-06
0.00314838
-0.00254037
-0.00495204
0.00297202
0.0111155
-0.00913551
-0.000677778
0.000513753
0.00172522
-0.00156119
-0.0012123
0.00467014
-0.001617
-0.00184083
-0.000954224
0.000455618
0.00105187
-0.000553267
-0.00205038
0.00313436
-0.000387721
-0.00069625
-0.00257568
0.00606905
-0.00860346
-0.00355814
-0.01317
-0.00154364
0.0182718
-0.0012839
-0.0209374
0.0191749
0.00304646
-0.00832038
-0.0125772
0.0187318
0.00341857
-0.000679482
-0.00140146
-0.000432931
-0.000205629
-0.000117537
0.00406999
-0.00172383
0.000922109
-0.00326826
-0.000529002
0.000411761
-0.000172204
0.000289444
0.00175798
-0.00156643
5.08162e-05
-0.000242367
0.00387465
0.00063945
0.0112452
0.0021941
0.00047156
0.00120885
-0.00563176
0.00701522
0.00415354
-0.00333739
0.00409491
0.00414566
-0.00490318
0.00462252
0.00136884
0.00175019
-0.00774155
0.00242573
-0.00674951
0.00737756
-0.00305377
0.00335613
-0.0126329
0.00364504
-0.000991564
0.00113185
0.00344234
-0.00358262
0.00432699
-0.00646504
0.00114649
-0.00024837
0.000810179
0.00358603
-0.00414784
0.000390439
-0.00402592
0.00338711
0.00417489
-0.00397131
0.000606593
-0.0040977
0.00210395
0.00262726
-0.000633499
0.000482179
-0.00248713
0.00239539
0.00104501
-0.000931992
-0.00417035
0.00405733
0.0244458
0.0190333
-0.0320914
0.000474844
-0.00281075
0.000100128
0.00223578
-0.00147134
-0.000920482
-0.000426444
0.00281826
-0.00248386
0.00244269
0.00111838
-0.00107721
0.00409235
0.000538387
-0.00415589
0.000244526
-0.0002474
-0.000592418
-5.85592e-05
0.000757415
-0.00045433
0.000450041
0.000338474
-0.000518513
-0.000270001
-0.000142624
0.000182862
0.000422477
-0.000462716
-0.00102258
0.000878533
-0.000103349
0.00148778
-0.000282128
0.00122821
-0.00243386
0.00262871
0.000721079
-0.00186201
0.00153415
-0.00493193
0.00390239
-0.000504613
0.00223394
-0.00156002
-0.00214525
0.00151261
-0.00267947
0.000884726
0.00791625
-0.00312844
-0.00476516
-2.26498e-05
0.00353156
0.00453155
-0.000146861
0.00398164
0.0020658
-0.00410481
-0.00194262
0.00649648
-0.00429009
0.00177525
-0.0020953
0.00546334
-0.000204218
3.62303e-05
3.00325e-05
0.000137955
-0.00231981
-0.00037955
0.00498413
-0.00303699
-0.00196979
-0.00106331
0.00538081
0.000666631
0.000971818
-0.00191154
0.00196986
-0.00193276
-0.0010644
-0.0015371
0.00200311
0.00082238
-0.00408539
0.0012599
-0.00137152
0.00120287
-0.00118671
0.00135536
-0.000695167
-0.00194222
-0.000718342
0.00335573
0.000521498
-0.000531237
0.00318977
-0.00723568
0.000306162
0.00914691
0.00575623
-0.00440534
-0.00858657
0.00241283
0.00168554
0.000479977
-0.00457835
0.00167528
-0.00367021
0.00112936
0.000865571
0.00263253
-0.00321792
0.00299822
0.00433384
0.00147366
0.00206101
0.0514731
-0.0485622
0.0152311
0.00387663
-0.0152561
-0.0451156
0.0471766
-0.0111386
0.00213178
0.0247911
-0.0157843
-0.0148676
-0.0270461
0.01549
-0.0154523
0.0080476
-0.00808532
0.00025039
0.000300451
-0.000906893
0.000727961
3.16605e-05
0.000169833
-0.000395169
0.000828932
-0.000603596
0.000684539
0.00162165
-0.00539318
0.000625141
0.00578614
0.000568514
-0.00061003
0.000164288
-0.000122773
-0.00477754
-0.00598872
0.00537308
0.00216232
0.000693017
0.000932687
-0.00378803
0.00315136
0.0121704
0.00426536
-0.0024455
0.00212878
-0.00394865
0.00498037
-0.0049514
-0.000188064
0.00238547
-0.000984389
0.000761245
0.000317426
-0.000514426
-0.000151892
0.00161047
-0.00087179
-0.000234028
-0.000504652
0.000477461
0.000201743
6.1608e-05
-0.000364347
0.00104453
-0.00130261
0.000622419
5.28394e-05
0.000906693
-0.000141411
-0.000818122
0.00600095
-0.00772714
-0.00722155
0.00894774
-0.00195711
0.00255913
-0.00162098
0.00101896
-0.00268485
0.00211479
-0.00265244
8.49556e-05
0.000312993
0.000876839
-0.00250087
-0.0152618
-0.00344105
0.000726487
-0.000680233
0.000112891
0.000630342
-6.3e-05
-0.0112579
-0.00195145
0.00831571
-0.000683239
0.00119962
-0.000325153
-0.000191229
-0.00370024
-0.0113492
0.00379154
0.000703331
-0.000619141
-0.000490674
0.00404985
0.012073
-0.0122482
0.0103268
-0.013951
0.0129494
-0.0106792
0.000867207
-0.00313745
-0.00044359
-3.60477e-05
0.000432801
4.68373e-05
0.000274867
-0.00348131
-0.00108597
0.00429242
0.00232263
-0.000448587
-0.000769456
-0.00320665
0.000494796
0.00251934
0.00246199
-0.00217022
-0.00281111
-0.00246674
0.00534829
-0.000362215
0.0104998
0.00364184
-0.00105438
-0.00175531
-0.000185323
0.0014662
0.0118036
-0.0056129
0.00229263
-0.00848337
-5.82304e-05
-0.00101945
0.0016289
-0.000551222
-0.049046
-0.00280733
0.0518534
0.00462126
-0.00108662
0.000695176
0.00343751
0.00048857
-0.00162677
0.00160027
-0.00257436
-0.000125662
-0.000856137
-0.000785837
0.000314079
6.6409e-05
0.000158179
-0.000538666
6.76389e-05
-0.00047227
0.00350484
-0.000148218
-0.00161217
-4.95473e-05
-0.00136452
0.00141406
7.05229e-05
-0.000948882
0.000267824
0.000610535
-0.00184244
-0.00275672
0.00287411
0.00172504
-0.0022504
0.000439191
-3.12257e-05
0.000415263
-0.0034564
0.00141436
0.00122712
0.00224339
-0.00168683
-0.00178369
0.00312
-0.00136264
-0.000530241
0.00264067
0.000883702
-0.00108512
0.00209312
-0.000376112
-0.000420063
-0.00129694
0.00139715
0.00135779
-0.000114265
0.0170697
-0.0227811
0.0164403
-0.0107289
0.006418
-0.0033119
-0.00481505
0.00170896
-0.000521653
0.00361157
0.00409023
-0.00718014
0.00341031
0.000194209
0.00432382
-0.00136215
-0.00316393
0.00103439
0.00349168
-0.0011154
0.000169285
-0.000572067
0.00151818
0.000618148
-0.00157366
-0.000159882
0.00182687
-0.00155297
0.000344245
0.00062648
-0.000716302
-0.000641194
0.000731016
-0.00105838
0.00249708
-0.00122528
-0.000638828
0.00203339
-0.00112195
-0.00116171
-0.0223338
0.0149998
-0.0235758
0.000833877
-0.00099376
0.000316752
-0.000156869
0.000613219
0.000217562
3.09711e-06
0.00162132
0.00189573
-0.00190658
-0.00108113
0.00321194
-0.00278564
0.000654839
-0.00116787
-0.00101404
0.00333276
-0.00115085
-0.000803883
-0.001092
0.000728017
-0.00183554
0.000185489
0.00411204
0.000292752
0.00230463
-0.0040415
0.00144412
0.00217353
0.000591477
-0.00102678
-0.00173823
1.40162e-05
0.000137154
0.0023892
-0.00254037
0.00120319
0.00387577
-0.00390508
-2.17814e-05
-0.00337943
0.000760566
0.00264065
0.00103369
-0.00149083
0.000603678
-0.000743465
0.00122437
0.000140599
0.00120937
-0.00305158
0.0042914
0.000824974
-0.00119441
-0.00343544
0.00205364
0.00257621
0.000958626
-0.00130611
-0.00211925
-0.00161207
-0.000409375
0.00137566
0.000645792
0.000753049
-0.000602492
-0.000870814
0.000720256
-0.00138227
-0.00091304
0.000504428
-0.000832747
0.00252925
0.00956706
0.00897658
-0.00812261
0.000201019
0.000289308
-0.000564792
-0.000466923
0.00112182
-0.000485062
0.000943688
-7.14625e-05
-0.000970393
9.81673e-05
0.000218114
-0.000136562
-0.000429834
0.000265061
0.000223568
3.70976e-05
-0.00112815
-0.00030654
0.00292523
-0.00149055
0.000228345
-1.8305e-05
-0.000565963
0.000346931
0.000155737
-0.000376063
-0.000126606
0.000818859
0.000710752
-0.0031186
0.00158899
0.00163836
-0.0012471
-0.000140525
0.000389086
0.0026048
0.00045203
-0.00344592
0.000360713
0.00208486
-0.00205649
-0.000190189
0.000572055
0.00180675
0.000577077
-0.000816121
0.000172668
6.63754e-05
0.00253434
-0.00294681
-0.00867168
-0.00483031
-0.00403338
0.00779124
0.00107245
0.00100094
-0.0027239
-0.00229387
0.00401683
-0.000802435
0.0102434
0.00424599
-0.00304578
0.00353094
-0.00473116
0.00312486
0.000434507
-0.00111731
-0.00244206
0.00757346
0.0113639
-0.0155812
0.00598972
0.00300013
-0.00799502
-0.000994838
7.37128e-05
-0.00279808
-0.0025873
0.00531166
-0.001267
0.00732314
-0.00881441
0.00275827
-0.00243122
0.00172815
-0.00134731
-0.000965154
-0.000658604
-0.00118869
0.00281245
1.06294e-05
-0.000560821
0.00232254
-0.00177235
-0.000420983
-0.00140089
0.00284799
0.0002214
0.00840366
-0.000977318
-0.00764774
-0.00478035
0.00863381
0.000318905
0.00671387
0.00328854
-0.0125777
0.00257526
-0.00574194
0.00939678
0.00145233
0.0035013
0.00660198
-0.00338941
-0.00189927
0.0124788
-0.0239494
0.0149971
-0.00343731
0.00735947
0.00598706
-0.000397101
-0.00516973
-0.00547903
0.00508425
0.00464076
0.0100849
-0.00737408
-0.00633245
0.00362167
-0.00356531
0.00246729
-0.0017614
0.00285941
0.00203641
-0.00290524
0.00119682
-0.00625214
0.00796056
-0.00163651
-0.00888328
-0.00305166
-0.00127512
-0.00176924
0.00609602
0.00675202
0.00172635
-0.00201356
-0.00646481
-0.00845557
-0.00182072
0.00532425
-0.000457809
0.00743123
-0.0101431
0.021144
-0.00314501
-0.0053771
0.00727799
-0.00017454
0.00148879
-0.000961759
-2.25998e-05
0.00290764
-0.00420343
-0.00408131
-0.00639915
0.000699739
0.0084804
-0.00278099
0.00637904
-0.00151712
-0.00195428
-0.00398555
-0.00590668
0.00533547
0.00455676
0.000548094
0.00136076
-0.00589441
0.00407374
-0.00387503
-0.00200024
0.00180153
0.0400654
0.0012047
0.00394477
0.000302223
-0.000173249
-0.00071176
-0.00874358
0.00354866
0.00122137
-0.00221379
-0.00301884
-0.00113084
0.0110244
-0.00455809
0.00738867
-0.00747673
-0.00702408
0.00711214
-0.00200801
0.0145706
-0.00517387
-0.000354679
-0.0031474
0.00472344
0.00052215
-0.00954058
0.00154169
-0.00106609
0.00573083
-0.00535328
0.00439785
-0.0076358
0.0130828
-0.00984483
-0.00501695
-0.00363716
0.013052
0.0048336
0.000205482
-5.8712e-05
-0.00433482
0.00415147
-0.0102853
0.00245566
0.00385202
0.00397766
-0.00119738
-0.00915737
0.0109125
-0.000557766
-0.00235274
-0.005869
0.00350252
0.00323339
-0.0008669
-0.0129336
0.0290091
-0.00766647
-0.00840903
0.00109746
-0.00121771
0.00211942
0.00880309
-0.0118263
-0.00991036
-0.00794258
-0.00583604
0.00404292
-0.00557412
-0.00600562
0.00542471
0.0113029
-0.00812084
-0.00860679
0.000322914
-0.00229881
0.00060093
6.2616e-05
0.00106544
-0.00037332
-0.000754732
-0.000761633
-3.74987e-05
-2.16894e-06
0.00100842
-0.000724489
-0.000716867
-0.000476777
-6.02085e-05
0.00234117
-0.00180418
0.00205526
-0.000580261
-0.00161808
0.000143082
-0.00354094
0.00771054
-0.000145762
-0.00627621
0.00351812
0.00821225
0.0255832
0.0106625
-0.0099776
-0.0157817
0.0200073
-0.00599119
0.0016904
0.00167043
-0.00118293
0.00130144
0.000915184
0.000141599
0.00102539
-0.000193076
0.00122735
-0.000311889
-0.00072721
-0.000188247
0.000809171
7.50325e-05
-0.000291971
0.00306986
-0.00800271
0.00197913
0.00636995
-0.00527922
-0.00263632
0.00193724
0.000372503
0.000326575
-0.00593691
-0.00867133
0.0300982
0.00326494
-0.00401628
-0.00770539
0.00845673
0.00311062
-0.00206797
0.000837011
0.00127956
0.0054227
-0.00328378
0.00421796
0.000104966
-0.00242362
-0.000834105
3.98069e-05
-0.00124472
-0.00372639
0.00254749
-0.00511324
0.00996865
5.77593e-05
-0.00252981
0.00182003
0.000652015
-0.000616193
0.00297503
-0.000574178
0.000727396
0.00168927
-0.00273008
0.00205209
-0.000425728
-0.00312613
0.000745661
0.00168457
0.000695901
-0.00248717
-0.00188041
-0.00356172
0.00792929
-0.0019719
0.00161198
-0.00276621
0.00234487
0.00465048
-0.0031675
-0.0270281
-0.00775844
-0.0137756
-0.00191893
-0.000443165
0.00172327
-0.00825574
0.00674351
-0.00690645
-0.00232423
0.00113207
0.00187561
-0.00474731
-0.00406841
0.00187101
0.00267737
-0.0104077
0.0178803
0.00298371
-0.00209716
0.00274105
-0.000637548
0.000368014
0.00213303
-0.00058669
0.000680715
0.0468104
0.00895881
0.00291382
0.000360093
-0.00410666
-0.000742182
-0.00286578
0.00641572
-0.0085936
0.00489394
0.00262703
0.000695578
-0.000132836
0.00178763
0.00190044
-0.00106104
-0.000733499
0.0023074
-0.00174231
0.000168408
0.00430706
0.0118633
-0.0155309
-0.00554762
-0.00261456
0.00932884
-0.00116666
0.00487407
-0.00178655
-0.00513853
-0.00505703
0.00236771
0.000795911
-0.00813008
-0.00650519
-0.0112844
0.00599684
0.0230396
-0.0148789
-0.00489579
0.00115666
-0.0201413
0.0045582
-0.00206576
0.00899827
0.00184152
0.00746833
0.000767982
-0.00036889
-0.00339635
0.00499646
0.00208996
-0.00369007
-0.00107347
-0.00169286
0.000520488
0.00224584
0.000805009
0.00187144
-0.00252604
-0.00182306
-0.00102394
0.000971519
-1.09744e-05
2.11645e-05
1.13002e-05
-2.14904e-05
0.00196355
0.00157953
-7.44333e-05
-0.00346865
0.00305242
0.00284392
-0.000350654
0.0018208
-0.00260689
0.00113675
-0.00615619
-0.00207885
0.0092546
0.0174887
-0.0161869
0.00220323
-0.00350508
-0.0197409
0.0169573
0.0100227
-0.00144683
-0.00259466
-0.00598119
-0.00126039
-0.00275507
0.00421109
-0.00232925
0.00239024
0.000625469
-0.000686461
0.00149495
0.00147788
-0.00215044
0.00205854
-0.000594989
-0.00145292
0.000869047
-0.00151069
1.58296e-05
0.000625812
0.00557577
-0.00669408
0.00325201
-0.00213369
0.000860333
-0.000302524
0.00113503
-0.00169284
0.000135366
0.00313656
-0.000293592
-0.000495115
0.0102018
-0.00702468
-0.00464591
0.00146874
-0.00030818
-0.000429651
0.000447182
0.000142805
-0.000160336
0.00132075
-0.00286601
-0.000641273
0.00218653
0.00112286
-0.0081824
0.011543
0.00387581
0.000586523
-0.000767113
-0.00210381
0.000763154
0.00134127
-6.11187e-07
0.00195368
-0.00103112
0.00295325
-0.00173896
0.00173086
-0.00055074
0.00246374
-0.000374173
-0.00291437
-0.00129229
-0.0055007
0.00136283
0.00543016
0.000137398
0.00274627
0.000236079
-0.000802543
0.002197
0.00099101
-0.00136055
-0.00156557
-0.000285578
0.00327157
-0.000158971
7.72313e-05
0.000631285
-0.00130829
0.000599778
-0.00168785
0.00146313
0.000712329
-0.00048761
0.00921513
-0.0116685
0.00185384
0.0108854
0.000284417
-0.000751383
0.00116287
5.7137e-05
0.000990428
-0.000590798
-0.00320645
0.0088974
0.0043327
-0.0100237
0.001446
-0.00210431
-0.000306842
0.010124
-0.00541013
0.00513372
-0.00984762
0.00572291
-0.0144681
-0.0115515
0.0202967
0.000180011
-0.00336435
0.00245084
0.00287318
-0.00218919
-0.00408034
0.00347932
-0.0104127
0.00772931
-0.00344679
0.00151946
0.00601968
-0.00546376
0.00500316
0.00105038
0.000671379
-0.000140707
-0.000243832
-0.00028684
0.000440611
0.00248463
0.00438179
0.0586765
-0.0035934
0.00506757
-0.027856
0.0337578
0.000830607
0.000614329
-0.00119455
0.00233991
0.002432
-3.04628e-05
-0.00293606
0.00646783
0.0303944
0.000707637
-0.0197679
0.00168869
0.00229747
-0.00133068
0.00014775
-0.00329553
0.00497096
-0.00194428
0.000268852
-0.00322398
-0.000517072
-8.33262e-05
-0.000279023
0.000772989
-0.00041064
0.000476729
-0.000361768
0.000112067
-0.000227028
0.000266237
-3.71024e-05
0.000380869
-0.000610003
0.000607254
0.00449339
-0.00405563
-0.000877291
-6.55172e-05
0.000776552
0.000166256
0.00106064
-0.000822539
-0.000908452
0.000670348
-0.000516708
0.000419854
-0.00353007
-0.00236463
0.00247697
0.00193016
0.00159726
-0.00137881
-0.000707912
0.000855964
0.00123076
-0.00361612
0.00414171
0.0006117
-0.00113728