/*--------------------------------*- C++ -*----------------------------------*\
| =========                 |                                                 |
| \\      /  F ield         | OpenFOAM: The Open Source CFD Toolbox           |
|  \\    /   O peration     | Version:  2506                                  |
|   \\  /    A nd           | Website:  www.openfoam.com                      |
|    \\/     M anipulation  |                                                 |
\*---------------------------------------------------------------------------*/
FoamFile
{
    version     2.0;
    format      ascii;
    arch        "LSB;label=32;scalar=64";
    class       volScalarField;
    location    "0.0321319";
    object      k;
}
// * * * * * * * * * * * * * * * * * * * * * * * * * * * * * * * * * * * * * //

dimensions      [0 2 -2 0 0 0 0];

internalField   nonuniform List<scalar> 
47425
(
0.344785
0.37102
0.343262
0.339665
0.493314
0.35018
0.4562
0.353008
0.366994
1.06689
0.358517
0.366042
0.402239
0.342675
0.343369
0.357779
0.342635
0.383607
1.05886
0.551188
0.346262
0.347586
0.35828
0.345994
0.354803
0.342461
0.33851
0.855932
0.337138
0.348933
0.356301
0.354785
0.357571
0.347799
0.345469
0.354876
0.346056
0.364288
0.344729
0.344473
0.381103
0.391453
0.523326
0.378621
1.05395
0.381065
0.35663
0.355407
0.343516
0.345019
0.806333
0.534437
0.341393
0.911567
0.387675
0.372364
0.343937
0.346722
0.470439
0.349567
1.02044
0.76156
0.834541
0.370417
0.364588
0.350171
0.354048
0.367105
0.862376
0.365757
0.3423
0.347607
0.345121
0.349714
0.840389
0.368814
0.831199
0.346833
0.90027
0.548902
0.864674
0.350479
0.35207
0.354451
0.343511
0.35035
0.343712
0.342009
0.534248
0.647451
0.35564
0.363605
0.348384
0.382125
0.392856
0.378034
0.34251
0.342629
0.337486
0.381853
0.351901
0.47462
0.347704
0.502681
0.34689
0.363922
0.343166
0.34253
0.34496
0.357861
0.799219
0.349931
0.395399
0.364877
0.356334
0.84487
0.354639
0.677224
0.370762
0.367903
0.341684
0.36301
0.359551
0.386118
0.369891
0.396644
0.353055
0.365031
0.37155
0.348128
0.35264
0.36201
0.554383
0.375967
0.386028
0.383338
0.35475
0.401056
0.345757
0.341768
0.3605
0.389954
0.353229
0.441521
0.361806
0.366295
0.445251
0.352022
0.377332
0.365301
0.437051
0.811526
0.361026
0.825094
0.373545
0.354602
0.379427
0.932276
0.38215
0.364891
0.367726
0.347425
0.343913
0.349456
0.740646
0.862785
0.354593
0.845662
0.359261
0.883194
0.84189
0.374948
0.35584
0.361427
0.379782
0.425134
0.856504
0.338254
0.344604
0.345737
0.846085
0.340997
0.340182
0.347987
0.343286
0.352512
0.347979
0.474408
0.367742
0.341943
0.358847
0.341302
0.451107
0.365524
0.350189
0.357842
0.360963
0.355507
0.368144
0.331283
0.362144
0.369777
0.34711
0.357135
0.379999
0.378823
0.338692
0.355542
0.370336
0.362782
0.339031
0.341879
0.357069
0.332425
0.346267
0.351453
0.343937
0.586405
0.380987
0.37575
0.582367
0.326053
0.463146
0.335405
0.4013
0.561802
0.347281
0.357771
0.381429
0.416748
0.342315
0.355574
0.378713
0.369455
0.37858
0.350568
0.585009
0.36745
0.553785
0.372812
0.34909
0.345415
0.347867
0.349127
0.346033
0.363545
0.340796
0.36127
0.342625
0.346323
0.343639
0.537363
0.349541
0.365805
0.352326
0.343944
0.346936
0.386278
0.338625
0.358444
0.403727
0.358714
0.344842
0.375617
0.406834
0.377392
0.347714
0.405664
0.341692
0.355088
0.347074
0.537196
0.57711
0.345146
0.527835
0.385113
0.52886
0.505116
0.562059
0.587525
1.07782
0.342905
1.00425
0.388118
0.350657
0.331473
0.37753
0.345866
0.381663
0.363689
0.77079
0.360559
0.371311
0.340324
0.3426
0.363601
0.366296
0.343311
0.346994
0.395358
0.374029
0.347804
0.362533
0.343886
0.863685
0.862055
0.83049
0.345457
0.343876
0.347734
0.354006
0.797305
0.35265
0.357631
0.600956
0.375004
0.366791
0.390378
0.349009
0.649718
0.578718
0.35161
0.343532
0.340223
0.367818
0.342781
0.340571
0.341526
0.342359
0.343406
0.345
0.788418
0.365823
0.344311
0.385584
0.348443
0.791762
0.354674
0.343489
0.345078
0.350564
0.350394
0.340346
0.35216
0.345904
0.345532
0.345996
0.353076
0.345409
0.373173
0.350778
0.353163
0.351736
0.357072
0.350068
0.381314
0.357052
0.352134
0.354425
0.362348
0.406724
0.375169
0.36451
0.354582
0.342147
0.349612
0.385919
0.359818
0.352912
0.351177
0.384029
1.22919
0.338582
0.35801
0.385733
0.357256
0.386389
0.38305
0.364866
0.346341
0.358954
0.355076
0.339506
0.35655
0.372544
0.364804
0.357943
0.35047
0.353696
0.35505
0.353512
0.356407
0.360886
0.341261
0.353837
0.351844
0.347904
0.352702
0.427355
0.342769
0.681575
0.3456
0.790947
0.366019
0.386364
0.378473
0.343303
0.369002
0.339569
0.362596
0.353313
0.664706
0.831186
0.346389
0.373004
0.341811
0.34021
0.350295
0.351791
0.338714
0.372357
0.35485
0.343029
0.339611
0.341487
0.339872
0.45806
0.342936
0.354057
0.537325
0.482573
0.34608
0.671095
0.484321
0.373848
0.498584
0.787066
0.345098
0.340407
0.342293
0.341017
0.715632
0.371992
0.346349
0.345911
0.3477
0.34757
0.346675
0.346204
0.740038
0.693089
0.552694
0.357259
0.443402
0.424423
0.345759
0.356838
0.392326
0.355107
0.357465
0.363266
0.377867
0.346704
0.369636
0.344385
0.349197
0.367025
0.359688
0.346471
0.345881
0.351954
0.358141
0.384369
0.371139
0.3424
0.371986
0.35644
0.770195
0.376417
0.437223
0.352852
0.38297
0.63274
0.367974
0.345715
0.37051
0.357124
0.347647
0.368975
0.382987
0.335526
0.362627
0.343392
0.366697
0.483463
0.34092
0.384314
0.348234
0.398217
0.343589
0.343663
0.342829
0.343018
0.366672
0.359007
0.343589
0.341075
0.347895
0.35852
0.355301
0.364206
0.366669
0.345559
0.34834
0.340413
0.339228
0.34849
0.369121
0.345024
0.373311
0.363537
0.375701
0.78825
0.354178
0.348186
0.363115
0.365838
0.484184
0.488918
0.370588
0.347274
0.374357
0.448364
0.351072
0.500694
0.363026
0.548287
0.390287
0.386726
0.347544
0.491302
0.346944
0.349168
0.355119
0.347241
0.340184
0.341654
0.993091
0.345307
0.391897
0.344515
0.467598
0.348542
0.345936
0.448469
0.436856
0.354433
0.343552
0.318188
0.342634
0.345739
0.344492
0.343677
0.345396
0.40963
0.463859
0.367538
0.343879
0.352373
0.345825
0.553768
0.351262
0.347933
0.289185
0.353269
0.343138
0.387408
0.77071
0.352199
0.218859
0.248546
0.338689
0.35437
0.342847
0.347612
0.382176
0.372703
0.718719
0.349506
0.377956
0.342413
0.476245
0.4048
0.374877
0.349701
0.912819
1.0787
0.352206
0.352611
0.343467
0.356437
0.382131
0.396857
0.351764
0.360839
0.379408
0.3381
0.36907
0.50559
0.379371
0.352147
0.512856
0.369658
0.346464
0.364715
0.364221
0.341384
0.362675
0.385699
0.402344
0.354993
0.348921
0.346081
1.03943
0.359401
0.415449
0.80584
0.788053
0.34436
0.381181
0.768483
0.37351
0.457564
0.656611
0.37705
0.838981
0.341845
0.349071
0.358055
0.524467
0.382544
0.375922
0.344234
0.386973
0.345928
0.345112
0.350083
0.36408
0.373176
0.731241
0.746947
0.37045
0.383801
0.367704
0.362004
0.386719
0.355087
0.355597
0.361509
0.352829
0.359591
0.383376
0.360272
0.341503
0.438243
0.386944
0.831105
0.581803
0.369642
0.356085
0.369101
0.346223
0.861898
0.346799
0.818337
0.37431
0.452766
0.382105
0.355349
0.358545
0.337281
0.4019
0.348506
0.339007
0.40409
0.402883
0.368627
0.425171
0.369218
1.2885
0.382603
0.387189
0.406979
0.363936
0.34054
0.387016
0.347821
0.424008
0.350634
0.350179
0.395732
0.353941
0.354183
0.348501
0.344631
0.514067
0.593987
0.345908
0.477146
0.34521
0.36044
0.337319
0.342835
0.392989
0.337856
0.338977
0.350218
0.346353
0.713866
0.947839
0.351715
0.350132
0.344539
0.363737
0.342616
0.358531
0.365289
0.588473
0.355885
0.343093
0.354857
0.344544
0.343254
0.348798
0.344574
0.344404
0.350481
0.344071
0.369164
0.585378
0.343448
0.280713
0.620319
0.584858
0.247674
0.362992
0.614482
0.399986
0.378414
0.553276
0.324622
0.853816
0.356189
0.340327
0.444805
0.370784
0.597452
0.359927
0.36889
0.34393
0.346651
0.437367
0.37831
0.361644
0.377711
0.47784
0.411747
0.352723
0.378518
0.535441
0.512519
0.543298
0.801543
0.838614
0.663414
0.694647
0.363458
0.374066
0.345365
0.342946
0.367401
0.272378
0.372338
0.359757
0.370962
0.34734
0.291657
0.25699
0.343544
0.399476
0.354542
0.344877
0.385708
0.343519
0.346135
0.345298
0.367568
0.478486
0.344978
0.347365
0.344366
0.378525
0.368778
0.578068
0.478368
0.339828
0.374483
0.343362
0.34411
0.343796
0.375552
0.376813
0.609274
0.346139
0.341899
0.349987
0.433485
0.882256
0.353756
0.35266
0.452169
0.367484
0.350187
0.381358
0.359684
0.37699
1.02771
0.463068
0.851147
0.366915
0.433742
0.346238
0.418511
0.347095
0.36289
0.371533
0.349922
0.963934
0.488379
0.39916
0.556547
0.399788
0.345642
0.361889
0.433775
0.347714
0.374588
0.280892
0.344193
0.428835
0.385891
0.409537
0.761671
0.392049
0.388686
0.552326
0.349581
0.348761
0.470778
0.546435
0.357245
0.45636
0.495994
0.348347
0.357376
0.339602
0.364121
0.372499
0.370381
1.10087
0.992712
0.395857
0.484354
0.521724
1.14559
1.15007
0.573333
0.380551
0.361421
0.374166
0.385897
0.781327
0.346507
0.372562
0.374595
0.376175
0.36357
0.353673
0.372146
0.342289
0.39553
0.519606
0.363842
0.924613
0.346831
0.426183
0.37666
0.365958
0.358777
0.353766
0.375203
0.487681
0.385138
0.419889
0.515586
0.36737
0.34715
0.369937
0.474955
0.342373
0.410236
0.360675
0.391334
0.68241
0.790502
0.340634
0.363832
0.356881
0.3622
0.373485
0.714856
0.552225
1.08506
0.349974
0.406408
0.364998
0.666757
0.341357
1.14277
0.412665
0.393676
0.444623
0.643712
0.347115
0.335749
0.346199
0.366948
0.430209
0.356569
0.440563
0.718676
0.438468
0.341654
0.345779
0.710652
0.845634
0.553177
0.569095
0.88748
0.407007
0.380045
0.446235
0.340547
0.520041
0.380051
0.394367
1.13668
0.371226
0.345992
0.343958
0.361818
0.424679
0.387265
0.351994
0.365963
0.491067
0.347333
0.357378
0.348034
0.355664
0.378509
0.414898
0.378081
0.370805
0.356406
0.388463
0.350553
0.334112
0.342997
0.356876
0.416767
0.520405
0.369385
0.404729
0.342777
1.22353
0.389875
0.375919
0.353102
1.00963
0.619389
1.02006
0.29615
0.369139
0.377368
0.695064
0.341406
0.376747
0.42406
0.373326
0.375612
0.783633
0.37527
0.351934
0.377439
0.392305
0.345559
0.634475
0.991285
0.342907
0.973742
0.357543
0.696955
0.765964
0.344393
0.375207
0.375924
0.65075
0.367884
0.369204
0.380496
0.760525
0.400884
0.608325
0.341723
0.356418
0.344488
0.348684
1.05914
1.08166
0.376823
0.403493
0.4136
0.696671
0.351401
0.342226
1.24217
1.01492
0.365612
0.35523
0.913818
1.21254
0.868497
0.382793
0.691538
0.976171
0.779064
0.349859
0.500526
0.478296
0.369931
0.361342
1.10535
1.29441
0.407547
0.412029
0.360593
0.356661
0.379223
0.354754
0.52272
0.353011
0.366962
0.344899
0.347143
0.923124
0.833004
0.35572
0.623338
0.460488
0.345602
0.55123
0.342185
0.359225
0.350952
0.378431
0.39892
0.34173
0.758236
0.34941
0.889499
0.681629
0.710518
0.414159
0.416586
0.365059
0.380074
0.345394
0.582483
0.994597
0.372513
0.821739
0.571937
0.837067
0.50815
0.938647
0.744188
0.358258
0.345417
0.800813
0.351826
0.35512
0.347933
0.728116
0.656112
0.347448
0.373405
0.665735
0.460432
0.890965
0.787736
0.368492
0.511791
1.03365
0.364997
0.372113
0.724744
0.351808
0.800055
0.869702
0.357216
0.349308
0.356061
0.349181
0.391963
0.337784
0.354425
0.380787
0.379291
0.526474
0.39381
0.358268
0.527613
0.706694
0.860317
0.378724
0.380653
0.541006
0.358301
0.962707
0.352443
0.372444
0.368127
1.19668
0.358325
1.54891
0.391584
0.538377
0.394121
1.07817
0.650557
0.536425
0.45117
0.575772
0.407073
0.363739
0.422588
0.618528
0.548442
0.493688
0.783275
0.388412
0.482672
0.715618
0.388235
0.341653
0.763926
1.11106
0.34341
0.358846
0.361011
0.379543
0.69525
0.853148
0.345802
0.364192
0.359801
0.954287
0.357575
0.656037
0.412973
0.353366
0.356354
0.500861
0.402106
0.658392
0.596782
0.383502
0.420003
0.480911
0.352699
0.924852
0.992756
0.359888
0.88223
0.742944
0.376878
0.553381
0.361397
0.404915
0.931932
0.40312
1.14146
0.696347
0.360068
0.41096
0.452624
0.365604
0.356265
0.433429
0.516419
0.462519
0.349461
0.434105
0.353727
0.615803
0.427786
0.384822
0.39023
0.513958
0.344286
0.856504
0.652384
0.407713
0.772677
0.784152
0.344037
0.519807
0.450649
0.385657
0.381676
0.4996
0.753089
0.53491
0.769577
0.345689
0.785501
0.47913
0.345885
0.426535
0.39108
0.527997
0.378424
0.429199
0.630612
0.343973
0.649807
0.380466
1.27971
0.396972
0.341272
0.389786
0.552465
0.403867
0.693336
0.450045
0.354747
1.02777
0.346684
0.374713
1.09189
0.34236
0.384234
0.733737
0.378493
0.761203
1.26442
0.386099
0.448737
0.349767
0.908356
0.554986
0.742871
0.614635
0.449583
0.379855
0.474681
0.826839
1.1448
0.840498
0.367896
0.359098
0.369756
0.354224
0.385304
0.727767
0.36824
0.353333
0.380726
0.342303
0.368591
0.377048
0.361585
0.358854
0.379609
0.483938
0.348337
0.381485
0.548029
0.357297
0.347077
0.393152
0.390348
0.361358
0.343992
0.366825
0.364154
0.356117
0.380504
0.628812
0.361992
0.369945
0.34416
0.345919
0.552759
0.346342
0.348135
0.537156
1.12433
0.735553
0.355503
0.586926
0.524534
0.347552
0.521119
0.47974
0.508243
0.371966
0.354288
0.371638
0.433748
0.350089
0.381476
0.40213
0.382379
0.343682
0.346328
0.376266
0.538036
0.368445
0.441743
0.858089
0.356701
0.65883
0.437361
0.858509
0.345282
0.377987
0.379521
0.347356
0.36019
0.376008
0.345707
1.00216
0.600823
0.882852
0.391753
0.98488
0.343069
0.359738
0.520188
0.345188
0.785205
0.399152
0.636899
0.339129
0.918218
0.921689
0.358492
0.342553
0.586249
0.358923
0.591348
0.343121
0.377476
0.344815
0.343585
0.344388
0.352867
0.365765
0.58031
0.42184
0.401004
0.366212
0.347623
0.351746
0.372924
1.32658
0.374571
0.975768
0.438459
0.343985
0.382137
0.364554
0.357599
0.358193
0.384113
0.356555
0.363165
0.346394
0.339145
0.375285
0.370902
1.61701
0.969352
0.381104
0.384484
0.696269
0.355261
0.344574
0.342456
0.342729
0.378677
0.383965
0.400359
0.389359
0.359196
0.344052
0.433199
0.345179
0.339016
0.355102
0.74855
0.394972
0.848724
0.771887
0.837835
0.35753
0.343422
0.340972
0.339347
0.349132
0.663912
0.359981
0.344687
0.359458
0.369292
0.345773
0.45692
0.343567
0.380162
0.474287
0.363272
0.339512
0.347268
0.359409
0.368798
0.3444
0.367129
0.351821
0.500962
0.341203
0.353755
0.382356
0.350369
0.352969
0.343406
0.368469
0.33755
0.383094
0.397898
0.347085
0.340802
0.340204
0.34304
0.345299
0.377197
0.346226
0.347098
0.347913
0.359151
0.903046
0.350649
0.462907
0.341752
0.346877
0.772299
0.359188
0.376401
0.342878
0.356257
0.372626
0.383159
0.747334
0.378161
1.26965
0.342536
0.350161
0.376014
0.347615
0.348856
0.387582
0.361053
0.346958
0.347814
0.788729
0.476078
0.690132
0.38458
0.583309
0.379933
0.337677
0.397299
0.923244
0.375263
0.347853
0.345325
0.800606
0.341469
0.354558
0.37179
0.359359
0.348016
0.814635
0.343951
0.362768
0.354161
0.359721
0.403264
0.946075
0.839237
0.346015
0.344011
0.34712
0.388001
0.374291
0.347198
0.818208
0.832214
0.341164
0.369919
0.749408
0.345188
0.530518
0.483633
0.345012
0.343832
0.350313
0.350685
0.553539
0.365939
0.355688
0.364873
0.406207
0.354392
0.361833
0.626678
0.363094
0.496878
0.532597
0.389816
0.619399
0.374677
0.38807
0.425067
0.379265
0.368192
0.362189
0.855189
0.627118
0.377994
0.383416
0.362003
0.377871
0.370166
0.445253
0.348934
0.341389
0.359227
0.355433
0.537652
0.470156
0.855227
0.740003
0.37739
0.378549
0.355717
0.360417
0.365369
0.351562
0.357341
0.344172
0.346204
0.41086
0.355958
0.349332
0.346016
0.628031
1.28767
0.386402
0.339664
0.441917
0.532546
0.847459
0.342778
0.726334
0.878823
0.664264
0.755445
0.43857
0.345087
0.345025
0.361473
0.879241
0.34303
0.373084
0.366859
0.343155
0.573687
0.536037
0.510478
0.357078
0.950352
0.345547
0.350575
0.379821
0.376259
0.689243
0.755822
0.257725
0.469452
0.303402
0.418403
0.348242
0.922183
0.355608
0.882914
0.374326
0.873763
0.368651
0.523444
0.368288
0.54054
0.380544
0.384434
0.390947
0.356473
0.360548
0.445765
0.419302
0.361448
0.355232
1.20939
0.539169
0.367144
0.643621
0.669573
0.630151
0.351726
0.352356
0.690717
0.725897
0.739752
0.355431
1.05024
0.349753
0.912604
0.915211
0.398505
0.603432
0.342319
0.398683
0.348176
0.352932
0.35954
0.544394
0.419822
0.343251
0.341756
0.374921
0.353202
0.344972
0.348094
0.494525
0.342908
0.339
0.36817
0.345264
0.464177
0.362492
0.39298
0.381932
0.344424
0.449821
0.491749
0.333707
0.341749
0.517584
0.791104
0.368315
1.0069
0.387806
0.46946
0.76354
0.451706
0.379187
0.344885
0.503135
0.356107
0.341593
0.365194
0.353101
0.346138
0.361096
0.345455
0.341519
0.349411
0.371927
0.361365
0.385498
0.743979
0.348738
0.353736
0.353143
0.360039
0.469296
0.709164
0.364696
0.349592
0.36814
0.612429
0.492621
0.351811
0.367096
0.870748
0.381971
0.394311
0.379885
0.440287
0.370447
0.365115
0.366039
0.558576
0.384843
0.37354
0.957224
0.360599
0.397771
0.358175
0.382727
0.363227
0.398966
0.364063
0.348557
0.349706
0.394721
0.3415
0.365232
1.17847
0.347393
0.459929
0.380884
0.356071
0.676158
0.40514
0.361488
0.371482
0.626465
0.656028
0.377567
0.354175
0.396798
0.430556
0.376623
0.350433
0.821925
0.50192
0.415424
0.837421
0.375937
0.348533
0.554015
0.488529
1.08317
0.442373
0.420239
0.550593
0.348977
0.575556
0.490422
0.810278
0.423646
0.364626
0.352964
0.63769
0.38459
0.421235
0.345349
0.376912
0.386038
0.422871
0.6683
0.373272
0.374665
0.337263
0.543448
0.782964
0.450764
0.756191
0.396759
1.01717
0.37566
0.375302
0.821241
0.536934
0.695707
0.327849
0.690507
0.612095
0.346638
0.344426
0.281174
0.398328
0.375504
0.802859
0.3889
0.415743
0.349455
0.483164
0.368656
0.348614
0.892044
0.30663
0.540463
0.336999
0.407343
0.373795
0.372465
0.389575
0.393152
0.349113
0.344533
0.377379
0.414086
0.225056
0.230965
0.384347
0.397862
0.358847
0.445815
0.483108
0.389687
0.372391
0.392258
0.232409
0.411328
0.423527
0.295241
0.378171
0.767225
0.472027
0.359316
0.920124
0.397063
0.518752
0.922532
0.396876
0.37847
0.348208
0.985385
0.347721
0.341839
0.396875
0.384015
0.430405
0.364602
0.534425
0.3724
0.534318
0.34472
0.393286
0.379794
0.34049
1.04829
0.413638
0.998622
0.661379
0.34379
0.815762
0.506638
0.347715
1.37275
0.344054
0.342296
0.444221
0.486962
0.911938
0.721899
0.389381
0.724148
0.798808
0.347955
0.573461
0.90347
0.481004
1.12579
0.420705
0.35161
0.636635
0.718917
0.399829
0.943403
0.404567
0.374789
0.563123
0.404945
0.353091
0.376581
0.781879
0.67092
0.340333
0.56201
0.355841
0.389752
0.370058
0.389832
0.581958
0.466846
0.735181
0.354824
0.361332
0.716232
0.349118
0.367974
0.505981
0.354145
0.376617
0.746265
0.377937
0.916716
0.82404
0.811456
0.793997
0.376554
0.43421
0.346101
0.344363
0.45941
0.348052
0.346099
0.402606
0.350639
0.456386
0.85793
0.348981
0.544228
0.354591
0.505886
0.399884
0.878325
0.371349
0.482242
0.354486
0.356567
0.411468
0.350266
0.364324
0.352968
0.342158
0.578684
0.33603
0.383939
0.396308
0.363479
0.372296
0.384395
0.382441
0.705106
0.374819
0.348862
0.35941
0.430592
0.308908
0.680082
0.525299
0.676531
0.980324
0.443827
0.455571
0.147858
0.340768
0.89525
0.43687
0.548435
0.404274
0.755853
0.68869
1.2233
0.402534
0.370755
0.547873
0.927697
0.386389
0.278146
0.478281
0.297511
0.445218
0.446329
0.818752
0.934063
0.305986
0.414691
0.216873
0.362929
1.13243
0.361487
0.37807
0.350308
0.353079
0.487284
0.350207
0.63616
0.506132
0.348294
0.390689
0.351946
0.578358
0.66201
0.365184
0.435752
0.40417
0.939948
0.462954
0.365942
0.552589
0.559301
0.341896
0.352826
0.371503
0.342083
0.669394
0.351183
0.476591
0.648432
0.353526
0.383959
0.35192
0.352102
0.480648
0.392245
0.554252
0.335395
0.342204
0.587219
1.10517
0.351752
0.36325
0.351874
0.349192
0.639286
0.457408
0.803098
0.383012
0.346878
0.48572
0.400236
0.379986
0.352866
0.406077
0.386955
0.571865
0.492659
0.944858
0.434948
0.456835
0.351549
0.379991
0.812272
0.939729
0.438154
0.913555
0.380648
0.916147
0.466709
0.74432
0.508141
0.494028
0.396162
0.359344
0.391614
0.439688
0.587103
0.368001
0.406853
0.98035
0.375143
2.51635
0.375307
0.353065
0.380687
0.495697
0.399371
0.348241
0.783559
0.345145
0.344314
0.339642
0.377167
0.802645
0.522526
0.351875
0.554852
0.360725
0.379225
0.35141
0.359162
0.451876
0.41516
0.442368
0.377691
0.345802
0.430889
0.371694
0.33826
0.434194
0.404641
0.812839
0.38908
0.494259
0.383421
0.435904
0.382289
0.458194
0.341191
0.382845
0.354743
0.372287
0.391616
0.808274
0.342117
0.603134
0.308562
0.392835
0.379892
0.38484
0.383084
0.468203
0.613583
0.350393
0.370823
0.371275
0.524833
0.414085
0.339869
1.12539
0.766265
0.62513
0.350153
0.34614
0.531514
0.35902
0.357201
0.521015
0.364707
0.358197
0.401253
0.815374
0.348115
0.592048
0.348089
0.35345
0.453345
0.35881
0.387576
0.488725
0.348172
0.568348
0.435511
0.440199
0.476038
0.923625
0.35343
0.360928
0.385266
0.413826
0.38843
0.382293
0.34667
0.346922
0.374885
0.599275
0.382948
0.384988
0.91473
0.381016
0.674401
0.359659
0.383198
0.426045
0.356777
0.58709
0.379483
0.458547
0.400092
0.357014
0.369812
0.418775
0.554446
0.46639
0.348403
0.61056
0.377584
0.92413
0.768033
0.666224
0.361826
0.492892
0.378385
0.26414
0.424734
0.304141
0.471796
0.229854
0.433198
0.681471
0.437071
0.640611
0.688248
0.390107
0.285408
0.309051
1.08663
0.60913
0.71659
1.19231
1.01908
0.391612
0.830602
0.355421
0.370629
0.756621
0.419497
0.863615
0.403281
0.737752
0.750432
0.367227
0.384514
0.359452
0.33927
0.374297
0.343279
0.73346
0.404869
0.38058
0.573784
0.350096
0.367643
0.341123
0.372969
0.367223
0.382555
0.401817
0.344724
0.43403
0.896599
0.342099
0.352493
0.359986
0.346104
0.70561
0.677794
0.421468
0.39475
0.574808
0.343646
0.34097
0.371848
0.391709
0.354351
0.361806
0.349166
0.343995
0.445326
0.337991
0.408849
0.363081
0.346457
0.351728
0.505734
0.358272
0.368549
0.346348
0.446449
0.364835
0.381358
0.723977
0.445927
0.375246
0.41328
0.366753
0.395684
0.396308
0.376519
0.356583
0.38522
0.372613
0.358741
0.393563
0.375164
0.451369
0.479725
0.359858
0.368534
0.425894
0.457565
0.512769
0.556032
0.796017
0.946213
0.366843
0.349821
0.889226
0.566741
0.56009
0.354665
0.347717
0.360851
0.343905
0.360653
0.351156
0.356933
0.384892
0.345778
0.352361
0.346879
0.35946
0.348301
0.543553
0.407586
0.371348
0.349142
0.358551
0.672114
0.341525
0.353872
0.41658
0.999242
0.656348
0.37508
0.363651
0.369546
0.404768
0.47101
0.738131
0.432216
0.358219
0.376618
0.360645
0.353741
0.397675
0.441569
0.378575
0.346143
0.422648
0.410602
0.628403
0.424482
0.711025
0.583594
0.397141
0.416455
0.351747
0.366553
0.387694
0.345021
0.348752
0.641786
0.354143
0.369429
0.721854
0.369602
0.384383
0.388915
0.433049
0.345109
0.36965
0.351199
0.38327
0.746281
0.369121
0.458794
1.66769
0.582874
1.10153
0.842971
0.3584
0.369467
0.556472
0.343713
0.585876
0.524508
0.712775
0.369879
0.346448
0.698924
0.349235
0.581016
0.44081
0.354194
0.736924
0.836358
0.345682
0.352833
0.890708
0.34647
0.344775
0.343572
0.345166
0.370546
0.485897
0.594032
0.369497
0.813162
0.354995
0.367159
0.343907
0.885384
0.361855
0.933884
0.347089
0.384149
0.348319
0.467775
0.34682
0.511445
0.339722
0.61776
0.501502
0.50315
0.707438
0.358806
0.364665
0.829434
0.472413
0.36979
0.447639
0.593872
0.36443
0.445659
0.358972
0.627326
0.435675
0.349389
0.34007
0.48543
0.357758
0.411969
0.37443
0.345249
0.365548
0.347004
0.35059
0.361668
0.709873
0.351513
0.347656
0.346528
0.351736
0.347265
0.352286
0.356399
0.379151
0.412159
0.393078
0.391762
0.347058
0.289773
0.372304
0.403264
0.742933
0.3132
0.802997
0.350394
1.26495
0.399514
0.294653
0.384417
0.391565
0.391295
0.352899
0.336049
0.374421
0.373525
0.346509
0.363287
0.34748
0.712583
0.347088
0.359152
0.396656
0.975683
0.239145
0.365849
0.828998
0.625181
0.639117
0.567117
1.08404
0.19136
0.422622
0.391654
0.373636
0.363148
1.73739
0.489684
0.423961
0.348969
0.34485
0.758609
0.371025
0.484535
0.427324
0.387305
0.538812
0.386095
0.6301
0.353
0.374783
0.355649
0.347729
0.399175
0.342318
0.371139
1.12047
1.14246
0.989153
0.475075
0.740351
0.362426
0.340476
0.340806
0.379613
0.346982
0.394521
0.35493
0.435441
0.385357
0.344667
0.342766
0.37253
0.347121
0.365559
0.377065
0.356052
0.379273
0.557496
0.361306
0.403393
0.8096
0.383376
0.705694
0.854728
0.377221
0.404303
0.341825
0.50847
0.387803
0.397776
0.662897
0.347052
0.410986
0.371379
0.396596
0.349572
0.352261
0.497578
0.552097
0.375734
0.379623
0.797323
0.417242
0.642011
0.598371
0.361146
1.14967
0.449116
0.410517
0.394984
0.354422
0.437064
0.384085
0.325951
0.351016
0.303643
0.606015
0.214053
0.363907
0.398674
0.45248
0.224615
0.80146
0.349575
0.375026
0.415752
0.361155
0.419722
0.582465
1.51884
0.387065
0.365399
0.374389
0.719929
0.351316
0.404518
0.386646
0.358508
0.367602
0.364719
0.450506
0.347179
1.25956
0.399824
0.951892
0.351572
1.21637
0.778382
0.83211
0.378979
0.36023
0.502267
0.383242
0.367927
0.36125
0.369158
0.798978
0.342656
0.49266
0.619005
0.343367
0.355332
0.347982
0.355559
0.370405
0.361444
0.418138
0.410011
0.378376
0.377955
0.416987
0.360168
0.465989
0.351596
0.382155
0.352087
0.964319
1.08393
0.394848
0.406132
0.345081
0.979097
0.33911
0.350807
0.37119
0.346585
0.388135
0.372342
0.343297
0.345508
0.362614
0.740599
0.597083
0.370902
0.782553
0.347456
0.364612
0.347831
0.360233
0.766186
0.396018
0.842186
0.344222
0.35406
0.809664
0.89159
0.362719
0.356204
0.663208
0.377688
0.396815
0.484826
0.408809
0.384913
0.447791
0.383777
0.344226
0.389807
0.368873
0.512021
0.344742
0.37607
0.344125
0.357745
0.734963
0.690287
0.35127
0.35383
0.367897
0.369737
0.361661
0.545988
0.363923
0.376495
0.410593
0.369883
0.475042
0.424225
0.520406
0.408314
0.341838
0.347088
0.34454
0.403665
0.339024
0.54822
0.454347
0.346027
0.836023
0.36113
0.340246
0.383101
0.348466
0.391742
0.656386
0.364293
0.458845
0.372303
1.10223
0.417274
0.404263
0.376922
0.703636
0.378388
0.561996
0.393792
0.433453
0.348167
0.435678
0.418073
0.696494
0.485209
0.363694
0.353415
0.351635
0.569199
0.374363
1.00898
0.943494
0.376248
0.45381
0.358449
0.500794
0.473565
0.408335
0.771274
0.512947
0.700567
0.351379
0.400439
0.916047
0.516612
0.378045
0.503367
0.355719
1.09046
0.416419
0.390691
0.351547
0.343902
0.347993
0.364008
0.346185
0.772407
0.350353
0.631871
0.346878
0.458846
0.421193
0.559294
0.363427
0.367698
0.354557
0.614357
0.489344
0.540934
0.345879
0.351373
0.480915
0.398638
0.386968
0.340842
0.340543
0.343346
0.359865
0.344896
0.401728
0.351055
0.58211
0.45075
0.944905
0.785883
0.633719
0.594289
0.416794
0.424258
0.343711
0.620128
0.354308
0.36625
0.358583
0.487704
0.495316
0.357702
0.446339
0.804208
0.498424
0.345896
0.344144
1.31867
0.847438
0.406044
0.862584
0.896551
0.661902
0.771657
0.609764
0.731725
0.430122
0.66794
0.814582
0.343668
0.34724
0.340211
0.484965
0.633846
0.358264
0.348777
0.427583
0.383658
0.397123
0.852693
0.514338
0.924375
0.365685
0.341951
0.35688
0.339396
0.377999
0.824872
0.448672
0.643106
0.752503
0.345816
1.09056
1.14745
0.343552
0.532549
0.488861
0.805675
0.385267
0.501737
0.794205
0.756296
0.485124
0.803546
0.53567
0.716638
0.375874
0.37108
0.387659
1.00221
0.778253
0.413021
0.365796
0.586454
0.470066
0.603394
0.367715
0.402797
1.04486
1.13259
0.269274
0.342876
0.29685
0.345084
0.235017
0.417135
0.483932
0.635405
0.2291
0.464443
0.504066
0.171526
0.483694
1.22106
0.446915
0.414274
0.683321
0.366308
0.530655
0.356521
0.345515
0.358674
0.378242
0.762816
0.731224
0.915904
0.413772
0.420555
0.603197
0.410199
0.293899
0.427601
0.386847
0.361125
0.573967
0.380028
0.35445
0.353654
0.446777
0.42958
0.781308
0.502712
0.831933
0.921024
0.805558
0.374884
0.425749
0.711188
0.34957
0.589781
0.387722
0.419059
0.352981
0.825083
0.612261
0.385838
1.33371
0.638289
0.344529
0.464382
0.825723
0.830434
0.4217
0.375216
0.493657
0.973113
0.380022
0.353
0.377502
0.371075
0.611561
0.406728
0.651484
0.586477
0.668568
1.06516
0.571733
0.489251
0.763271
0.890832
0.861887
0.618862
0.733018
0.884034
0.562168
0.410702
0.476102
0.357879
0.339974
0.35046
0.436487
0.554138
1.17784
0.374735
0.392641
0.406265
0.378574
0.407656
0.58684
0.496681
0.360316
0.385998
0.954833
1.08841
0.236437
0.418967
0.352926
0.393581
0.901122
0.772523
0.376638
0.388274
0.35856
0.310883
0.315995
0.603407
0.363512
0.369117
0.353375
0.413485
0.855106
0.473665
0.385507
0.884839
0.342542
0.847818
0.68587
0.48485
0.689581
0.393399
0.343335
0.352458
0.354141
0.375096
0.435036
0.351847
0.366631
0.354702
0.354965
0.554669
0.530493
0.744673
0.356418
0.505114
0.392289
0.422908
0.373425
0.501022
0.380505
0.369893
0.366086
0.342638
0.359119
0.358615
0.479779
0.341868
0.387674
0.395375
0.636844
0.358906
0.42266
0.505126
0.814838
0.884239
0.413368
1.31818
0.420773
0.395696
0.388602
0.55181
0.362602
0.93441
0.465564
0.344211
0.45168
0.545214
0.440438
0.486451
0.692942
0.680823
0.492143
0.785921
0.374932
0.346933
0.423006
0.348609
0.34218
0.437497
0.350017
0.350786
0.584871
0.350553
0.342117
0.830754
0.771646
0.343332
0.346397
0.913511
0.352992
0.354868
0.601485
0.355183
0.725496
0.443929
0.801304
0.352016
0.573573
0.471461
0.706466
0.352679
0.466614
0.351017
0.937177
0.364648
0.347525
0.644479
0.451049
0.516055
0.38169
0.391842
0.374303
0.353258
0.517802
0.353665
0.349327
0.335391
0.467294
0.566029
0.342758
0.35787
0.345528
0.349426
0.360765
0.824391
0.346916
0.470889
0.347617
0.608996
0.372438
0.397072
0.378686
0.495067
0.36123
0.465026
0.345695
0.363213
0.369533
0.384761
0.35282
0.460293
0.443993
0.92066
0.863456
0.8009
0.419957
0.373341
0.37413
0.341283
0.343695
0.971908
0.663697
0.421318
0.392097
0.344667
0.365096
0.344969
0.346406
0.545888
0.532852
0.764917
0.534296
0.396675
0.361498
0.449315
0.346967
0.643954
0.361806
0.437288
0.371553
0.385184
1.01734
0.4462
0.341058
0.361034
0.426326
0.345314
0.264097
0.347313
0.41674
0.401897
0.915494
0.506393
0.781421
0.350127
0.37181
0.384853
0.375715
0.391752
0.359006
0.342011
0.343401
0.355956
0.35878
0.356472
0.596881
0.41533
0.866092
0.448807
0.351647
0.529635
0.381813
0.361984
0.352224
1.01892
0.907945
0.317422
0.34167
0.352382
0.828425
0.423858
0.463088
0.401842
0.388848
0.293925
0.375781
0.376317
0.342001
0.442672
0.503898
0.901225
0.553375
0.460016
0.339878
0.424342
0.650285
0.377776
0.34862
0.823146
0.883425
0.539619
0.672968
0.346199
0.341643
0.438524
0.348514
0.844754
0.34928
0.348704
0.350879
0.698183
0.344246
0.390851
0.48739
0.490951
0.348786
0.355797
0.365539
0.357186
0.335504
0.363469
0.403453
0.59568
0.468408
0.382095
0.627557
0.372897
0.601853
0.396151
0.904567
0.475376
0.431902
0.697545
0.314042
0.454879
0.535817
0.602698
0.43941
0.343048
0.353393
0.346136
0.375731
0.85102
0.389129
0.348286
0.368057
0.402197
0.347961
0.510634
0.373696
0.37864
0.489628
0.370188
0.349314
0.386812
0.380572
0.916452
0.838765
0.417042
0.366887
0.451207
0.365329
0.801129