/*--------------------------------*- C++ -*----------------------------------*\
| =========                 |                                                 |
| \\      /  F ield         | OpenFOAM: The Open Source CFD Toolbox           |
|  \\    /   O peration     | Version:  2506                                  |
|   \\  /    A nd           | Website:  www.openfoam.com                      |
|    \\/     M anipulation  |                                                 |
\*---------------------------------------------------------------------------*/
FoamFile
{
    version     2.0;
    format      ascii;
    arch        "LSB;label=32;scalar=64";
    class       volScalarField;
    location    "0.0321319";
    object      nut;
}
// * * * * * * * * * * * * * * * * * * * * * * * * * * * * * * * * * * * * * //

dimensions      [0 2 -1 0 0 0 0];

internalField   nonuniform List<scalar> 
47425
(
0.00622198
0.00541691
0.00486843
0.00206511
0.00355612
0.00485672
0.0050228
0.00340078
0.00742846
0.001886
0.00253483
0.00731017
0.00593651
0.00437754
0.00371273
0.00389471
0.0050822
0.00280834
0.000289746
0.00316143
0.00398768
0.00740042
0.00332363
0.00538228
0.00725995
0.00739351
0.00439463
0.000517383
0.00482699
0.00619309
0.00752299
0.00715792
0.00745868
0.00539615
0.00650833
0.00520856
0.00741098
0.00538097
0.0053223
0.00458059
0.00516791
0.00619093
0.00525098
0.00261051
0.000748919
0.00349227
0.00364298
0.00454587
0.00437867
0.00701753
0.000666906
0.0026161
0.0068163
0.000993611
0.00334461
0.00300604
0.00743904
0.00614687
0.0022162
0.00559208
0.000840716
0.000699387
0.000991665
0.00371164
0.00738497
0.0073063
0.0055684
0.00523124
0.00109899
0.00553287
0.00439762
0.0068373
0.00710495
0.00391212
0.00124258
0.00746284
0.00101767
0.00427174
0.000243372
0.00226322
0.00122235
0.00548294
0.00751308
0.00739436
0.00727501
0.00419595
0.0064098
0.00686441
0.00534127
0.00140595
0.00744008
0.00460145
0.00741754
0.00328477
0.0026304
0.00191983
0.00682259
0.00674481
0.00390022
0.0047022
0.00561302
0.00111828
0.00668151
0.00106529
0.00691801
0.00670072
0.00720843
0.0037079
0.00741221
0.00723616
0.00256881
0.00551297
0.00622125
0.00233297
0.007074
0.00035858
0.00709976
0.000791347
0.00452234
0.00629671
0.00433274
0.00747176
0.00598155
0.00334529
0.00371477
0.00671034
0.00414403
0.00741898
0.00344075
0.0074544
0.00745464
0.00360007
0.0010903
0.00301902
0.0066662
0.00598973
0.00719268
0.00656806
0.00503639
0.00344427
0.00502655
0.00287241
0.00485963
0.00562919
0.0067075
0.0074244
0.00424241
0.00549857
0.00244755
0.00502214
0.00572108
0.000561485
0.00739149
0.000435843
0.00361814
0.00415638
0.00347613
0.000306599
0.00398295
0.00481957
0.00726983
0.00742517
0.0068424
0.00723161
0.00126702
0.000555014
0.00745294
0.00124472
0.00334145
0.000892625
0.00123979
0.00423387
0.00480301
0.00437935
0.00506026
0.00138631
0.000399348
0.00493932
0.00651308
0.0073753
0.000330593
0.00717817
0.00571629
0.00728278
0.00712728
0.00687424
0.00616614
0.00121314
0.00246017
0.00640897
0.00747157
0.00494034
0.00466789
0.00474168
0.0071308
0.00727602
0.00582734
0.00479811
0.00738855
0.00415754
0.00537998
0.00299962
0.00736345
0.00720378
0.00298156
0.00237892
0.00648326
0.00721661
0.00413892
0.00747225
0.00533693
0.00532648
0.00745749
0.0035732
0.00558442
0.00564093
0.00500109
0.00175794
0.00391972
0.00392013
0.0021211
0.00288527
0.00583534
0.0035738
0.00239372
0.00168177
0.00709599
0.00274329
0.00716016
0.0048303
0.00520687
0.00479828
0.00349293
0.00748947
0.00226555
0.00367565
0.00195615
0.00312319
0.00223102
0.00204984
0.00415494
0.00620762
0.00745384
0.00333106
0.00739144
0.00732128
0.00508587
0.00590043
0.00740163
0.00456676
0.00749185
0.00248825
0.00527582
0.00742055
0.0038279
0.00743449
0.00727448
0.00312388
0.00353937
0.00739305
0.00314111
0.00746882
0.00448929
0.00275072
0.00607519
0.00405451
0.00735033
0.00572211
0.00558732
0.00428167
0.00440678
0.00246987
0.00196492
0.00704786
0.00259171
0.00212691
0.00258915
0.000563585
0.00201519
0.000684817
0.000924913
0.00639862
0.00091514
0.00305284
0.00436384
0.00389371
0.00350793
0.00380157
0.00411849
0.00703576
0.000772101
0.00632435
0.00737546
0.0060545
0.00517442
0.00354324
0.00318136
0.0072533
0.00524619
0.00460144
0.00403878
0.00733467
0.00401815
0.00581805
0.0011387
0.000841253
0.000583527
0.00744106
0.00702235
0.00748573
0.00338081
0.000839234
0.004019
0.00298131
0.0016041
0.00487542
0.00344126
0.00311642
0.00380699
0.00176514
0.00178295
0.00743203
0.00567866
0.00712908
0.00432495
0.0074016
0.00441377
0.00573406
0.00654561
0.00478682
0.00443113
0.00113388
0.0047261
0.00451857
0.00297914
0.00747579
0.00100763
0.00665175
0.00719354
0.00667614
0.00732599
0.00728892
0.00738366
0.00650896
0.00698376
0.00665643
0.00597455
0.00717237
0.00424593
0.00425797
0.00717841
0.00729203
0.00555552
0.00708785
0.00700639
0.00312835
0.00448999
0.00754729
0.00694416
0.00386022
0.0019174
0.00639774
0.00441963
0.00379536
0.00712182
0.00687101
0.00287536
0.00743178
0.00516831
0.00737811
0.00286826
0.0013866
0.0043732
0.00745138
0.00192625
0.00743107
0.00613771
0.00397177
0.0050263
0.00738369
0.00563167
0.00736583
0.00738789
0.00482385
0.00418604
0.00439924
0.00421661
0.00663556
0.00717851
0.00417224
0.00707184
0.0073226
0.0043564
0.00609525
0.00539129
0.00702134
0.00552066
0.0038437
0.00231292
0.00701486
0.000811061
0.00723343
0.00223856
0.00498109
0.00356626
0.00356332
0.00702597
0.00250387
0.00712067
0.00375464
0.00728775
0.00102814
0.00104045
0.00741963
0.00326536
0.004213
0.00392427
0.00434226
0.00456965
0.00433059
0.00409489
0.00514978
0.00740832
0.00326457
0.00486516
0.00684775
0.00330517
0.00454962
0.00654466
0.00101008
0.000383371
0.00704315
0.000521742
0.000465488
0.0040761
0.000464399
0.000686669
0.00686885
0.00425443
0.00453774
0.00440638
0.000932956
0.00403026
0.00681657
0.00669806
0.00473743
0.00467116
0.00420034
0.00425499
0.000893583
0.000742981
0.00145077
0.00543584
0.00119794
0.00394308
0.0062817
0.00741184
0.00609023
0.00743084
0.00423971
0.00478948
0.00284717
0.00506263
0.00748966
0.00441261
0.00587197
0.00452447
0.00739413
0.00536939
0.00514897
0.00523532
0.00562903
0.0034626
0.00293788
0.00556617
0.00430697
0.00738813
0.00112138
0.00284829
0.00248009
0.00742912
0.00271052
0.00284004
0.00359008
0.00745758
0.00466593
0.0073774
0.00504489
0.00346664
0.00345194
0.0042017
0.00382705
0.0064334
0.00242686
0.000938479
0.00721916
0.00186874
0.00588651
0.00186464
0.00703846
0.00663536
0.0073603
0.00504448
0.0061222
0.00315828
0.00571801
0.00703454
0.00743195
0.0074975
0.0047036
0.00278701
0.00442225
0.00744266
0.00610181
0.00626351
0.00622773
0.00590818
0.00505987
0.00477178
0.00298834
0.00472556
0.00372188
0.000717262
0.00572822
0.00504113
0.00655645
0.00741239
0.00186789
0.00183691
0.00463998
0.00687909
0.00446871
0.0045415
0.00696749
0.00186816
0.00748166
0.00241592
0.00262519
0.00296984
0.00598272
0.00308024
0.00751398
0.0048149
0.0049097
0.00724337
0.00739668
0.00675689
0.000880961
0.00556969
0.00255802
0.00726948
0.00180128
0.00720551
0.00595361
0.00243817
0.00261405
0.00500788
0.00727132
0.000712742
0.00640074
0.00597482
0.00644863
0.00678319
0.00734985
0.00254271
0.00285318
0.00691295
0.00649944
0.00515589
0.00737271
0.00184723
0.007386
0.00564256
0.000546316
0.00482377
0.00739814
0.000778873
0.00142896
0.00737261
0.000327746
0.000349891
0.00473062
0.00742726
0.00654628
0.00747878
0.00437714
0.00402978
0.00143624
0.00747152
0.0028467
0.00667197
0.00212606
0.00242335
0.00436243
0.00508583
0.00175139
0.00410374
0.00664615
0.00376012
0.00390812
0.00314296
0.00306637
0.0030871
0.00679191
0.00366228
0.00285295
0.00395683
0.00539799
0.00341718
0.00403876
0.00706826
0.00282291
0.00385408
0.00444838
0.00288298
0.00348726
0.00519215
0.00493185
0.00655218
0.00198854
0.00509714
0.00696072
0.00715941
0.000313146
0.00425637
0.00576546
0.000590884
0.000772814
0.00744842
0.00481714
0.000253448
0.00213776
0.000907009
0.00239065
0.00315516
0.000611119
0.00591035
0.0069812
0.00591625
0.003361
0.00335902
0.00332984
0.00725818
0.00320298
0.00532642
0.00418906
0.0068454
0.004407
0.00432943
0.00195446
0.00087302
0.00296936
0.00325756
0.00420143
0.00667042
0.00347594
0.00738833
0.00603839
0.00567358
0.00528821
0.00679331
0.00204754
0.00470363
0.00712413
0.00181931
0.00200688
0.000962458
0.00139173
0.00410005
0.00759935
0.00488903
0.00738686
0.00100186
0.00489291
0.0010863
0.0043357
0.00434489
0.00602133
0.00498323
0.00581893
0.00395166
0.00225122
0.00392998
0.0062819
0.00192251
0.00476572
0.00748612
0.0046623
0.00405878
0.000820679
0.00605533
0.00188183
0.00412323
0.00747423
0.00729449
0.00261301
0.00436068
0.00444211
0.0073991
0.00535768
0.00472404
0.00470209
0.0043608
0.00436163
0.00535375
0.0010514
0.000682629
0.00481368
0.000899668
0.00518676
0.00309642
0.0035946
0.00705887
0.00487981
0.00574485
0.0044946
0.00434139
0.0073508
0.000617435
0.00226116
0.00357434
0.00517037
0.0071452
0.00389749
0.00651036
0.00254169
0.00734811
0.00122223
0.00421264
0.00727688
0.004481
0.00698369
0.00577476
0.00491809
0.00688792
0.0037966
0.00742223
0.00720483
0.00474678
0.00103069
0.00750536
0.000569755
0.00217078
0.00242277
0.000504781
0.00439549
0.00343945
0.0024867
0.00414019
0.000854854
0.000401896
0.000922344
0.00366549
0.00574454
0.00388402
0.0030643
0.000976869
0.00268049
0.00385972
0.00651908
0.00495661
0.00456086
0.00322187
0.00620967
0.00441138
0.00128861
0.00229265
0.00556625
0.00246496
0.00121201
0.000783744
0.00414975
0.000396948
0.00173793
0.000703564
0.000891664
0.0045069
0.00307799
0.00741039
0.00706941
0.00496692
0.00045209
0.00151471
0.00489145
0.00495557
0.00741335
0.000806714
0.000512308
0.00744451
0.00230892
0.00383656
0.00742829
0.00226874
0.00742588
0.00749117
0.00474614
0.00497617
0.00169591
0.00686615
0.0074475
0.00570147
0.00534778
0.0053222
0.00118584
0.00184638
0.00736706
0.00146643
0.007029
0.00735463
0.00726052
0.00184946
0.00464324
0.00194578
0.00289208
0.00632885
0.00743261
0.00145549
0.000746925
0.00476988
0.00411591
0.00186342
0.00556176
0.00562593
0.00315657
0.00289228
0.0029458
0.0032525
0.00241513
0.00115376
0.00742384
0.00124219
0.00639341
0.00394041
0.00743824
0.00212232
0.00284215
0.0075183
0.00271784
0.00139201
0.00409963
0.00178768
0.00543862
0.0064214
0.00492537
0.00349879
0.0049045
0.00338725
0.000767944
0.00510498
0.00315828
0.00182518
0.00181294
0.000777119
0.00177373
0.00424015
0.00058793
0.00737703
0.00709601
0.00435711
0.00256585
0.00403023
0.00158084
0.00146046
0.00332284
0.00617497
0.00502531
0.00333396
0.00365563
0.00401942
0.00454044
0.00127458
0.00417057
0.0052149
0.00214918
0.00174022
0.00313544
0.000566079
0.00400941
0.00537882
0.0038705
0.00405193
0.00578658
0.00734749
0.00333366
0.00387267
0.000859084
0.0030061
0.00506697
0.00379087
0.0063104
0.00356462
0.00086289
0.0046291
0.00215007
0.00652045
0.0022563
0.00286772
0.00376021
0.00547229
0.00531994
0.00358054
0.00158154
0.0040523
0.00174763
0.000763417
0.00558243
0.00729624
0.00595854
0.00119122
0.00594248
0.0016937
0.00668324
0.00174251
0.0017018
0.00334992
0.00359656
0.00434685
0.00742683
0.00515141
0.00321279
0.000994138
0.00240663
0.000689696
0.00741572
0.00263315
0.00300779
0.00231226
0.00388123
0.00300421
0.00171159
0.00167168
0.00366582
0.000887132
0.00384065
0.00394263
0.00476346
0.00530314
0.00407442
0.00514996
0.00145883
0.00370916
0.00396819
0.00551105
0.00663305
0.000840215
0.00195613
0.000772702
0.0018255
0.00131723
0.00210261
0.00401428
0.00139161
0.00390138
0.00144511
0.0020334
0.00206967
0.00133417
0.00346974
0.00600174
0.0047753
0.00749701
0.00165447
0.00376208
0.00359538
0.00476318
0.00162827
0.00653113
0.00453321
0.00668262
0.007466
0.00298707
0.00223636
0.00304532
0.00377607
0.00650354
0.00236057
0.00725263
0.00343331
0.00324695
0.00723482
0.00273895
0.00192309
0.00500011
0.00255326
0.00428921
0.00279875
0.00208506
0.00297453
0.00322272
0.0002291
0.0005961
0.00166453
0.000406861
0.00345728
0.00367556
0.000605828
0.000546179
0.00603132
0.00118328
0.00341342
0.00426348
0.000525253
0.00266478
0.00707961
0.00325454
0.00178739
0.0069458
0.000762814
0.000353277
0.00242651
0.000805349
0.00232686
0.00100159
0.000883198
0.00599493
0.00468142
0.00278879
0.00200815
0.00382685
0.00724039
0.00238142
0.000693018
0.00623663
0.00176599
0.00487777
0.00213489
0.00693554
0.00634558
0.00204155
0.00206772
0.00437354
0.00192836
0.00577577
0.00124539
0.00738376
0.0069442
0.0030021
0.00186279
0.00496785
0.0074437
0.000808513
0.00142854
0.00173649
0.00377559
0.00349105
0.00216954
0.00111631
0.00440927
0.0011086
0.00194461
0.00602804
0.00341028
0.00217324
0.000836735
0.00262079
0.00210584
0.00598149
0.00616772
0.00226971
0.00434603
0.00299851
0.00521793
0.00740452
0.00712702
0.00470054
0.00236825
0.000728884
0.00486792
0.00050219
0.00478217
0.00469156
0.00311155
0.00617653
0.0039972
0.00491406
0.00515612
0.00197313
0.00647557
0.00157562
0.00747787
0.000389483
0.00124
0.00165136
0.00201051
0.0047777
0.00557906
0.00357289
0.00659404
0.000723464
0.000714662
0.00348351
0.002152
0.000912139
0.000948824
0.00239368
0.00117753
0.000504565
0.00378078
0.00688937
0.000480939
0.00420084
0.00527495
0.00469261
0.000758142
0.000647654
0.00429445
0.00466653
0.00145013
0.00233272
0.000823968
0.00077304
0.00334026
0.00107342
0.00115145
0.00344819
0.00495296
0.00110476
0.00668512
0.00114797
0.000238535
0.00744492
0.00523431
0.00426402
0.00623509
0.00309496
0.00333137
0.00739806
0.0030505
0.00418382
0.000979204
0.00177567
0.00557997
0.00141418
0.00547661
0.00039456
0.00699912
0.0038729
0.00234619
0.00679474
0.0010735
0.00407164
0.00317893
0.0024068
0.00221979
0.00409733
0.00259617
0.00213483
0.000784972
0.00690535
0.00131652
0.000774138
0.00107395
0.00489636
0.00110706
0.00203901
0.00478382
0.00515409
0.00117452
0.00204189
0.00256603
0.000790686
0.00258683
0.00109293
0.00274439
0.00296505
0.00230733
0.000972621
0.00320561
0.00696857
0.00226445
0.00429771
0.00255712
0.00230358
0.000637804
0.00590112
0.00412731
0.00576184
0.00156253
0.00562336
0.000573983
0.00249375
0.00561098
0.00737978
0.00199615
0.00191755
0.00099681
0.00193829
0.00256273
0.00129422
0.000986554
0.00433894
0.000941012
0.00269741
0.00317405
0.000517736
0.00155391
0.0030892
0.00290171
0.00561491
0.0017082
0.000493862
0.00190344
0.00230631
0.00259121
0.00723571
0.00209957
0.00564792
0.00380072
0.00627836
0.00121291
0.00215735
0.00155544
0.00445772
0.00179273
0.00430109
0.00284087
0.00130105
0.00192475
0.00245495
0.0026572
0.00611378
0.000423774
0.00161187
0.00173218
0.00146652
0.00270509
0.00606473
0.00114165
0.000542776
0.00170448
0.00320959
0.0028571
0.00230839
0.00254043
0.00101104
0.00598309
0.00142317
0.0016673
0.00641578
0.00149304
0.0034883
0.00263314
0.00292725
0.00151477
0.00247329
0.00699728
0.0007035
0.00344063
0.000685256
0.00269834
0.00440246
0.00272462
0.00224705
0.00156313
0.00320038
0.0043931
0.00318721
0.00146307
0.00447166
0.00504658
0.000630111
0.00739431
0.00393715
0.00085342
0.00436579
0.00273347
0.00147897
0.00248896
0.00115979
0.00434311
0.000193648
0.00166685
0.00131623
0.00216818
0.00132834
0.00340236
0.000941957
0.00136551
0.00130651
0.00334681
0.00406677
0.00739914
0.00421004
0.00397244
0.00293091
0.000657463
0.00386721
0.00615109
0.00547826
0.00564578
0.0035537
0.00429193
0.00751212
0.00747617
0.00307308
0.000994986
0.00733829
0.00288492
0.00235621
0.00554752
0.00708394
0.00292872
0.00286306
0.00746902
0.00615905
0.00349989
0.00370457
0.00704944
0.00390299
0.0010865
0.00399066
0.0043159
0.00615124
0.00741406
0.00153599
0.0050893
0.00639526
0.000723198
0.00120304
0.000988817
0.00720299
0.000919573
0.000461766
0.00712217
0.000311118
0.000838914
0.000529828
0.00401297
0.00520975
0.00439773
0.00164529
0.00736968
0.00452144
0.00464217
0.00403344
0.00294801
0.00384758
0.00353944
0.00122918
0.00446106
0.00291207
0.000904261
0.00405864
0.000426512
0.00207747
0.00131485
0.00719857
0.00311243
0.00203782
0.0066608
0.00516921
0.0019569
0.00746329
0.00236535
0.00188842
0.000399241
0.00707042
0.00154912
0.00608357
0.00314933
0.00298524
0.00604901
0.00144074
0.00552429
0.00237418
0.00567833
0.00130895
0.000271835
0.00443956
0.00741176
0.000415469
0.0049325
0.00032194
0.00403859
0.00385362
0.00476573
0.00467298
0.00591375
0.0070802
0.00444071
0.00224029
0.00590189
0.00222751
0.00419528
0.00395781
0.00735783
0.00237575
0.000825629
0.00410042
0.00248592
0.00602824
0.00506237
0.00313735
0.00439356
0.0047823
0.00625661
0.00245162
0.00268631
0.00747208
0.00401656
0.00452637
0.00531749
0.00389536
0.00308149
0.00254489
0.00443686
0.00409719
0.00248417
0.00400824
0.00645738
0.00522367
0.00686763
0.0021672
0.00227513
0.00196246
0.00367306
0.00504912
0.0047058
0.00136247
0.00636562
0.00623174
0.00580639
0.00166636
0.00301175
0.00131946
0.00129966
0.00127135
0.00394732
0.00507341
0.00499622
0.00467824
0.00686897
0.00127675
0.00465724
0.00711823
0.00438699
0.0033282
0.00475025
0.00111725
0.00482924
0.0023954
0.00280441
0.00356283
0.006495
0.00484152
0.00392968
0.00398212
0.00504214
0.00312699
0.00369896
0.00296075
0.00395997
0.0050917
0.00489849
0.0022728
0.00200519
0.0052705
0.00435699
0.00251212
0.0038489
0.00231633
0.00731526
0.00637534
0.00249702
0.00500988
0.00626949
0.00481182
0.00720059
0.00732097
0.00423392
0.00460651
0.00199992
0.00485237
0.00279284
0.00700969
0.0049002
0.00100657
0.00434608
0.00432792
0.0057831
0.00557844
0.00410864
0.00436662
0.0003408
0.00349956
0.00328038
0.0067724
0.0058226
0.00513326
0.00744823
0.00696346
0.00354284
0.00426577
0.00696277
0.0072867
0.00257107
0.000982886
0.00144004
0.00311369
0.00182928
0.00357966
0.00446675
0.00358694
0.0018026
0.00203109
0.00378132
0.0042958
0.000867468
0.00524371
0.00429319
0.0040691
0.00416323
0.00729159
0.000342152
0.00505149
0.00379372
0.00738532
0.00280768
0.00322745
0.000388583
0.000253603
0.00505548
0.00642857
0.00736921
0.00412999
0.00382743
0.005936
0.00023799
0.00104535
0.00525721
0.00260592
0.00143252
0.00536762
0.00613923
0.00290873
0.00738946
0.00552115
0.00717799
0.00466622
0.00258151
0.00412086
0.00443027
0.00611509
0.00223753
0.00461056
0.00743693
0.00119682
0.00571469
0.00386498
0.00303528
0.000993872
0.00131988
0.00356257
0.00288092
0.0059783
0.00284805
0.00298019
0.00711872
0.000615507
0.00139968
0.00288009
0.00406101
0.00340932
0.00402236
0.00401799
0.00103198
0.00745096
0.00715398
0.00575157
0.00541076
0.00100526
0.00142926
0.00121642
0.00177673
0.00344603
0.00288218
0.0074536
0.00756465
0.00455465
0.00568389
0.00529825
0.00625236
0.00746781
0.00114196
0.000386924
0.00736194
0.00736008
0.00351611
0.00152527
0.00366358
0.00742009
0.00560065
0.00156341
0.000929598
0.00362466
0.00197304
0.00274424
0.00191896
0.000487611
0.00307143
0.00680745
0.00746463
0.00617173
0.000933038
0.00624598
0.0043522
0.00445714
0.00743917
0.000861978
0.000226177
0.00046578
0.00172948
0.0023447
0.00688368
0.00741784
0.00275655
0.00453386
0.000964826
0.000879196
0.00057225
0.000451121
0.000689354
0.00190417
0.00690913
0.000898397
0.00739304
0.000422997
0.00391737
0.000737935
0.00454035
0.00199082
0.00702742
0.00334371
0.00224854
0.00225997
0.00645716
0.00560774
0.00400054
0.000988917
0.00125483
0.00501038
0.00520027
0.000487209
0.000343758
0.00410034
0.00148263
0.000583729
0.00112704
0.0050166
0.00732558
0.000721124
0.000549388
0.00139505
0.00741059
0.00123105
0.00681477
0.0006215
0.00110792
0.000299527
0.00223617
0.00652031
0.00186723
0.00722659
0.00475084
0.00413293
0.00249784
0.00639162
0.00407976
0.00572547
0.00388691
0.00444884
0.00738428
0.00704224
0.00405109
0.00702729
0.00659998
0.00458002
0.00536064
0.00190636
0.0039791
0.0024798
0.00412298
0.00668422
0.00509363
0.000945913
0.00378603
0.00353959
0.00229473
0.000658873
0.00458858
0.00259698
0.00389599
0.00104957
0.00218611
0.00137725
0.00550412
0.00725838
0.0054518
0.00365137
0.00621966
0.00357352
0.00339168
0.00406814
0.00734553
0.00513062
0.0063126
0.00487376
0.00326169
0.00493809
0.00379236
0.000729495
0.00380107
0.00423418
0.00455355
0.00311796
0.00118416
0.00221588
0.00440486
0.00506747
0.00333136
0.00106028
0.00121329
0.00427363
0.00340952
0.000382924
0.0015755
0.00208143
0.00412324
0.00154804
0.00324132
0.00407861
0.00343069
0.00118893
0.00482275
0.00418811
0.00267723
0.00687573
0.0023887
0.00284268
0.00328409
0.00338139
0.00196448
0.00453951
0.00587984
0.00746273
0.00218832
0.00342421
0.00442912
0.00204888
0.00540625
0.000965308
0.00296034
0.00339583
0.000451883
0.00201027
0.00694796
0.00352194
0.000824766
0.00173897
0.00244088
0.00739194
0.00291377
0.00125779
0.00644637
0.00753502
0.000702911
0.00212226
0.00152979
0.00218408
0.00600005
0.00491119
0.00133278
0.000477309
0.000781367
0.00428411
0.0061407
0.000597683
0.00718524
0.00197523
0.00305937
0.00150698
0.00130502
0.00643271
0.00362026
0.00117035
0.00409642
0.00456143
0.00492457
0.00368419
0.00580212
0.00105863
0.000305269
0.00411353
0.00364464
0.00065366
0.000604195
0.000697502
0.00245221
0.00119509
0.00220577
0.000616204
0.00353643
0.00353481
0.000814762
0.0024057
0.00254884
0.000511782
0.000838681
0.000372891
0.00736087
0.00694204
0.000394161
0.00628913
0.0043164
0.000803195
0.00610072
0.0029533
0.00475958
0.00330312
0.00511457
0.00667251
0.000498396
0.000377126
0.00181254
0.000706695
0.00241728
0.00410555
0.00444399
0.00491903
0.0033672
0.00547838
0.00612197
0.00446437
0.00539989
0.00046931
0.000531252
0.00446578
0.00200259
0.005752
0.00398525
0.00302317
0.00360735
0.00373467
0.0050401
0.000525296
0.00125516
0.00433194
0.000629661
0.00284413
0.00137213
0.00255802
0.00368748
0.000956644
0.00284205
0.00119927
0.00269914
0.00293075
0.00293019
0.006738
0.00136985
0.00741363
0.00606402
0.00276882
0.00436619
0.00151512
0.00350039
0.00189596
0.00348111
0.000868629
0.00412468
0.00348105
0.00372558
0.00737161
0.0033372
0.00349274
0.00176972
0.00053054
0.00331327
0.000654989
0.00348697
0.00490153
0.00216746
0.0049612
0.00562741
0.00533089
0.00318325
0.00130554
0.00220898
0.00148631
0.000667002
0.00223905
0.00498027
0.000173045
0.00106061
0.00530567
0.00318102
0.00146963
0.00390065
0.0008172
0.000464253
0.00269847
0.00127902
0.00142705
0.00299599
0.000852889
0.00197222
0.00706175
0.00352004
0.00107499
0.00113668
0.00718608
0.0010341
0.00752929
0.00266422
0.00594649
0.00266447
0.00193797
0.000997457
0.00105194
0.00587278
0.0056848
0.000244941
0.00740105
0.00432984
0.00118477
0.00647851
0.0029095
0.00238936
0.00388837
0.000520357
0.0015783
0.000534674
0.00161566
0.00315308
0.00128316
0.00663049
0.00574279
0.00118908
0.00715661
0.00386751
0.00266289
0.00545703
0.00147611
0.000514682
0.00731962
0.00268052
0.00729857
0.000846236
0.00519541
0.000618958
0.00287735
0.00247548
0.00664025
0.00260981
0.00269208
0.00694829
0.00560615
0.00344737
0.00747419
0.00129347
0.00349093
0.00357535
0.00657128
0.00453348
0.00356146
0.00287715
0.00293452
0.00238252
0.00331791
0.00440557
0.00453485
0.00168971
0.000597004
0.000810202
0.000756977
0.00129846
0.000882585
0.000792956
0.00333417
0.000270707
0.000583883
0.00127712
0.00223471
0.00289758
0.000782545
0.00104807
0.00246043
0.00128478
0.00217926
0.00622689
0.00291107
0.00120749
0.00414347
0.000403399
0.00288764
0.000370162
0.00214348
0.00120027
0.00144285
0.000837056
0.000588206
0.00208256
0.000486864
0.00275136
0.00205049
0.00489749
0.00178121
0.00537171
0.00649508
0.00103145
0.00354777
0.000910322
0.00159873
0.00531057
0.0023817
0.00455565
0.00129062
0.00111938
0.00743427
0.00561358
0.00174387
0.000934249
0.00377295
0.00275538
0.00117889
0.00117796
0.00504166
0.00735743
0.00396146
0.00447476
0.000693714
0.0075212
0.000963279
0.000343956
0.00532371
0.00299447
0.00462245
0.00425179
0.000776763
0.0028053
0.000743349
0.0035593
0.00500242
0.000552805
0.00083353
0.00586613
0.00243864
0.00586864
0.00704393
0.00116857
0.00273165
0.000766686
0.00403683
0.00677592
0.00234367
0.00677554
0.00605148
0.00574372
0.00504415
0.00278298
0.00230093
0.00144302
0.00364745
0.00123526
0.00406828
0.00725281
0.00219375
0.00132696
0.000862283
0.000921856
0.0015107
0.00203068
0.0010635
0.00103905
0.000817253
0.000957646
0.00319073
0.00302822
0.00415563
0.00143858
0.00484846
0.00324471
0.00328756
0.00164723
0.000560457
0.00348423
0.00346059
0.00348493
0.00520452
0.00343073
0.00484812
0.0061849
0.00510569
0.00285994
0.00315746
0.00276629
0.00604515
0.00304989
0.00134811
0.000799524
0.00437446
0.0006247
0.00741534
0.003614
0.00727591
0.00458524
0.00101582
0.00275107
0.00126279
0.00382153
0.00393973
0.00396089
0.00461191
0.00526939
0.00311617
0.00348167
0.00336467
0.0071619
0.000893228
0.00328262
0.00141937
0.00295456
0.0010887
0.00651645
0.00467616
0.00351377
0.00403571
0.00299048
0.0009917
0.0069786
0.00457907
0.000699844
0.00247213
0.00243107
0.0030224
0.00244126
0.00266936
0.00216923
0.00544105
0.00730107
0.00688048
0.00205182
0.00176966
0.00510773
0.000421143
0.00552701
0.00181857
0.00707327
0.00676708
0.00202745
0.00438601
0.00636036
0.00110827
0.00741971
0.00426802
0.00164391
0.00218838
0.00734892
0.00134901
0.00694138
0.00698791
0.00127504
0.00367679
0.00289617
0.000871338
0.00747896
0.00195625
0.00152658
0.00174925
0.00105524
0.00119431
0.00536333
0.00581364
0.00293782
0.00621202
0.00213976
0.00298909
0.00614465
0.00677029
0.00348305
0.00128176
0.0030106
0.00442484
0.00226015
0.00344497
0.00237303
0.0073888
0.00210039
0.00132035
0.00371226
0.00388314
0.00562252
0.00533177
0.00366316
0.00434473
0.00227224
0.00388944
0.000598612
0.00448849
0.00704013
0.00103914
0.00287121
0.000683937
0.000973026
0.00573766
0.00377773
0.00135759
0.00309535
0.000408237
0.00150941
0.000665839
0.00167062
0.000473374
0.00298841
0.00177128
0.00170589
0.000606289
0.00114534
0.0030195
0.000581819
0.000364349
0.00203067
0.00035134
0.000915113
0.00165777
0.00201495
0.000605012
0.000963665
0.00747988
0.00376664
0.00105677
0.000840112
0.00104471
0.00142201
0.00163706
0.000783666
0.00292949
0.00373045
0.00458274
0.00723239
0.00323426
0.00692872
0.0011035
0.00300972
0.00442832
0.000750567
0.00397422
0.00233467
0.00487322
0.0068283
0.00321021
0.00456006
0.00180151
0.00715753
0.0020706
0.000613256
0.00527044
0.00745454
0.00363096
0.005516
0.00121352
0.00278909
0.00592964
0.00645201
0.000628379
0.00691614
0.0042419
0.00713419
0.00187397
0.00332419
0.00454589
0.00611701
0.00545085
0.00144665
0.0037477
0.00251577
0.00733156
0.00734111
0.00725168
0.00379474
0.0048018
0.0036843
0.0063564
0.00349027
0.00369619
0.00289357
0.0012705
0.00131019
0.00356937
0.00201018
0.0042903
0.00275519
0.00351611
0.00375214
0.00685542
0.00318531
0.00432838
0.00651505
0.00209866
0.004712
0.00306493
0.0011831
0.00496479
0.00284016
0.00136383
0.00402686
0.00118763
0.00203093
0.00113703
0.00037891
0.00286649
0.00573906
0.00220596
0.000493816
0.00340296
0.00716743
0.00677221
0.0061739
0.00379403
0.00473006
0.00740052
0.00737635
0.00407068
0.00296868
0.00746445
0.00698445
0.00747091
0.00583105
0.00321123
0.00190555
0.00312458
0.0064599
0.00382986
0.000956997
0.00576517
0.00644668
0.00358336
0.000552147
0.000672661
0.00375315
0.00538788
0.00530547
0.00328227
0.00398571
0.000626089
0.00200186
0.0052068
0.00407878
0.00696394
0.00370558
0.00195204
0.00384451
0.00329189
0.00382869
0.00140245
0.00198083
0.00156598
0.00104183
0.000350404
0.00186521
0.00194805
0.00403315
0.00405639
0.00355544
0.00329846
0.00665692
0.00453013
0.000469898
0.00736184
0.00184725
0.00128651
0.00339116
0.00302106
0.000401037
0.00204642
0.00426512
0.00391042
0.00748774
0.00309289
0.000965607
0.00389538
0.0017446
0.00430018
0.00293777
0.000679334
0.000915715
0.0036545
0.00347735
0.00113794
0.00501583
0.000724528
0.000691011
0.00133126
0.00741967
0.00723803
0.000302546
0.00664722
0.000504492
0.00224314
0.00332168
0.00117618
0.00099843
0.00686165
0.00746652
0.00100726
0.00693261
0.00642472
0.0052943
0.00716277
0.00439131
0.00400443
0.00240343
0.00628736
0.000369656
0.00326641
0.00490711
0.00396187
0.000328513
0.00433732
0.000584724
0.00524829
0.00376565
0.00393032
0.00118392
0.00561563
0.0048476
0.00528863
0.000916612
0.00212371
0.00214622
0.0015059
0.00285409
0.00671453
0.000843215
0.00310855
0.00334065
0.00319632
0.0050118
0.00326357
0.00385869
0.00719828
0.000405959
0.00149671
0.00470843
0.00525364
0.00215044
0.00473939
0.00292465
0.00338359
0.00540909
0.00236342
0.00500937
0.00547228
0.00430026
0.00147243
0.00473199
0.00503482
0.00524504
0.00362129
0.00692835
0.00539639
0.00589464
0.00281446
0.00432406
0.0027381
0.00258743
0.00384461
0.00055661
0.00552079
0.00325687
0.00119521
0.000762741
0.00149592
0.00384265
0.00328854
0.00197459
0.000311163
0.00399496
0.000885299
0.00403053
0.00740942
0.00285466
0.0017996
0.00390505
0.00520446
0.00742942
0.00572813
0.000345847
0.00566836
0.00698769
0.00260806
0.000454574
0.00047233
0.00412177
0.000284888
0.000869643
0.00111804
0.00144548
0.000757301
0.000401698
0.00554049
0.000936159
0.00403816
0.00652176
0.0042019
0.000451055
0.00213574
0.00702382
0.00630244
0.000992071
0.00515803
0.000505153
0.00661712
0.00294987
0.00530525
0.00299062
0.000650519
0.00737695
0.00318899
0.00286598
0.00623064
0.0037328
0.00657049
0.00294513
0.00056868
0.000552024
0.000639902
0.00162174
0.00149785
0.00676402
0.0068681
0.00562922
0.00372329
0.00732082
0.0016912
0.00748734
0.00103653
0.004222
0.00713994
0.00638332
0.00479379
0.00712871
0.00371585
0.0030532
0.00725166
0.00321369
0.000954865
0.00637435
0.0011873
0.000920983
0.00678617
0.000279114
0.000561803
0.00286867
0.00296999
0.00408354
0.00132422
0.00436198
0.00214722
0.0016646
0.00600878
0.00172327
0.00707969
0.0023063
0.00444299
0.00247329
0.00196926
0.000758701
0.00332902
0.00402063
0.000728161
0.00149646
0.00220017
0.00142882
0.00565826
0.00138972
0.00438521
0.00195841
0.00305963
0.00610678
0.00135975
0.00263415
0.00254741
0.00650418
0.000675737
0.000898153
0.000469745
0.00648087
0.0045651
0.0009739
0.000638222
0.00225721
0.00412917
0.00252768
0.0012111
0.000734347
0.00201582
0.0055524
0.00310542
0.00442049
0.00561298
0.0040387
0.000650945
0.00583903
0.00203579
0.00316473
0.00707456
0.00264559
0.00273094
0.00634391
0.00406494
0.00384502
0.00231212
0.00126435
0.00479969
0.00296872
0.00232188
0.00247711
0.00295871
0.00199537
0.00178597
0.00364699
0.00643391
0.00622314
0.00605848
0.00076718
0.00402629
0.00109241
0.00362745
0.00420345
0.00576066
0.00353736
0.0070417
0.00251855
0.00747552
0.00250076
0.00241677
0.00362094
0.00474983
0.00243726
0.00355196