/*--------------------------------*- C++ -*----------------------------------*\
| =========                 |                                                 |
| \\      /  F ield         | OpenFOAM: The Open Source CFD Toolbox           |
|  \\    /   O peration     | Version:  2506                                  |
|   \\  /    A nd           | Website:  www.openfoam.com                      |
|    \\/     M anipulation  |                                                 |
\*---------------------------------------------------------------------------*/
FoamFile
{
    version     2.0;
    format      ascii;
    arch        "LSB;label=32;scalar=64";
    class       volScalarField;
    location    "0.0321319";
    object      omega;
}
// * * * * * * * * * * * * * * * * * * * * * * * * * * * * * * * * * * * * * //

dimensions      [0 0 -1 0 0 0 0];

internalField   nonuniform List<scalar> 
47425
(
55.4141
68.4929
70.5077
164.478
132.359
72.1021
90.8259
103.802
49.4038
565.689
141.436
50.073
67.7568
78.2802
92.4843
91.8626
67.4186
51.5469
1159.99
174.348
86.833
46.9684
107.798
64.2838
48.8712
46.3191
77.028
666.84
69.8443
56.3423
47.3616
49.5653
47.9402
64.4531
53.081
68.1332
46.695
67.6992
64.7707
75.2028
73.7441
63.23
99.6625
145.037
1407.3
109.117
97.8952
78.1823
78.4521
49.1654
578.427
204.287
50.0848
818.356
115.91
123.872
46.2341
56.4062
84.6496
62.5111
1128.31
1088.9
841.555
48.5935
49.3689
47.9273
63.5817
70.1755
784.695
48.7238
77.8376
50.8399
48.5746
89.3925
676.326
49.4201
816.767
81.1923
1385.67
242.532
707.387
63.9218
46.8609
47.9352
47.2179
83.4972
53.6228
49.8236
100.023
398.198
47.8006
79.0197
46.9677
116.332
149.352
196.91
50.2023
50.7988
86.53
81.2073
62.6937
91.4702
52.0398
101.932
50.1431
54.3109
47.6062
92.3786
46.5395
49.4546
311.124
63.4741
63.5562
156.4
50.3723
915.042
49.9509
231.564
81.9844
58.4278
78.861
48.5843
60.1099
61.3598
99.573
59.1093
85.1961
49.2024
107.985
46.701
47.3048
100.556
135.407
124.533
57.9083
63.9992
49.3211
61.0615
68.6519
99.228
71.7192
135.759
72.6864
78.4342
53.9405
49.3366
104.952
64.0206
154.167
72.7381
76.3932
482.831
48.8435
691.06
49.7056
85.315
57.5009
898.078
95.9465
75.7103
50.5824
46.7902
50.2621
48.3235
385.901
827.515
47.5776
679.399
107.517
683.677
679.06
88.5592
74.0869
48.4169
75.0518
68.8473
711.507
68.4818
52.9096
46.8776
995.93
47.5046
59.5109
47.7821
48.1651
51.2801
56.4339
84.193
149.478
53.3539
48.0282
69.0848
76.6427
77.0874
49.1094
49.1811
61.9431
74.0932
49.8262
79.6826
67.3132
123.275
47.1396
49.5761
52.3336
159.241
52.241
49.2672
89.4766
48.5506
63.5254
64.1849
47.8806
93.0329
62.006
62.3042
68.7723
251.392
50.6511
95.8514
271.538
113.006
79.3691
93.851
167.647
228.449
48.9404
130.417
53.2711
61.4917
65.7428
74.1044
108.423
49.3299
167.103
95.3759
299.062
117.652
248.221
181.874
84.0179
55.6437
46.6695
104.81
46.8153
49.6559
67.0083
61.2277
46.2904
75.8356
45.8684
203.397
66.2533
49.2962
92.0418
46.2633
47.6922
123.653
95.6738
48.4839
128.53
48.0282
76.8142
136.552
66.9665
93.0795
47.3059
67.3124
61.1548
82.9321
78.7592
217.5
293.707
48.9718
203.663
181.067
204.26
120.545
278.911
179.37
1165.32
53.5904
1097.37
127.133
80.3553
85.1304
107.622
90.9796
92.6706
51.6915
603.836
47.8804
50.3441
56.2101
66.2104
102.618
115.138
47.3317
66.142
58.1305
92.6094
47.4192
90.2238
59.1067
758.484
1024.73
673.361
46.4258
48.9687
46.453
104.711
674.691
87.7458
119.958
217.44
76.9172
106.586
125.265
91.6759
368.083
193.018
47.3102
60.4952
47.7232
85.0455
46.3117
77.161
59.561
52.3037
71.74
77.8582
576.728
54.372
76.1991
129.428
46.6095
605.574
53.3205
47.7496
51.6883
47.8521
48.0721
46.0944
54.1038
49.5298
51.9095
57.9117
49.2272
81.3506
87.641
48.8657
48.4314
63.3129
50.3781
49.964
51.6355
79.5218
46.657
51.0392
93.867
60.2857
58.641
82.4754
93.4253
48.0421
50.8822
134.216
48.4161
68.2838
47.5972
133.889
886.479
77.4219
48.0461
200.25
48.0759
62.9533
96.4431
72.5914
46.9063
63.7384
48.2059
45.9544
73.9141
88.9968
82.9244
84.8888
52.8169
49.2714
85.0984
49.9887
48.6722
82.8405
55.988
65.6312
50.1106
63.0185
91.7609
65.7658
48.8633
478.425
47.7782
353.329
73.4818
108.339
106.213
48.8621
147.372
47.6878
96.5729
48.4805
646.513
342.009
46.6855
51.0861
81.1325
86.6939
80.671
76.9841
78.2143
90.9322
68.9059
46.3032
104.029
70.1902
49.6327
79.5128
75.3768
54.0986
143.109
1258.76
49.1371
281.418
1040.46
91.7171
1073.61
885.946
50.241
80.0124
75.4325
77.3917
681.265
92.2996
50.8098
51.6435
73.3943
74.4075
82.5349
81.3641
445.861
727.584
147.8
65.7229
74.4159
107.637
55.0422
48.1444
64.4188
47.7883
84.3134
75.8465
132.717
68.4829
49.3528
78.0456
59.4685
81.12
48.645
64.5272
67.1747
67.227
63.6239
111.006
126.329
61.5145
86.3684
48.2449
473.222
132.156
74.0287
47.4958
141.29
222.793
49.574
46.3575
49.7887
48.4078
68.9107
50.6704
110.948
79.8548
49.518
53.3764
151.099
99.7751
47.2244
53.1291
59.1581
56.9576
48.8159
51.7927
46.5782
67.9988
57.2027
113.672
60.0889
48.4858
46.8108
47.8186
75.5382
130.679
48.3944
46.4294
57.088
54.3485
54.4706
58.9843
72.9507
72.3052
52.2477
76.9299
100.944
422.981
61.8304
69.0691
55.3828
49.355
120.536
120.975
79.8684
50.4826
83.7729
98.7259
50.3872
132.018
48.5221
226.948
52.5155
53.5321
58.0912
117.465
46.1732
72.5181
72.3301
47.9391
45.9915
50.5637
1127.28
61.9976
153.203
47.3919
93.5482
48.3716
58.1053
79.7726
71.5035
70.7751
47.2475
421.389
53.5304
57.8659
53.421
50.6659
46.9935
59.2963
112.106
49.9242
52.909
68.3438
46.9061
217.969
47.5578
61.6622
522.269
73.2351
46.3817
388.006
539.352
47.7712
667.77
710.351
71.595
47.712
52.3728
46.4798
87.3119
92.4873
500.418
46.7784
132.77
51.3211
101.242
58.0802
85.933
68.7599
521.196
260.367
52.994
93.7765
87.8853
85.2594
124.62
128.553
51.7916
98.5287
132.988
85.4472
68.3718
128.036
52.5227
49.8209
128.574
95.9136
77.8855
126.506
104.443
65.75
73.5372
58.8658
57.0198
69.6455
50.1272
48.3393
1340.81
61.5578
72.0582
1060.11
1019.72
46.2326
79.1301
1655.56
174.72
91.2315
274.658
119.503
760.659
57.8384
50.0015
60.5205
156.045
113.886
112.895
47.427
120.817
64.9456
82.3841
51.1413
82.6142
57.212
374.14
682.501
124.758
52.7566
87.5186
47.4316
111.256
48.0606
58.8893
63.718
66.7199
48.2056
187.237
76.5945
47.9361
73.2494
192.809
863.524
203.06
90.1556
46.8574
75.4958
46.8701
860.3
70.878
536.775
86.3322
104.207
63.4586
71.309
61.617
85.3518
57.5438
88.679
53.9657
210.188
84.5377
49.2414
69.3384
90.9679
1076.89
63.1844
205.751
66.0436
48.6921
46.6845
148.112
79.763
69.312
47.3887
65.3601
64.4193
75.2732
81.2197
79.9016
64.372
123.729
193.316
71.8593
96.8957
66.5559
116.406
93.8405
48.568
80.5338
58.8102
75.4187
80.6696
47.1177
300.214
419.182
98.4
67.7188
48.2196
93.326
52.6262
141.06
49.712
233.912
84.4801
47.1484
79.1916
49.3355
59.4403
70.9215
50.0259
90.7139
47.2204
47.7556
50.52
167.173
45.7603
396.153
217.347
241.401
355.952
82.5828
178.657
59.0078
50.8676
146.98
351.44
368.78
97.1737
59.2435
114.522
121.001
160.027
134.276
95.5742
52.7575
69.9372
95.8956
117.419
58.2389
85.6219
370.818
60.2112
63.3682
153.56
122.244
116.546
130.923
705.887
482.536
230.928
255.93
80.6447
121.529
46.6055
48.5113
73.9696
400.682
187.483
73.5481
74.8577
46.8532
361.537
351.799
46.1473
173.014
92.4112
46.4274
170.01
46.2597
46.2057
72.7535
73.8657
89.3085
50.2433
46.6418
60.3995
70.7817
69.2906
145.011
101.325
46.1281
255.371
48.8493
46.7882
47.3515
203.06
81.153
263.668
119.685
54.0223
47.0881
69.4193
1181.18
74.1646
85.6822
77.3794
66.0733
62.2452
120.814
124.36
127.975
315.974
88.8517
737.715
49.4238
69.1424
54.1554
63.1604
46.6636
170.987
130.722
46.5427
340.459
103.344
68.1171
261.472
73.5091
53.8266
73.4744
67.0395
70.897
110.588
365.772
67.423
72.0389
211.426
225.897
661.868
221.031
91.668
182.938
47.3878
49.1488
98.4489
156.209
88.6412
85.2643
95.9574
104.834
49.8965
67.5785
109.216
101.897
92.1478
242.458
660.416
94.9168
92.8789
123.96
658.3
260.477
217.127
94.9146
67.1934
96.6711
95.238
135.024
47.1599
50.5933
96.728
437.879
120.944
69.7997
98.1688
54.2421
110.96
129.98
78.5988
430.039
53.1913
66.6902
131.345
97.3238
65.5624
66.4981
104.789
101.182
95.0419
62.7915
133.449
48.6369
47.5793
49.015
87.1432
57.6145
150.784
53.9671
224.581
297.971
235.977
94.711
83.7001
48.053
70.3109
116.249
475.397
229.459
930.035
47.1935
59.5885
55.945
288.357
87.9508
307.089
241.1
235.496
121.289
246.7
90.3794
85.1587
72.6782
49.2768
105.588
69.2373
73.9092
193.757
79.4584
61.9943
52.1297
265.057
432.299
151.201
183.515
641.4
193.572
94.6733
74.4565
87.2888
108.492
186.904
190.545
636.26
49.5243
57.6486
72.0286
48.2616
65.4988
102.939
97.9017
54.0268
110.676
53.1812
78.8355
52.0804
47.6378
126.716
64.2959
124.151
48.619
47.7677
164.563
48.3347
97.3148
105.637
47.9095
63.4454
121.292
73.8753
65.0438
79.9161
437.169
186.986
126.379
109.567
1846.42
969.306
612.821
417.665
106.771
51.9032
1042.31
412.483
55.4095
67.2558
109.37
88.0999
373.879
140.826
49.7108
115.973
58.5947
49.7508
207.389
908.544
141.317
1179.06
153.659
248.814
867.262
57.4474
80.1482
134.798
258.584
96.1323
50.9923
50.8372
849.686
64.2789
344.466
70.0573
166.949
49.6699
54.9492
518.794
523.117
86.1596
57.4148
71.6095
422.773
47.5911
49.2823
413.767
544.837
73.5956
47.7223
1044.06
848.798
500.145
101.386
198.089
449.944
494.926
79.3462
98.9321
98.6884
61.3683
105.957
508.618
1331.36
63.5809
61.7585
60.2849
51.5348
51.3324
81.6272
137.041
67.6536
49.5591
48.3932
73.8516
389.791
1073.21
51.1874
232.857
96.2925
73.6645
177.156
55.4009
89.8691
71.4179
50.9637
202.176
52.7721
481.229
46.7259
784.153
549.701
430.262
205.997
87.1938
65.4338
106.377
52.3798
203.541
1391.7
106.936
381.849
192.134
436.083
148.026
797.135
609.279
94.7576
50.1376
1459.53
83.7514
49.7633
74.1449
527.802
1012.89
80.9062
52.5962
459.086
81.6968
832.571
740.895
110.319
124.56
897.694
105.852
49.4192
574.998
52.1962
696.93
1023.32
47.9812
66.7343
83.5035
56.0026
126.646
101.395
47.9078
124.828
90.6565
120.996
58.8292
47.042
159.228
129.039
642.862
54.1102
98.2863
217.014
48.3653
798.67
86.5603
117.16
152.953
539.094
87.4534
596.612
183.426
141.149
57.0747
814.76
214.6
247.535
80.8022
157.76
61.2558
76.0352
67.4625
324.167
268.596
105.673
702.686
150.15
102.028
260.757
130.937
148.073
785.43
253.88
49.2799
158.47
84.0006
148.426
301.812
973.057
58.5994
48.7531
62.4455
592.059
63.5874
326.124
61.3214
62.9775
48.288
137.902
58.617
210.919
298.303
54.3089
63.9802
94.592
81.2868
982.827
285.163
113.384
718.654
349.293
121.999
190.709
64.3638
59.2344
1058.6
58.6118
494.929
268.734
49.7626
60.8536
80.1399
96.1931
56.7448
72.0907
122.223
83.0602
78.3947
69.1228
82.2413
216.766
67.5643
199.933
158.956
193.421
56.3131
721.263
404.738
59.4667
526.877
289.88
56.7275
113.344
586.272
226.261
50.5946
174.863
326.24
178.855
419.277
57.7776
551.937
104.137
53.9116
68.6235
112.112
169.576
129.276
67.7052
254.969
49.1581
266.785
110.58
1185.73
147.117
77.5185
123.084
245.863
58.518
216.642
102.444
111.303
702.473
77.529
74.2509
994.769
46.3005
97.5918
389.571
60.7366
278.475
854.927
155.125
78.2767
80.5338
955.149
278.046
380.988
283.48
78.767
68.3835
104.495
605.516
876.223
251.134
90.4639
48.5324
87.8272
89.1705
131.462
333.739
95.2211
57.4422
60.8436
60.63
48.918
87.8505
48.1335
47.9997
123.527
91.6956
47.4684
132.234
232.589
64.4067
48.9948
134.24
62.2272
48.3809
55.8515
104.81
98.2987
50.517
97.4902
578.753
90.7099
51.5342
55.9496
46.6572
214.203
68.053
54.4364
616.138
934.57
280.805
49.3549
638.26
155.302
48.7986
934.62
101.942
923.225
92.691
68.0047
84.5067
69.4702
47.5039
84.3705
86.6256
94.8022
116.581
90.0119
106.307
150.371
82.5915
77.3574
429.356
87.8869
1250.06
71.218
652.932
47.9653
121.444
186.239
52.1493
69.6799
192.145
46.321
423.683
318.162
1267.82
55.4073
635.769
56.3926
114.227
156.977
57.0653
545.003
72.254
268.26
59.7234
701.491
687.848
80.7495
46.2175
337.005
72.7669
338.372
84.9605
97.9537
72.353
73.526
58.2352
49.8385
82.3664
259.033
71.4754
180.023
87.2914
87.8322
47.8057
156.971
827.43
91.3492
281.441
72.7342
67.9495
121.803
82.9748
74.7756
57.2504
156.677
132.731
48.603
86.2413
74.9265
70.5756
95.2164
376.177
380.902
82.3277
93.841
280.283
88.6325
53.3612
65.5585
49.905
174.731
168.766
204.008
106.004
71.1404
73.1124
68.2949
54.2256
54.4015
61.157
449.212
131.144
643.238
481.169
601.4
57.8637
67.6906
68.2461
72.5374
50.8274
299.685
77.2949
48.4232
81.9373
110.958
72.7905
316.299
71.1429
158.705
105.33
101.961
52.2727
71.727
91.4601
92.6136
68.3045
117.406
95.1136
169.201
86.1631
69.4767
78.0559
154.157
176.028
65.1564
84.5697
134.369
99.5333
171.779
47.4467
53.4563
136.244
68.4728
55.0762
78.3897
48.0829
47.4115
82.1728
77.966
421.425
72.2635
87.4599
48.7542
70.7883
662.867
82.6463
86.9704
59.2897
63.8632
90.6932
87.7472
936.304
108.06
338.328
50.5783
60.1382
73.2506
46.6708
50.0981
109.399
84.6395
49.8305
47.7327
306.771
107.276
479.246
123.512
241.158
106.137
75.5979
110.763
512.173
184.759
91.9925
80.3865
922.923
65.1198
82.5861
91.3692
86.3174
47.7284
961.108
68.0891
95.6232
47.9547
128.121
58.2835
936.667
1026.51
68.4435
53.5128
47.1041
93.9471
97.7916
58.4903
1188.18
796.109
64.8946
141.954
419.774
64.3093
86.4145
112.904
46.6898
62.2754
48.8037
75.1539
214.424
88.8016
80.2857
48.3484
59.6423
76.8654
48.6536
287.838
63.537
128.559
144.294
392.22
298.363
105.17
134.704
71.1016
133.167
123.546
47.7706
584.995
308.732
131.244
94.4139
106.18
93.9427
92.1271
340.976
46.8307
47.7202
62.4573
65.6899
133.208
81.3592
369.744
416.497
49.7388
131.341
47.7242
47.6449
80.2189
61.8524
67.4452
55.0468
46.3595
340.61
404.216
47.4511
47.0126
178.615
844.226
52.8359
45.7763
78.9047
157.402
911.64
94.5682
368.129
320.243
346.158
367.093
72.3886
50.6925
46.2214
58.5692
942.342
54.9202
85.7231
82.308
46.1281
665.547
1122.67
1095.96
206.465
314.385
50.198
47.261
55.0841
82.9886
700.664
618.871
362.819
556.038
376.334
60.4642
50.4032
830.741
48.1003
913.839
95.5554
909.105
81.1945
137.384
52.4073
161.659
169.241
170.106
60.5448
63.5681
90.1247
78.4073
66.6514
72.1399
68.3102
1161.11
744.649
89.54
332.133
649.572
310.176
70.1124
48.0994
573.601
525.962
472.033
47.9626
853.122
51.3228
980.177
788.74
584.078
269.851
52.5004
60.5404
48.1799
74.2884
86.9938
155.9
65.6833
84.1349
59.6905
96.4574
79.3919
46.7171
49.4294
112.057
48.7966
51.3638
80.3863
64.4072
88.9464
91.099
158.473
92.6349
51.5279
88.3103
107.879
88.1416
96.5506
132.001
1200.69
58.6616
315.48
67.0694
95.4953
349.268
74.1967
55.2543
47.5155
92.2878
97.527
54.9216
102.195
104.108
85.0849
49.1586
67.3321
54.1012
71.6922
111.021
73.179
101.651
297.084
91.7472
83.543
77.5533
115.473
86.4827
320.037
48.3261
68.9875
110.507
293.248
304.664
82.3213
107.668
935.389
242.444
189.442
92.1327
73.8461
114.289
89.5196
53.5712
137.494
79.7976
89.1906
357.542
52.4452
166.522
125.999
116.54
107.42
203.089
80.1987
59.2801
46.8603
56.1287
99.731
82.4616
575.177
64.2577
91.5866
128.662
104.856
893.089
59.3554
52.0279
105.477
280.913
377.252
154.684
47.9137
136.18
68.5077
50.953
46.5073
522.749
103.117
61.8177
383.42
62.6556
70.9671
160.431
748.541
964.564
103.259
68.435
921.212
48.5686
165.297
124.072
537.684
324.627
56.6831
97.4969
544.873
93.8844
63.3855
70.1276
102.305
55.5865
67.5707
365.15
49.2395
102.799
515.961
148.685
560.519
82.9284
417.998
54.1771
1100.4
106.226
106.173
565.93
223.192
272.95
441.28
419.316
288.172
47.092
49.6145
392.877
58.1515
86.9946
359.878
63.6034
62.1825
73.4213
146.275
72.0796
52.2463
727.794
388.748
150.476
380.465
168.513
91.0462
83.8132
79.1975
116.759
63.7256
56.2781
84.5313
62.9894
305.109
326.732
86.0649
57.2606
62.3864
76.5931
113.078
108.026
99.712
77.8274
344.12
62.16
65.8528
381.669
132.965
551.316
184.529
97.4421
693.66
139.71
114.807
341.787
135.418
129.162
51.6783
719.336
46.903
56.3717
55.4192
87.9519
70.925
104.16
202.255
106.977
138.93
83.5751
112.979
101.942
46.1894
314.122
118.428
564.282
1246.61
103.761
374.152
110.391
70.9402
633.346
69.3488
60.8265
83.3296
104.295
653.274
326.802
55.9885
311.981
356.763
69.8667
1867.07
388.855
90.6584
353.909
64.847
90.1414
238.733
355.426
148.169
737.601
58.4019
53.4915
154.423
56.2194
50.0004
106.982
310.756
541.603
47.36
145.961
47.2609
146.291
62.1999
146.308
300.292
90.6963
264.463
60.4185
63.561
773.009
47.1714
54.4987
119.214
54.6646
129.444
312.329
50.3762
945.371
522.106
870.211
491.437
119.424
70.2218
52.1985
59.9644
85.2827
48.6335
89.4888
151.191
64.2545
76.1397
637.612
47.6774
151.604
48.5836
131.935
67.4141
716.658
129.06
92.894
47.7346
136.625
152.844
50.4104
60.1388
102.388
45.7786
207.943
96.2579
107.385
56.9212
48.8398
104.535
51.3388
130.325
295.95
49.2857
72.502
50.489
66.7573
437.751
228.121
133.996
416.236
801.918
385.249
77.9029
546.193
464.882
700.994
70.2695
189.274
383.982
306.793
279.906
952.149
58.4996
49.7322
188.203
768.287
54.7664
365.855
106.459
378.276
76.933
73.6859
567.454
509.391
382.652
60.7538
305.107
131.909
500.253
48.1382
212.255
65.2136
54.3611
98.5417
98.7119
304.814
116.084
65.585
164.038
77.2548
245.124
348.621
49.1217
69.2474
58.676
939.15
83.1918
132.81
165.581
140.564
67.8142
47.955
93.7795
76.4473
402.553
46.6925
107.168
329.65
66.4059
53.0821
76.1328
73.0683
618.784
139.823
200.695
94.2306
68.4077
1062.25
1081.42
59.9632
148.956
59.9584
49.5734
399.838
78.3494
506.847
56.6603
51.1928
99.5668
59.0706
51.7487
61.4351
67.3557
139.044
212.529
312.23
259.046
71.261
79.405
48.4707
173.215
558.011
891.063
74.6695
570.316
187.448
628.646
83.8571
381.642
111.798
154.832
130.823
86.4715
272.222
72.7786
179.891
111.937
61.6408
1020.04
107.669
630.632
107.694
67.8382
110.964
102.245
64.5719
68.2065
273.977
109.311
124.468
56.1843
123.666
583.443
131.693
80.4387
164.081
48.6458
61.1826
48.2977
78.33
80.4638
150.909
73.8728
98.8324
87.7731
72.2464
80.5943
64.1934
76.1685
60.5106
241.581
54.3264
106.953
52.5307
70.3439
129.39
81.7041
52.3585
81.8717
100.958
92.2482
130.954
333.378
49.0238
131.715
337.909
158.906
156.265
53.491
156.921
87.0724
282.858
64.398
50.7902
53.9606
153.155
60.2826
66.5401
832.723
138.64
343.749
49.5037
51.1505
176.437
81.8556
56.1605
125.906
49.1538
83.9258
58.0193
372.592
47.3695
154.576
50.147
50.5803
77.6952
66.2427
133.823
105.827
46.5536
269.228
67.9693
72.7331
91.153
773.356
64.9263
62.083
131.14
61.2171
56.7424
127.896
56.4182
51.2419
107.631
193.494
127.2
87.006
404.72
110.601
284.194
48.6762
182.441
67.1246
96.1076
151.189
52.2393
86.0027
63.6383
82.1718
162.753
67.4714
576.814
103.908
49.4881
489.177
131.507
1351.19
304.441
116.114
88.1548
98.7671
122.243
385.857
65.0233
456.779
91.3506
360.08
68.1953
362.444
68.504
238.781
216.785
129.196
383.13
448.477
535.109
1235.31
547.324
719.223
319.425
401.208
348.422
47.5169
98.3979
310.59
70.7562
601.176
59.8383
450.657
603.9
125.355
103.074
78.4362
46.9099
115.729
49.5444
253.845
134.52
85.9423
180.745
88.0918
157.471
69.9995
54.6211
114.392
52.509
223.045
48.1625
70.0317
693.317
64.9089
47.2857
99.1433
62.7455
581.457
243.016
71.0782
61.1825
172.916
49.6875
80.3814
52.122
54.8577
106.598
79.5896
57.0812
63.1086
307.833
90.1863
60.257
49.523
47.1942
48.503
133.273
74.612
100.032
54.4881
75.7717
98.7058
54.6067
251.694
75.8333
51.1193
61.6965
85.4841
143.614
112.712
100.348
52.0148
120.937
86.0859
55.0635
56.2519
79.6187
79.1031
98.8527
72.4821
129.758
67.3273
86.1937
117.356
273.782
700.083
1110.77
127.976
60.9544
403.102
172.75
129.089
49.4829
51.3448
47.706
90.6437
76.247
47.4502
48.3888
51.3473
116.475
47.2051
49.6645
48.1147
59.732
169.266
58.0102
118.847
54.0476
93.62
260.094
59.2393
54.8922
62.8009
1023.32
975.748
99.9373
67.4942
67.4889
60.3846
81.7516
520.171
67.2738
68.7984
92.336
48.3647
95.4616
55.3012
80.0009
115.002
90.4075
65.1734
207.289
248.329
67.329
2029.16
203.761
203.866
61.9624
86.7143
103.096
117.538
51.8289
76.9849
316.322
48.1052
199.988
561.095
108.99
127.234
570.446
69.836
80.9143
94.5293
46.9032
123.92
381.113
94.7588
88.5061
387.82
198.407
1151.51
595.867
98.0709
50.5395
141.613
68.5256
181.41
145.544
535.415
49.8511
47.8649
607.854
52.5385
200.923
74.7249
106.631
626.542
837.673
50.3788
47.2553
884.292
49.9769
53.6639
64.8947
48.1889
84.3818
121.34
247.159
58.7682
552.406
108.68
51.4446
86.8044
689.804
83.4283
611.485
66.1338
59.4033
88.6236
87.9171
61.7597
98.994
64.2362
561.569
108.963
111.918
469.778
125.716
54.3099
573.511
105.762
110.694
80.7109
118.495
111.666
76.5283
49.8691
257.78
72.7003
74.205
64.7303
115.67
75.486
60.1549
49.7409
63.8276
154.669
69.271
64.0665
84.1036
416.932
74.2845
69.0503
66.0678
97.1298
50.1223
65.2819
60.4615
134.716
95.3177
143.558
151.41
90.2712
384.636
61.4124
57.9895
417.427
334.036
536.79
91.1853
384.655
57.1077
429.151
96.2254
352.897
97.0827
47.6284
117.72
208.058
95.6518
66.5794
48.8984
60.662
443.846
61.2326
51.3978
56.3039
1858.34
373.851
48.8351
1520.75
482.184
328.404
186.073
1431.46
319.645
70.8791
360.112
92.5264
55.6825
413.476
964.351
66.598
49.6836
54.7168
523.233
49.4271
959.185
64.5787
131.295
101.562
129.102
334.751
47.8517
117.524
124.093
55.8095
106.937
52.0993
126.018
1936.13
1982.74
788.214
95.5839
494.274
48.1608
49.5735
60.5423
101.956
47.3966
56.8137
47.404
73.4732
91.2735
48.273
53.6971
77.7108
48.6934
98.3782
123.498
49.0994
118.018
133.093
47.9438
57.7545
879.061
56.4938
829.536
609.156
131.497
136.129
83.708
125.257
66.1779
56.253
398.233
57.7575
61.8683
52.457
55.2393
78.6794
142.426
109.443
182.968
112.866
50.8425
527.607
64.3326
291.801
279.066
63.8263
827.27
75.3408
59.3465
60.9194
58.0375
69.9245
51.7383
127.954
53.9678
393.531
207.481
371.058
56.1509
57.8153
82.6685
351.939
355.067
84.6598
148.368
64.9469
380.356
64.5048
104.903
489.092
87.5615
55.5056
92.7005
1105.98
60.167
59.3005
122.174
50.6757
138.949
133.551
71.0139
85.4082
269.408
172.925
738.073
73.2489
356.65
335.237
335.92
55.1015
180.533
105.161
105.085
53.6565
58.0495
60.9324
470.925
85.1046
98.8962
170.645
81.6871
61.6825
98.3734
50.4934
147.071
48.3504
63.5081
169.653
104.497
79.5724
171.088
101.4
86.732
81.268
129.32
47.6554
274.324
313.472
110.979
88.7317
47.8786
252.749
59.6866
48.6426
87.2219
49.8076
109.919
91.2102
49.2525
52.3056
102.222
245.399
220.276
49.6438
777.347
46.9264
97.9216
95.151
48.2425
760.09
151.07
663.119
50.3715
69.5749
522.923
665.629
92.0411
103.131
197.165
128.095
55.0133
85.9004
62.6032
148.938
83.1095
136.322
49.755
137.064
102.946
111.86
59.6382
90.3489
46.9577
62.4635
566.588
254.811
103.877
61.1663
106.866
88.2968
88.9433
149.081
48.0448
52.0584
61.9476
89.3104
85.6542
65.9922
115.758
57.6657
56.5872
54.4545
72.281
58.8853
65.1012
177.6
78.5415
69.5637
1278.02
80.4842
65.2486
81.1907
46.9353
85.4995
210.926
50.1162
80.4374
81.5702
957.804
64.3957
62.0627
95.4945
1503.96
96.1198
155.484
125.607
68.5798
48.1363
74.7917
66.2957
824.115
97.2756
68.5083
66.3272
49.7354
264.315
50.1955
591.913
271.319
112.174
76.4164
59.5662
111.3
90.1212
60.0339
427.544
120.869
316.224
47.5443
140.267
671.713
119.41
51.6946
103.614
53.6766
729.095
60.992
57.1098
91.4095
46.4834
59.893
87.3361
51.7367
250.514
49.3906
362.094
47.4167
78.5306
66.5633
150.49
90.0337
130.795
110.552
563.843
104
124.37
76.1271
48.3138
102.902
58.8012
54.3205
81.5035
77.2116
63.6388
127.785
47.5244
63.6093
49.0523
280.811
86.8853
554.118
527.811
317.231
162.866
65.6417
69.7698
60.8957
196.138
93.0123
48.5558
48.806
113.443
132.955
49.6189
75.0129
1071.36
108.018
67.8151
73.851
765.709
849.277
60.1975
533.79
553.421
208.008
302.37
170.9
490.093
72.6309
230.374
740.623
74.6375
46.3811
59.5985
99.4909
318.803
48.1934
47.9569
68.8908
150.481
156.426
1119.13
111.839
963.022
120.075
70.0359
87.6445
78.5233
68.7692
583.074
120.565
306.475
470.534
67.2617
600.098
1981.76
65.233
134.776
106.876
425.309
154.076
122.538
711.666
1037.84
98.7023
584.502
128.173
387.518
82.6541
48.5858
154.453
722.195
647.052
61.8462
108.627
152.991
96.7603
240.182
53.2147
68.1627
908.785
358.534
410.151
47.4148
412.177
66.7433
383.356
61.2236
107.789
197.888
330.454
87.4732
109.18
320.33
100.437
759.632
75.774
62.9431
360.326
49.8366
151.49
47.8112
54.4335
47.7154
83.5842
417.595
458.669
340.909
61.3882
65.7509
272.579
60.2721
438.449
68.4507
54.6766
83.342
197.504
153.865
590.009
51.3857
75.6142
67.1794
300.836
105.295
566.115
877.579
435.644
104.746
64.42
384.859
386.012
157.955
51.6104
64.3956
46.6218
730.747
244.832
381.791
1947.37
237.636
97.7395
82.8863
758.464
398.497
66.2724
89.8552
102.833
359.751
58.3356
49.7204
90.1285
77.159
667.001
332.527
231.759
199.457
280.89
356.618
165.809
96.0702
825.433
500.368
694.486
206.897
339.287
606.808
155.466
60.8036
104.83
58.3576
55.9846
73.6369
73.9096
145.188
281.576
86.538
179.297
182.378
147.256
85.9616
185.034
105.039
85.7933
129.647
700.912
1095.97
492.169
67.9246
121.15
80.6583
263.885
549.508
156.011
479.62
78.0119
421.28
324.828
183.549
49.1006
48.5888
71.5246
63.5289
624.631
89.7681
58.1475
501.164
73.2181
776.501
418.283
99.1537
429.981
60.9116
46.9411
49.8096
46.8948
100.488
68.4181
94.0952
134.75
75.1645
48.4918
158.924
619.809
513.881
47.379
106.551
53.1981
65.5457
54.5504
608.803
52.971
53.7154
54.6966
102.232
48.8237
54.3352
94.1237
54.9929
58.1338
56.378
231.566
47.5681
62.2945
122.167
411.97
386.775
64.8879
647.432
647.12
56.9896
55.9598
163.195
75.464
294.298
83.8098
93.8039
81.7728
273.813
71.1023
93.3452
1016.2
423.687
99.9618
610.516
50.1688
48.2149
64.8444
47.8771
47.6114
72.5555
56.4169
78.1728
193.296
82.8438
405.325
176.426
261.546
82.1099
46.226
632.879
132.556
86.1836
564.951
104.561
653.804
70.7025
443.917
47.663
175.388
87.2921
245.505
49.1165
87.8434
79.868
722.056
49.089
46.2779
106.103
80.6042
125.681
58.8556
66.432
91.6153
50.7675
131.176
51.6901
64.5386
148.186
89.4926
204.208
68.1377
48.3856
61.3577
47.1064
54.5605
213.041
46.154
89.4087
46.5013
231.628
120.055
54.1909
116.117
112.219
59.6776
81.7349
71.2803
131.512
158.488
53.7692
48.9443
89.6057
73.3118
386.385
560.785
488.413
63.0046
49.4821
57.729
63.3746
90.612
845.346
236.391
64.4605
54.525
74.2914
49.2104
49.9963
76.1858
143.954
182.737
468.138
273.31
57.22
77.2674
81.6111
46.1807
250.783
73.7368
103.982
115.049
53.9174
966.928
77.1584
57.4089
69.5472
68.817
162.159
457.007
47.3022
416.18
57.5045
746.423
114.159
500.249
72.3138
49.3093
59.12
104.862
53.2786
48.6538
126.792
46.938
48.0803
53.2161
61.2178
215.38
60.2179
747.153
75.4659
61.0944
143.2
171.506
48.4878
471.811
936.164
735.456
552.595
445.896
53.8256
404.46
342.76
80.3282
58.2759
54.708
685.283
92.2821
98.2881
49.356
74.129
286.952
722.256
155.688
83.7084
46.3284
66.266
247.445
50.1184
56.9297
558.509
483.92
276.717
734.43
77.0115
47.8945
71.1897
82.5566
1121.96
50.8933
47.9763
46.9408
299.317
47.8446
54.2653
96.0565
101.046
47.1167
112.262
49.026
148.958
82.0387
140.67
56.2301
215.546
91.853
114.254
180.964
112.869
232.65
53.645
616.981
93.2775
343.721
331.571
410.387
84.1852
110.009
193.656
71.8012
46.9859
51.5108
53.1393
88.5226
564.316
119.028
48.0534
84.566
62.6159
49.5877
120.068
60.5247
136.398
99.2814
49.7803
101.991
53.2065
76.8019
288.247
536.17
69.3205
101.126
80.8457
105.496
534.266
277.337
558.491
853.989
143.531
49.6738
51.1739
47.4065
106.874
836.553
81.2824
796.03
134.585
48.586
119.464
377.52
49.126
49.0003
56.5712
77.0562
58.0302
266.587
74.2814
92.37
269.766
49.2469
99.3594
61.8725
130.431
89.3765
55.2771
642.563
81.5945
116.381
58.306
102.648
48.1226
115.328
123.249
93.9887
94.7608
77.0747
65.2809
68.3207
54.3476
231.674
58.5773
54.2681
118.024
223.047
235.671
81.3605
95.8852
115.559
173.294
71.1912
337.132
82.4476
141.011
104.702
71.6792
163.662
84.5756
85.6932
344.484
102.534
53.1691
49.4738
333.627
91.4575
105.058
53.7064
114.934
87.9794
48.8915
96.2346
390.532
90.5978
72.8956
89.2558
646.474
73.9014
92.6508
147.616
61.0051
159.413
52.0857
724.814
83.5571
80.7702
86.3464
56.9533
118.354
56.7949
483.238
46.2104
78.2335
626.831
58.2421
114.788
206.813
103.457
50.9709
540.793
57.5615
47.5144
95.1638
135.717
56.5961
302.739
47.0179
371.848
99.8049
47.3889
76.6303
119.433
714.619
184.163
71.496
49.2944
131.467
384.481
386.213
118.682
125.606
997.397
209.776
323.52
130.989
85.7736
104.904
59.8782
526.84
1007.29
153.13
175.416
100.324
935.151
485.866
445.672
417.739
171.706
65.0182
54.5528
152.82
73.7559
548.533
327.738
82.0793
773.084
109.722
65.5458
68.8779
51.4719
108.479
89.1274
92.3398
78.9781
142.963
184.429
868.739
57.4158
119.187
639.202
603.12
182.281
181.577
66.3383
674.225
47.5798
65.7942
363.477
148.453
47.7402
322.473
422.344
69.6801
125.952
50.6073
98.864
57.1566
80.9459
176.032
86.3669
596.36
46.7938
54.8508
90.652
475.573
168.773
124.327
169.496
243.568
123.036
78.6145
396.12
109.96
72.7708
243.452
774.135
279.957
59.0356
378.559
160.428
89.6356
66.4274
127.887
49.1338
106.054
81.8661
77.5305
70.6498
60.4008
88.7036
48.0996
46.4575
49.4756
100.497
51.2506
160.718
414.099
716.064
98.2399
80.9699
59.6726
53.4517
105.511
652.678
53.8842
146.636
74.1674
209.846
62.2158
108.794
138.337
391.506
49.1851
56.5072
251.428
53.1772
73.0212
108.863
70.3866
363.893
82.4845
321.806
401.524
242.26
627.587
186.204
385.988
86.6831
130.284
145.978
55.8808
413.489
117.323
88.2738
157.466
90.0231
83.288
47.0163
57.2732
52.0447
46.6596
86.949
312.351
46.8847
888.082
114.287
322.397
117.329
341.875
1786.42
56.5809
262.574
1086.25
118.947
338.457
79.1893
70.7085
768.443
989.805
267.444
163.477
57.026
346.648
103.802
562.375
54.0751
57.6274
224.917
1000.56
62.5409
80.0917
54.8486
218.96
455.223
51.4077
483.766
239.104
535.05
695.457
53.4797
333.667
69.6881
645.053
385.909
218.897
367.883
229.232
443.479
309.981
238.122
78.7337
73.8626
73.451
53.1541
55.8164
1234.73
70.3971
103.532
71.2263
78.9353
115.673
968.901
128.584
259.278
307.721
134.174
338.111
130.615
46.2308
73.2938
919.46
551.659
238.712
191.43
232.017
83.6378
451.236
58.2159
245.576
258.833
58.6314
491.229
110.425
282.888
348.459
131.791
174.182
180.599
125.447
52.7636
144.146
65.5901
509.057
71.1195
188.204
79.9838
246.057
61.3447
69.251
357.802
126.319
298.329
48.4936
999.701
47.5334
61.1877
54.406
58.4393
87.4785
486.558
143.364
67.2222
629.147
77.5562
50.4953
61.9606
840.528
50.2617
91.7406
840.836
218.352
869.444
416.694
138.551
168.989
174.155
194.471
723.97
68.9762
382.097
119.322
65.7441
182.483
67.06
128.76
69.7458
645.035
419.473
517.747
335.056
223.302
298.07
52.1805