/*--------------------------------*- C++ -*----------------------------------*\
| =========                 |                                                 |
| \\      /  F ield         | OpenFOAM: The Open Source CFD Toolbox           |
|  \\    /   O peration     | Version:  2506                                  |
|   \\  /    A nd           | Website:  www.openfoam.com                      |
|    \\/     M anipulation  |                                                 |
\*---------------------------------------------------------------------------*/
FoamFile
{
    version     2.0;
    format      ascii;
    arch        "LSB;label=32;scalar=64";
    class       volScalarField;
    location    "0.0321319";
    object      p;
}
// * * * * * * * * * * * * * * * * * * * * * * * * * * * * * * * * * * * * * //

dimensions      [0 2 -2 0 0 0 0];

internalField   nonuniform List<scalar> 
47425
(
1.24541
1.15276
0.0755935
-2.0254
-16.378
0.12629
-14.4421
0.0304473
13.77
-32.5605
-0.0483857
14.5168
-10.43
-0.0168159
-0.815529
12.9732
0.02161
26.592
-99.3571
-28.0803
5.30131
16.4656
-0.0936361
0.863328
15.2874
0.917971
0.0136864
-35.9657
-0.0357181
0.234251
16.2188
13.4105
14.3506
0.18641
0.0837639
-0.0524056
17.4211
14.1651
7.05384
1.12277
1.40122
1.07593
3.74235
14.1098
-37.8014
1.07167
0.104749
13.9511
1.11031
0.402848
48.0945
1.39202
0.0214836
-26.5203
1.14025
9.31142
1.18045
0.21147
-13.6842
0.0742685
-28.4316
-29.4615
-68.5328
21.2846
13.5683
3.71129
14.3536
-0.430155
-45.7757
23.6039
3.79369
0.672509
2.06749
6.31256
-54.4718
13.3695
-68.898
0.139826
-109.698
-17.4484
-57.9639
10.4114
22.2167
13.2913
1.50931
1.39089
1.66143
0.98283
-1.5971
-23.0977
15.7152
2.901
0.358213
1.32944
1.35693
1.1244
0.310024
1.25436
1.43737
12.3845
12.7653
24.5529
10.1378
46.803
9.8906
1.53176
1.24789
1.255
1.47205
14.5567
-46.3578
13.8602
1.26271
1.3893
0.386461
36.6902
0.682291
49.9084
8.69887
-1.40169
1.43559
14.4046
13.8017
-5.63071
12.0693
0.704116
1.30646
13.468
0.941099
0.436901
22.1052
1.10349
57.2223
8.31775
1.23104
-6.88152
2.42338
0.678628
11.9784
0.30902
14.385
-7.39153
6.70785
1.00872
11.9519
13.5036
-14.1692
13.6801
6.86964
14.4132
1.41269
41.8097
13.7196
-1.57644
22.1234
0.934693
4.88975
-111.281
1.20932
0.326954
-0.597335
0.912709
0.558377
11.765
-43.6285
-78.7328
13.6582
-53.941
0.577239
-39.0174
-55.3441
0.771516
13.3741
19.313
1.06618
13.8132
33.1003
0.00820486
0.0278736
0.329814
27.3895
1.07213
0.0475552
0.0859344
0.116819
13.0488
11.2348
51.624
0.421979
1.14708
14.3075
0.40758
-9.93613
14.5088
0.461281
-0.338394
14.472
0.81781
-0.975197
1.28016
0.109131
1.70116
1.56701
0.036922
10.0443
2.56706
-0.00554524
0.381898
13.1794
13.3905
1.13557
-0.25506
13.3594
1.01132
1.93286
-1.73229
2.46055
-15.1849
22.0119
14.5388
-19.6505
-1.84139
3.89218
2.3539
3.12045
-17.5577
0.264646
-1.26968
-2.33156
-6.98455
3.25232
0.267857
1.54461
14.2849
0.0504159
13.0602
-22.2234
0.717418
-19.922
-0.0782189
0.15807
0.371275
0.347126
-6.11096
8.6415
13.4023
1.22448
13.3078
0.585684
-0.0341657
1.01877
-15.5783
-0.0223316
14.5073
0.0682435
0.283955
15.964
0.170618
7.45944
13.3035
0.277963
14.0395
10.4661
10.3594
-6.98377
1.2473
0.160536
-6.85071
0.29778
10.6395
11.1293
-19.7432
-21.9645
11.1129
-17.4242
10.9412
-18.3089
32.1264
-20.2169
35.6029
-27.9963
1.31284
-32.7566
0.882366
0.609699
-1.3143
0.675351
0.12129
1.40138
0.510975
58.099
20.4492
13.5503
0.054335
0.118175
9.98913
-5.35626
10.8581
13.9461
-7.0592
1.28195
0.794722
0.216155
0.0498517
-64.5299
-75.526
38.9558
0.325478
0.964534
12.1274
12.6875
50.6034
-0.181504
0.0835291
-10.533
1.38447
0.290021
0.581197
0.0864743
-37.7345
-10.5182
12.7135
12.368
-0.06597
1.08332
0.035418
12.3549
1.139
0.609316
0.247019
-3.3862
-66.2789
8.23242
0.118103
14.3555
-0.0816252
-65.1866
13.9372
0.600645
0.644169
12.8114
12.6354
1.12369
14.5256
0.534686
0.130265
0.230501
17.2705
-0.0234383
0.206456
13.179
8.22017
13.3987
13.9912
13.4082
-2.25043
0.283075
21.1549
13.7024
13.6386
17.4425
-2.22957
0.685452
0.120684
9.01776
1.37716
0.159513
13.7271
14.183
10.7193
0.298271
-37.0052
1.73502
11.6484
13.5167
11.6007
0.152093
13.1842
13.3503
16.9564
13.2094
11.505
0.873502
13.9898
1.10373
13.9302
0.00194515
11.149
14.3412
0.117287
7.37134
8.59112
-0.042802
7.47454
0.650946
7.93535
14.1157
0.026691
-12.07
0.213021
-24.0244
0.322914
-32.6372
0.199555
3.70733
0.239021
0.247475
-0.0112255
0.126123
0.164892
8.72431
-77.1427
59.9146
0.800858
8.33673
6.59182
5.21745
0.672924
0.115427
0.408527
0.176874
0.589339
1.51113
4.98345
0.0250632
0.0123549
-3.54115
-2.00951
0.18861
20.3051
-72.4396
1.38937
30.0103
-70.5216
1.41648
-75.0617
-27.6613
0.759258
2.45574
3.40545
-0.0681736
-78.0944
1.03122
0.86218
0.375789
-0.39427
1.61528
0.935708
1.05003
-18.568
-74.1661
-19.474
14.2156
22.7233
-0.385834
1.07131
1.95387
-8.3282
2.2778
14.2256
14.4693
14.5035
7.63046
14.3891
0.580561
11.6608
0.231402
0.490186
0.462677
0.520089
14.2045
14.3708
13.3213
9.00248
12.4629
0.985502
1.2926
-18.3105
12.9858
-9.88053
14.3882
0.0546946
0.540109
14.2804
0.887017
12.576
13.8035
13.2297
11.0661
0.548483
0.986988
13.0225
1.44766
10.6196
25.6512
0.676042
14.7634
13.2285
16.5967
1.20648
0.321156
0.860458
0.151843
2.57465
0.0325547
0.0898483
0.789599
1.01858
0.537302
0.119875
-0.045135
25.6788
-0.0170209
1.4003
1.1861
0.93848
0.140635
0.0246194
12.5697
9.71271
13.4306
13.4357
48.2122
-0.0411906
0.0765575
13.7555
14.0094
-18.5601
-22.2044
0.0209244
1.03988
1.22496
-5.79214
13.0577
-23.6813
14.3826
-44.1242
29.0196
19.2316
0.179157
-18.1946
0.176367
1.08673
0.038528
1.36525
0.0724578
0.791436
-67.8071
0.225545
-0.0147351
0.234975
-17.9125
0.656033
0.121584
-17.724
-13.7332
-0.00721513
0.192236
-35.3114
0.561668
0.861681
0.0500301
0.39185
0.31049
-9.69967
-7.04317
20.1182
1.28574
1.32198
0.124497
-25.2461
20.42
1.3877
-35.6141
0.0186861
0.202742
-37.529
-34.405
15.1208
-35.0762
-35.1622
0.20071
14.219
0.134456
18.1666
13.4398
0.0635267
-43.0157
12.7583
0.112784
0.593448
-15.7509
-9.16984
14.3967
8.1367
-57.9179
-22.9263
3.70947
0.166842
1.22026
6.7651
0.263275
0.608656
13.4476
9.49941
14.408
0.190605
13.3992
-21.1914
7.74492
5.57922
-23.135
11.7446
0.403281
7.33107
11.5999
0.362629
13.7284
0.0781278
31.7643
13.3569
0.892449
1.24845
-98.3586
8.50065
-6.41873
-35.8409
-37.7993
0.227807
1.42487
-38.4104
-0.161631
8.2102
-10.805
13.8212
-34.2818
0.331196
0.262603
13.4825
-26.855
14.4385
14.5133
0.500001
0.084764
0.777438
0.0313029
0.770247
1.05666
0.358941
-26.7096
-39.1543
3.09973
13.4209
0.200389
19.0192
12.8123
14.4176
14.4384
14.477
14.475
22.0069
1.93969
14.4005
10.5157
-9.37754
0.232022
-79.308
-20.9948
-0.0649259
19.8906
6.46512
0.128041
-84.0699
0.0498588
-54.4604
0.519346
-7.66651
-9.29218
0.642594
14.7125
10.2826
29.2207
0.334889
0.522376
1.31641
-10.3564
14.3416
-11.7894
1.57997
-85.2951
-7.81101
1.46058
-9.88877
14.3583
1.07216
6.85651
1.36036
-11.0784
14.2902
13.2263
-10.5339
0.282636
1.41857
0.163986
0.616223
33.5912
32.535
16.2592
20.4869
0.17452
0.0137245
5.47124
1.3773
0.703668
0.244732
1.12542
0.25338
0.978661
36.2253
-6.643
0.19304
13.2081
0.851519
0.828637
1.00292
0.105302
-0.977521
-18.6954
1.08058
0.240814
-0.0741345
0.74412
16.319
-0.0700741
1.46152
0.719877
0.674987
0.907459
20.9202
40.6092
0.875096
-36.2805
-3.49096
-25.6165
-35.1777
1.28784
1.92666
9.42478
-0.043348
46.9228
-37.145
59.4174
-5.85933
2.52291
-11.1484
0.467076
59.6625
6.18516
1.81951
1.09676
0.395876
-5.99213
1.42655
1.18231
0.760723
-40.6539
29.3684
13.6483
13.9843
48.7902
45.0832
-8.2899
-55.7716
-12.3273
51.1639
48.4709
13.8448
0.461656
19.2821
0.491369
7.76351
-35.3031
5.55055
6.98408
8.32737
0.314125
-37.7322
-38.2531
0.203325
7.13736
0.59962
0.404909
8.28482
0.26621
17.7134
0.0447413
0.409352
35.7542
0.227897
-0.247255
-0.0109579
0.52633
0.171848
55.1403
-16.504
0.0791258
8.82497
0.601556
17.1314
17.2776
-10.1576
0.444151
-44.7322
-11.0857
7.43137
4.03448
28.296
-57.5942
0.113061
0.113709
-10.919
1.11108
13.9949
3.07997
-0.043664
14.5696
-55.0409
-15.4127
-56.4546
14.5291
30.2253
0.361618
-8.19014
18.6165
-10.6795
0.0588953
20.343
-56.3184
-13.6179
-11.4584
-42.0247
-10.3954
1.33497
0.113932
-9.46819
0.134425
-11.8058
-37.8134
-0.00253849
-14.2258
0.980515
0.766107
-36.1984
1.03434
1.4431
14.2389
17.1409
13.6474
-18.554
-1.9352
0.910428
-11.6908
49.861
1.28367
16.6743
1.11673
0.921781
1.08733
1.30147
-21.6893
-82.2344
-7.93178
2.24601
-13.2717
-14.8331
-15.2955
-0.573276
1.02528
14.0819
14.2423
1.2577
-4.08048
17.6919
24.3106
14.1514
-36.8511
-11.4057
1.85287
0.875891
0.41495
1.02064
35.7112
13.8258
-8.94137
0.214072
8.61046
13.9426
13.9037
13.7093
13.4504
14.2128
-21.6706
-6.27457
23.6292
25.452
18.0863
8.72956
-0.791608
39.0112
1.3966
-5.30685
1.41341
-10.4386
-17.2697
-0.784091
0.931913
14.2601
16.9913
13.9948
1.24009
-49.218
-22.9519
-38.5176
11.2989
-6.49517
8.7977
-43.6823
1.28974
-50.8383
1.37637
1.47922
-3.53954
5.89057
1.15571
12.7935
0.130063
4.75825
-5.24673
0.829085
2.79137
-21.5562
-11.2919
0.579873
18.2528
54.5284
-69.8794
41.0244
-19.4134
-48.9408
0.287343
0.771044
22.9706
0.548541
54.0694
0.3914
0.0634725
-74.2697
14.8525
3.14778
0.306266
13.9711
26.2442
12.4403
0.468794
13.3823
-12.4017
10.9045
14.852
14.9754
14.4071
0.570884
-8.07315
-6.78099
30.9264
14.7813
0.922867
11.9495
0.559816
0.576429
8.39475
-7.33891
-11.9427
-6.26745
-5.35289
13.8462
-34.3788
0.682407
0.434979
0.541723
-78.3466
-65.7508
-16.6163
-33.8644
1.31301
-1.40793
-34.0183
-36.1874
-3.0566
9.90419
0.675956
1.48986
-28.3708
5.73941
0.144261
0.874279
12.9499
2.39769
36.9904
-96.7357
-10.3104
-25.4569
0.937842
57.4691
-77.9612
1.20705
12.2931
3.68281
-33.6851
12.3765
-2.98964
18.3319
-22.0081
2.49089
-22.2765
3.61467
-6.09216
1.46121
8.72415
-19.6915
-19.3064
11.3732
18.9817
-7.29564
-45.8337
10.5163
1.26583
-18.8777
-31.0549
12.992
9.5553
-53.2182
-69.6153
-35.1824
11.4003
-2.58032
-12.3742
-36.8527
11.1927
24.6075
-19.4819
-5.43743
-3.54965
-17.4334
-35.6689
-1.10991
12.6647
13.5942
15.5175
13.587
11.2352
-9.2852
14.2651
14.3761
14.9428
1.5006
-55.0645
-31.7262
12.9666
40.6948
-13.8603
12.9538
-31.113
7.13974
11.4017
-5.65483
-2.44649
11.9831
10.2468
-40.1937
14.8125
-26.3617
-77.1319
-34.8448
11.3898
-5.83487
13.2525
1.26068
1.38219
-11.6396
-35.2713
0.846153
-50.2332
-27.618
62.6559
-18.2013
-63.9849
-23.6775
0.0522507
1.33811
-39.0016
1.01288
17.7118
0.049183
-46.8993
-35.0004
-0.0567664
3.00347
-29.9804
-18.1714
-40.7084
49.9323
0.583429
-10.7424
-71.7709
0.273402
23.6256
-23.3677
17.0742
-85.8074
-21.4692
12.2665
0.175986
0.340137
1.80938
0.480959
2.67963
1.32213
0.58131
8.93921
38.7967
14.4484
26.6161
-24.5785
-2.71602
24.4357
-0.982243
2.04339
-7.34054
14.9298
-60.2947
0.891956
1.20292
0.829762
-30.5853
1.05725
-81.5341
0.813747
12.7886
5.7868
-84.2903
54.5667
-39.4655
-16.4984
39.5699
0.838868
13.8079
-6.11557
-21.7367
-43.7803
-21.5373
49.8634
13.6953
-11.2785
-47.1743
-5.91644
-1.22699
-33.4303
-24.4274
1.56635
-9.63505
13.5157
13.8417
-47.8899
-51.1968
0.172993
10.0781
13.625
-79.0938
13.7713
-21.6386
-10.989
13.5909
14.1223
-16.3511
2.0867
53.6078
-13.6394
6.4777
33.4942
31.0258
11.3267
-77.2434
-30.3234
-10.13
-103.247
65.619
14.1876
-35.2556
14.1525
25.9769
-92.9947
4.45866
-84.5372
-40.0732
-1.10981
23.4468
-3.62929
14.0599
13.9541
18.6868
-18.4979
-0.337256
0.0505151
28.9955
0.306387
-1.52745
18.1216
-8.09769
0.819859
-11.3805
16.9069
-50.9906
-26.104
5.06853
-26.1569
-53.0145
0.0748683
50.0219
-42.2496
-1.78216
31.4689
-6.72251
-8.96605
-18.4815
-23.3869
8.78924
-36.1415
-14.8472
7.20627
2.5926
0.447164
-18.7326
-4.82837
27.8167
-31.1748
1.2727
23.6308
0.568745
-47.129
0.160033
0.393377
-6.01016
-18.041
24.6801
0.4141
-8.28835
-6.58
-86.1933
0.0952041
-8.25358
-50.8368
0.899902
-5.04322
60.7634
-3.17727
-14.0804
-61.0597
0.176093
7.96025
0.0542689
-116.113
-46.2616
-31.8367
-45.1126
24.0002
-1.10009
-6.18313
-41.854
-62.5387
-7.02964
0.524399
13.8904
0.796647
0.525426
3.84194
55.7825
14.7752
13.6313
-4.26594
0.48822
15.9301
14.6408
24.3906
14.2016
0.537241
21.4553
14.76
11.8943
-9.1954
1.33634
13.0188
11.2743
-6.41529
13.3955
0.507396
0.855905
12.0866
15.0102
14.1019
-76.4412
13.4182
20.8295
1.02888
0.132145
-24.7543
15.2619
14.597
-70.2236
-53.9478
60.1035
16.7013
-74.6186
19.833
1.4386
-66.4271
5.55689
-70.676
0.783593
0.805524
14.0602
23.263
11.9756
1.47343
1.27569
1.70525
9.46269
10.1632
1.17163
-12.1809
0.81233
-8.69819
61.2933
13.4013
-42.0926
-12.8803
-61.1181
0.966854
12.5931
-0.0965064
15.0054
1.21138
13.5184
0.984928
-32.7907
-19.5197
-35.313
-1.09517
-5.20243
1.06264
3.84449
-24.6331
1.40114
-43.5147
0.39572
-38.4572
1.43202
-49.6131
-76.9056
1.45777
0.0110567
-52.1434
0.354936
-56.9188
13.0416
2.48961
0.902669
1.28999
1.59271
0.646707
-7.61427
-20.2763
-4.14168
13.104
1.0435
13.0136
0.719055
12.9414
-41.7518
11.0622
-28.7407
2.34603
0.878372
11.0345
0.459589
10.8548
10.7815
0.396873
1.00719
14.0471
1.00198
-1.27388
1.45476
1.21377
-18.3141
-39.2504
-5.71338
1.14362
-46.8883
0.791635
0.52091
0.426258
0.400743
0.0613898
1.49796
13.3304
13.0017
0.806553
0.516896
44.2842
1.20575
0.885462
1.39344
-38.0338
1.6789
-45.769
-31.1014
-40.0718
12.3224
0.267912
1.70039
0.108368
0.884077
-36.2397
-6.42601
0.863569
0.855533
1.71312
1.84695
-39.7724
1.8251
0.0225778
-11.6726
0.490467
0.397119
0.262092
0.357147
0.222202
0.246343
0.453885
-6.63143
-10.7894
-0.0255561
13.0809
0.183887
-5.09052
-4.01798
0.569805
1.06167
-6.63996
1.33605
0.220011
1.17547
0.914052
-5.97084
0.00284696
0.986331
0.474544
0.60225
1.40093
-3.25571
0.0540206
-51.2885
0.575324
-13.5289
1.45012
-0.0543115
-53.4497
0.0313171
1.32502
0.113331
0.60985
0.708277
1.0871
54.5061
1.56258
-15.5916
0.993752
0.257804
1.5755
0.820383
0.442021
1.2119
0.469228
0.646436
0.325721
-3.86213
-9.07925
-32.4458
11.8451
-8.49928
0.959528
1.14427
1.15481
-19.319
-0.00871227
0.0933233
0.123935
-48.7099
0.134592
1.5365
-0.0270194
0.123856
1.53574
-129.68
0.106982
0.969724
13.2266
0.0165557
-6.15405
25.8449
29.4807
0.0293844
8.42394
0.187325
1.12779
0.387929
0.351239
-47.3474
-53.8875
0.125498
0.774885
-38.7897
0.0111354
1.89554
-18.4379
0.020284
0.863232
5.84554
-0.245139
-3.2659
-0.0315161
1.47155
20.4833
0.342646
-0.10535
13.3554
-18.6485
13.4088
-20.7944
-23.0336
-36.2687
-19.3442
0.499437
13.3189
-11.8585
13.4731
1.39395
17.2842
-27.9326
-21.0542
13.8079
-8.78636
13.8063
0.563683
1.17837
-38.7664
0.769186
0.453061
13.4532
13.5099
43.0636
46.3254
64.6496
-27.6539
29.3769
13.8357
15.8492
24.1942
13.6279
0.726223
0.111023
0.408779
-0.18548
-38.7481
-37.8771
0.667475
1.53198
0.666432
-72.3664
-1.69873
1.07819
1.67744
-25.7456
-48.3769
0.722335
-38.7237
0.13205
-26.3929
-28.3191
-14.5428
0.287816
0.688399
14.3574
-49.123
0.117153
14.4526
0.606744
0.0894587
-62.9632
-60.9773
-67.9109
0.265682
-43.0617
18.0554
10.1308
4.75467
-10.4991
-72.9769
-70.8591
-34.582
63.4067
-35.8033
36.4465
13.3584
-34.296
14.0105
-51.5582
13.4159
-47.5386
13.3239
-20.2057
1.89382
-24.0597
13.8985
13.7631
1.90602
13.6006
13.4325
34.1782
4.32633
13.8182
13.4727
-57.2599
-50.876
-9.25225
-20.1372
-52.9338
-19.5972
0.962153
16.2824
-44.0572
-24.7497
-27.5872
14.8487
-74.4754
7.69456
-53.5719
-82.8192
-43.595
-7.36083
16.6851
7.64437
10.5462
13.778
1.35618
-24.2982
0.955672
1.23868
1.26695
0.14628
0.0955635
1.04373
0.519544
-19.017
0.223808
0.127798
0.196191
1.35575
-14.8616
0.889663
0.128235
0.336655
1.35469
-3.58588
-12.8469
0.652828
15.3058
-24.1134
-83.395
-3.05023
-64.1479
-6.78934
-7.17887
-15.7516
38.1483
7.81252
9.53101
-4.05911
0.0279724
0.118059
0.443085
0.00483462
-0.137143
-0.45947
0.206791
1.39792
1.56062
11.4921
-5.85481
1.20854
47.858
-0.0390815
13.9717
-0.0411845
0.0149349
45.0993
-52.8864
26.3358
0.161139
1.15774
-20.243
-39.5457
0.0103065
1.33403
17.2624
-7.27812
1.02563
0.0616941
-13.6226
13.5962
-0.40931
16.276
57.1112
1.35362
0.966333
-7.96741
0.0961866
0.982364
0.72856
0.957891
13.1172
13.5173
9.67283
13.5056
14.0708
6.2268
4.64598
-2.50211
-51.4218
7.00925
-5.54798
13.3337
13.2806
64.6242
5.07041
1.7653
1.77171
-31.4435
-27.2634
4.93331
17.5583
1.51827
32.5514
-3.84892
16.0328
-26.2461
49.8367
32.1186
-3.95633
2.5583
7.08119
-28.7994
-71.0692
-67.1854
2.1846
-7.4385
-73.1266
1.87754
-8.84409
-3.96871
-27.2484
-42.3742
1.99055
16.0091
-77.3323
12.1448
-4.26677
1.90015
11.8319
-2.66471
13.8899
-6.5816
15.1455
11.1111
-40.8935
10.0363
60.796
-14.4261
57.0964
33.4339
-60.7124
14.4849
14.4973
-46.004
-8.70291
1.40559
-36.7899
-19.3739
-7.50923
1.64147
1.5464
-35.4923
-0.78797
7.89629
60.1077
-4.97077
10.7649
-3.55509
-12.4939
8.79041
9.24323
-25.0392
-35.8732
-25.4754
-37.2809
0.463675
-11.4015
1.34871
-12.0508
-8.14521
1.53456
1.25803
-10.412
-1.69624
-36.3862
-36.8587
-0.0534057
8.94839
1.07663
-8.28893
-17.1173
10.4067
9.70447
-10.9623
-36.1703
10.7495
-4.77583
-37.4473
2.72894
-27.7325
0.0253649
-2.24595
-48.7223
2.88927
54.8129
-3.99175
2.07038
1.94205
1.08102
-81.1457
0.810641
0.875603
-3.84194
0.22262
12.034
0.530881
-20.2996
12.6027
35.8451
13.6663
12.706
12.6144
0.992723
-5.39422
-2.4983
-6.27896
-80.5353
-0.108409
-34.885
-6.56735
-0.0719179
-59.205
-0.0120848
0.731206
1.64528
-4.73793
-46.0508
-17.807
13.121
42.0906
-1.87745
1.61656
-29.3455
-35.1185
-2.97804
-48.0718
35.8653
13.0411
-4.77022
40.6584
13.5474
-56.4279
19.0221
10.3143
50.711
35.8662
13.9354
13.2603
63.2611
-46.3334
1.11844
55.8589
7.78414
13.6956
-6.21406
13.8028
-21.6719
13.0574
61.5186
13.5376
13.7414
42.4994
11.784
17.6487
-10.0562
-1.35459
16.2689
-55.175
25.7037
-15.8857
-46.374
-58.8589
-17.9743
13.8457
38.5945
15.7318
6.29718
12.6332
13.1728
14.5187
1.23375
1.26721
43.257
-33.3058
13.2334
-20.1857
3.29524
11.3307
-11.942
-57.7987
1.17797
-11.9369
13.7545
5.19138
1.05339
12.4719
-5.20653
1.3136
1.20943
-33.9957
4.01884
0.864319
-5.272
11.946
0.762987
22.65
0.781714
-10.9205
28.8488
5.89001
18.8439
38.1518
-37.2456
59.2196
43.6267
-24.9069
-49.0081
-38.6
-19.1788
-36.6684
-36.8276
-21.3696
-16.2381
-24.612
-38.5455
61.9153
0.631386
-55.6558
9.48367
-0.0894456
-27.5291
-60.3703
-5.44902
-35.3501
-12.2596
-34.3201
-11.0667
42.9595
-32.8654
-24.4398
-38.0782
26.7988
-36.9953
1.09561
-65.8048
25.4688
8.66804
1.00377
0.268776
47.5538
8.46776
-30.3483
-13.6349
14.3511
1.19124
-3.38711
-20.7096
-26.6598
-0.699602
-1.86488
19.0068
-23.1427
-4.01449
1.22923
-17.1531
46.3988
-0.426884
6.8024
1.13934
5.00911
-34.8624
11.4936
9.33993
-7.87733
1.3306
7.08602
1.34961
0.691664
65.0483
4.40683
-22.5652
-3.40107
3.31959
-79.3627
-80.3676
10.2556
10.5937
9.65247
12.7947
-18.59
-6.12972
60.1816
-7.63654
12.5736
-19.0245
-0.657547
-3.97914
10.1679
-8.0442
10.1276
-15.2824
-40.0521
-35.6569
35.2179
-17.685
18.3222
10.4924
-46.3856
-56.6515
33.0689
-64.4192
10.8843
-50.2864
36.5182
-9.90666
23.8433
-9.83419
2.17869
0.224041
-2.75091
-9.55606
-31.2766
2.13199
12.9627
-82.1848
14.3126
-18.4634
14.201
0.099478
11.5648
2.96926
0.926637
0.220566
-1.43458
8.03739
2.87748
16.5559
0.755768
-57.0926
36.1823
12.7799
42.3553
13.6977
3.97203
12.4865
14.3893
32.2098
1.10233
32.1528
1.21897
0.857204
-14.5332
0.818404
0.366625
-15.1923
-9.35411
-25.9553
-1.22792
36.4512
6.21541
30.3995
0.851274
17.7571
16.7221
1.23822
0.513464
0.286494
2.09301
61.2325
0.270792
-4.19915
-35.7378
13.731
14.0665
18.1353
13.9085
-16.1621
-23.0974
2.1448
-1.40378
-1.31187
-9.80745
36.4295
0.305565
-45.274
-0.77854
-24.5114
1.61158
10.3498
-19.2977
13.7417
13.8162
-12.7623
14.1302
1.20646
8.39147
-44.8172
18.8533
57.3301
1.35845
1.18016
37.286
10.211
2.36091
35.0665
9.09289
-9.49088
39.5086
-14.8456
41.5417
-64.6597
4.91367
14.3392
0.987486
-5.46602
2.72571
0.890649
0.531001
0.256454
14.3748
-27.0887
5.42684
1.41482
-18.6899
1.57487
4.76219
13.8617
14.0444
25.6398
6.03958
3.62985
-5.25954
1.3171
-7.97287
13.6843
1.5726
-14.5541
62.777
-14.646
1.53884
61.419
13.8862
-77.6482
55.8942
2.40699
4.47574
35.5354
14.103
-35.818
39.7167
-35.8132
-0.160294
-35.4695
-14.3364
-33.0177
37.1515
0.354194
62.8752
0.623897
-36.6741
-34.3476
-83.8514
-79.0624
-31.9169
-68.5091
-22.8979
-37.7874
60.1603
10.692
11.9215
50.6793
25.2696
-34.3667
9.51973
-36.6045
49.4827
0.862765
12.2262
0.0177809
1.01724
0.252936
0.729944
61.4035
0.766759
0.567212
17.3442
0.917619
0.827004
12.3693
-4.3142
0.906459
-4.73459
0.950245
8.44844
30.2096
-36.6513
1.71095
2.99949
-2.98632
1.17369
-41.4644
-43.4829
-15.7545
1.96152
42.286
15.1183
-0.542301
-3.75444
6.95616
5.4195
0.887972
13.1957
13.0797
-40.3289
1.04715
17.7347
-1.12342
4.30444
12.8686
0.319781
9.4433
13.3844
13.0049
-10.0752
12.5903
12.1543
52.8268
28.9806
12.834
26.2688
12.3908
0.463905
12.8815
0.979967
-1.05911
1.48745
6.83909
0.0224137
22.9983
12.3881
-13.2119
27.6695
0.266615
11.0142
31.4069
-9.80471
35.3926
-19.7769
-39.8257
-51.5171
1.68437
-0.103242
-16.187
35.6949
-4.8116
-0.289863
10.0791
2.39774
0.218146
-0.028166
10.6933
14.4241
31.194
9.18003
2.89313
13.0541
12.5355
0.0827909
-27.7515
37.4801
-0.0485925
9.51332
-7.10148
42.1342
14.0299
12.0221
-7.23138
-40.897
-78.6799
13.3307
13.213
-4.59249
-8.92632
-5.34931
-24.6906
34.8081
1.25061
1.70207
0.234319
-0.166835
19.1744
-13.0445
0.0661249
0.458086
33.7591
0.55687
-2.81686
25.794
-28.4463
-20.1202
0.658935
-7.2515
15.2428
-0.0125412
0.640823
14.0987
10.9186
-5.93933
23.181
6.15012
-48.5634
0.598937
0.797681
-38.4852
-6.95852
15.1419
0.559615
9.08343
13.6082
64.1406
0.634071
-6.2619
-35.4487
-29.3
-70.8207
-48.877
0.645069
18.5096
50.1986
-0.0408577
13.2868
13.1033
-37.6156
14.5917
7.48486
-27.2189
13.7835
21.5787
-12.478
10.2388
-34.9435
-63.1724
16.502
20.8601
-48.5287
16.6846
12.5011
4.17492
15.3739
13.944
2.73059
-26.8049
-3.43051
14.577
15.7527
15.1681
14.3192
8.49964
0.0541439
40.9677
-0.047917
-3.1657
1.64795
38.908
14.0262
-8.78735
6.04591
60.052
-17.4145
-22.2134
-43.9859
4.47893
-2.6653
-39.7674
-13.8266
16.2089
-11.1806
-1.50253
-0.00452368
-5.19589
13.3285
10.7308
8.05455
0.13779
0.225719
-14.757
-1.80725
-8.51497
1.20048
1.42268
0.223631
1.16294
-2.75338
14.4091
-32.0448
14.7672
1.09508
1.27295
13.5316
12.7692
13.5324
1.445
1.45396
-4.74314
5.43111
1.13795
1.76532
-34.254
3.0685
-6.55034
-48.7602
-35.8437
-42.7793
16.1505
-63.2439
18.7698
-34.8026
1.19515
-38.0254
0.753925
3.63223
2.48677
-1.99705
1.0968
3.86967
-0.0653573
15.0252
3.46905
16.2796
-2.39542
-6.746
-78.6847
-36.3486
25.7611
33.7561
-43.306
-28.0117
-29.1765
-69.1124
-36.5006
-4.70608
-37.2775
1.56181
1.50186
-57.1193
-75.0666
-7.61957
1.37068
14.0376
53.3808
-2.51013
-75.6367
2.89476
6.25923
0.355755
1.18858
-29.9469
2.20268
1.39685
1.38625
3.38953
8.6518
1.74802
0.902991
-65.1931
-68.2726
-30.8455
26.6288
-34.8275
13.7615
0.747023
15.6183
8.25265
5.3697
24.8976
13.2331
26.6989
0.663089
5.29652
6.81807
1.42171
3.78754
-7.20765
10.1411
14.7952
10.0163
43.5065
2.00535
23.3108
-48.6586
-1.85192
-39.6074
39.4666
11.9769
10.815
7.2712
-20.7015
-7.17808
11.9874
-35.7632
9.0531
6.61731
-1.88877
17.4658
10.9957
-2.81936
-10.6164
-22.1955
14.4083
-1.16396
-43.1167
1.53993
-35.8271
-35.459
14.2814
-76.0936
-2.55159
34.9621
-3.07531
14.227
13.1792
17.756
-2.84182
13.6527
-37.2242
-7.62457
-36.2522
-3.39384
-7.72769
21.2776
-37.1238
-13.7647
1.73087
2.06322
19.9959
-37.7288
11.7387
2.51111
-37.4276
0.665609
0.733179
13.0032
-82.431
-2.49018
3.02707
1.1492
0.372606
12.6764
11.5071
2.32751
12.7176
-11.1372
12.8186
-85.1708
12.9092
-52.2583
-23.9014
-4.2962
10.3407
-4.03022
-3.42601
12.3207
-1.95922
1.37724
-4.56865
56.0062
0.391236
37.8709
-3.71759
0.236941
-2.04908
-0.0169093
14.0409
12.4999
13.7275
-3.269
0.534056
13.1474
-3.87761
0.10842
0.474043
-16.9213
3.25548
0.0635025
14.0069
-39.9583
-51.9559
-0.0406412
-1.55536
0.600751
-30.9902
0.364927
0.359403
1.24723
0.437365
1.22121
1.18774
0.0666608
0.638214
12.9823
-34.6258
-30.0496
14.0761
50.2126
17.6156
13.6604
-0.0364101
14.362
43.4851
-0.0471569
39.3765
1.81979
-0.347763
6.64476
31.7366
0.91621
-0.0375336
56.3662
14.5078
28.0409
-5.14284
-9.35649
0.101955
-1.68024
-0.0732663
0.97992
3.66733
0.781498
53.3322
0.904427
0.582403
0.66923
13.4755
-28.2486
-14.3047
-1.78346
2.22309
1.55883
0.548132
15.1918
-21.2445
26.8186
19.5893
1.17143
0.529367
45.806
-10.0511
44.2414
32.5569
12.5586
13.8396
0.346882
-4.10921
3.15003
-8.40996
-8.10616
14.065
-78.6135
1.31094
1.26267
1.17099
12.2766
1.20423
52.0277
-1.7537
48.456
1.14363
-67.9855
-8.08822
-9.59334
1.00359
-38.46
1.43029
33.2715
13.7346
35.2689
1.19732
-12.5158
5.22375
-38.6205
29.4709
13.2843
13.2838
0.931364
-18.1949
13.111
-85.5208
-16.0168
13.3999
36.8616
13.2274
-16.3234
46.4568
6.04384
-2.47507
45.5789
36.1633
3.02693
4.49765
-65.3016
44.9696
10.938
43.3669
-2.28817
-57.8438
30.0731
0.0386328
-0.0198153
0.112799
0.0982352
1.75407
15.5087
-38.9313
1.2744
-23.9881
18.012
41.4147
-10.3568
38.515
-0.0313506
0.00906025
-8.26856
59.2372
-11.9267
51.1991
17.0214
5.78604
26.9546
7.17253
19.5396
-0.0237689
-0.196925
-0.0771768
-0.0339074
9.97159
-9.61942
14.9988
-28.1319
0.814548
-31.8095
13.7446
-15.8218
48.8247
1.88349
1.17765
0.126603
42.8242
0.156388
24.1223
0.017
10.2394
-4.69906
2.05622
35.0695
39.1293
-9.0682
0.249824
1.40972
-39.0742
-56.0037
-6.43524
55.1698
30.952
57.7428
60.3284
48.1432
-47.0887
0.802813
48.0932
-40.9298
0.00640433
6.44125
0.123424
-19.4216
-23.2756
-0.207048
3.02029
-4.17571
-0.0879972
12.7862
-34.6087
43.4587
-37.2496
12.7752
0.665966
11.8321
3.63019
-2.78431
-82.6009
2.52529
-24.5062
-11.6709
13.0768
-75.0681
-78.7825
13.0274
-6.49762
-8.64603
20.4769
12.9813
-8.84084
27.7048
-66.4966
-22.5767
-32.3855
41.0795
-32.9534
6.41676
27.3159
6.40085
-42.3704
-42.4115
5.04645
0.997095
53.1463
0.89117
-29.9971
-0.0243932
-10.8488
-51.3732
-9.47359
-36.0709
1.44451
-36.8624
0.258303
-36.0318
13.4825
-16.394
53.6346
-36.5502
23.939
-22.6615
-37.1629
-13.4283
-34.6936
36.0959
33.8782
-29.0238
12.6607
22.6992
17.8086
7.35991
14.7744
-3.93127
-40.5846
-104.599
-57.4666
20.06
23.7659
-29.8295
26.8608
-35.1537
-8.92639
8.30828
4.64699
-38.6642
14.0663
-38.4304
16.2031
34.2965
35.8059
64.1931
33.6234
-19.3257
-47.5581
48.8418
14.0538
39.3208
-37.634
-37.1547
52.9361
31.7248
-1.87705
23.5164
21.2103
-34.8541
-38.4927
-79.2373
21.8786
11.1912
39.2325
-44.6112
48.3686
31.8338
14.3577
40.4724
-51.1527
6.39724
4.26408
14.5022
-7.05642
-40.0061
-41.6083
47.6609
-0.245305
-35.5544
-67.143
46.5509
48.3305
43.6352
-50.1384
-81.9466
47.4988
-16.7791
-46.5167
48.4154
0.754308
-6.05058
13.737
1.13951
2.13597
-4.52078
45.8851
-25.5859
0.526976
2.28189
2.13847
2.63156
1.51156
10.3888
-25.2338
-2.33664
1.78951
-44.0759
-62.0799
-38.0918
-12.4578
1.71758
-11.4859
-35.549
-25.4319
1.92574
-39.2882
2.70621
-37.7359
-35.5998
45.5052
22.2204
28.4092
0.0907902
9.70367
-58.1243
-17.8893
-6.13353
-54.107
-0.0105937
-47.9908
-31.7513
-17.8327
-32.6652
0.0417843
17.5882
13.5908
16.6668
12.6897
44.7845
0.0914578
-0.0634499
0.0904828
16.4582
-16.9894
-62.9685
-44.7203
17.008
40.5523
25.7594
32.7627
4.40797
-65.2834
-3.0919
15.6902
7.11007
0.706301
21.0699
10.8151
-7.98898
16.7086
-7.20286
-6.42599
-0.173629
18.1699
38.5551
-22.9619
57.4379
-56.9106
21.4018
-83.7921
-57.7997
-6.84918
14.0532
38.9534
-4.07577
-39.0649
3.905
16.5378
-17.5753
-41.0986
20.1068
49.4589
64.1955
-57.2386
-7.73823
-48.0809
16.2889
2.73068
-8.2937
12.2216
8.86393
-14.9296
5.26522
11.6735
-31.6222
-4.98822
-39.2485
-4.15288
-50.3755
0.070605
13.6621
-82.0125
-11.3109
-0.051693
64.065
12.1943
50.8978
8.69541
-31.5537
19.1557
6.116
37.0202
58.4698
17.4423
37.4613
-0.145573
-43.0771
14.1471
13.9642
2.57116
11.4328
-27.4399
0.668574
-4.52121
14.272
5.47567
-15.1157
6.75886
11.3391
-3.46135
-6.14712
-24.7584
-0.0144868
14.9182
0.0246148
15.8992
0.231144
-9.46679
13.8915
-15.7514
13.3997
-39.0495
-0.0766217
35.2223
-7.47185
39.2541
0.177009
5.47651
-0.0692283
0.0109463
-4.56999
6.33381
18.2919
37.7541
30.042
-57.4484
-43.7982
47.2394
27.9573
22.954
9.40066
0.0466831
0.145872
-61.381
48.269
22.5714
18.3
0.295628
20.5206
0.126754
0.101003
-14.0181
-19.1084
-28.3449
-42.9723
11.4167
1.64358
-11.0598
13.9432
43.0189
12.4765
-8.60863
12.6618
-4.35784
-64.6207
-13.0543
0.212623
7.58736
-3.68496
-3.36493
-39.0243
13.8377
-40.0487
26.8323
-62.0659
-23.7714
-19.88
0.268219
23.8629
6.97794
14.2495
36.672
14.251
-5.58304
12.1292
13.1848
12.036
14.1535
-30.694
17.0819
11.7551
45.4997
13.882
-15.3743
14.3664
14.2723
-36.7074
-63.5954
-20.6423
-38.2874
-35.2633
12.646
60.1575
-41.5781
-6.78152
15.8784
22.9754
-35.5732
0.669987
0.547022
12.0711
-16.4814
-41.2205
-37.6172
35.9296
3.51665
1.05129
7.95854
-45.6854
30.1888
11.2725
-45.5251
-49.1469
-42.084
64.4495
15.6016
11.7504
6.97245
15.7501
-60.3671
19.0569
12.6226
20.9896
-9.68412
18.4772
25.728
47.733
39.1859
12.058
-11.3058
24.7181
-4.55507
0.600802
0.443599
32.3929
-22.9208
-14.1692
0.423518
58.7193
0.446606
-45.2386
31.5888
26.6127
42.4741
-39.7165
-27.7937
-37.1092
35.2366
-7.26096
-23.2869
-10.4143
12.5374
2.30964
15.8287
1.21097
21.2943
1.08634
12.8235
1.21973
-6.58705
0.323589
38.5562
6.58092
5.7774
-19.1051
8.44362
1.25624
9.41089
-1.57549
-35.3943
-40.4062
-14.7099
6.42516
39.4422
0.985165
61.8778
-47.8533
61.4808
56.6474
0.965126
4.26729
5.47394
0.959792
0.975068
-76.7793
15.0794
-37.5045
-22.3106
6.20911
1.52345
-35.178
6.57547
6.39738
12.2154
8.45653
1.03885
-50.1481
-1.10083
1.42737
-1.76186
1.47447
1.00883
1.46893
1.34053
-0.742952
6.4243
-45.4856
0.838213
1.70038
-8.32323
-3.48615
23.8278
-15.7949
13.4797
13.3962
-0.0995249
0.275054
-6.01923
-10.9795
7.99834
0.241744
2.13286
9.27808
0.0774566
59.0438
0.177627
2.50911
0.0428468
-0.0283481
-21.2187
-0.0389492
-39.2037
0.208868
53.421
4.7157
-0.0330614
-9.53331
-4.91053
0.66545
-33.1188
1.95519
0.0801888
7.60227
-38.6557
0.0757697
6.15686
28.3539
43.0343
-5.04666
9.65233
10.6822
-36.4767
-17.8654
0.0563377
50.3542
-49.7168
-15.7666
-5.75038
52.6719
-7.24018
-5.25878
33.0602
-55.4233
2.92239
0.0651483
0.0686913
0.237829
0.000168484
-0.0320801
-44.1479
18.652
-0.109958
-45.4554
4.49004
0.316832
-4.82478
3.11681
18.3319
-39.1824
7.21638
17.2006
-19.4996
1.7438
15.6884
62.2359
16.3538
-58.7593
43.5118
19.1498
32.5094
0.261865
48.6339
0.463983
10.4339
25.0586
0.0201694
-36.6443
-37.8608
0.732331
0.623994
-123.276
23.5097
-39.6459
1.5582
-3.86033
0.91325
14.4509
26.7799
52.948
14.4702
56.3439
14.4624
-72.104
-39.3704
-39.6452
-39.2232