/*--------------------------------*- C++ -*----------------------------------*\
| =========                 |                                                 |
| \\      /  F ield         | OpenFOAM: The Open Source CFD Toolbox           |
|  \\    /   O peration     | Version:  2506                                  |
|   \\  /    A nd           | Website:  www.openfoam.com                      |
|    \\/     M anipulation  |                                                 |
\*---------------------------------------------------------------------------*/
FoamFile
{
    version     2.0;
    format      ascii;
    arch        "LSB;label=32;scalar=64";
    class       surfaceScalarField;
    location    "0.0321319";
    object      phi;
}
// * * * * * * * * * * * * * * * * * * * * * * * * * * * * * * * * * * * * * //

dimensions      [0 3 -1 0 0 0 0];

oriented        oriented;

internalField   nonuniform List<scalar> 
92401
(
0.147399
-0.0955164
-0.00692179
-0.0449612
-0.0622619
0.0600145
0.0371336
-0.0348862
0.0225411
-0.0397947
0.0429736
-0.0257201
0.00639462
-0.0125339
0.0124099
-0.00627061
0.00141564
-0.000450192
-0.00576673
0.00480128
0.0195762
0.00969196
-0.0255716
-0.00369658
0.00547083
-0.00449959
0.000444409
0.032449
-0.0257915
0.0129187
0.0482275
-0.0386828
0.0323343
-0.041879
0.000535288
-0.00112651
-0.000192569
0.000783787
0.0046915
-0.0418767
0.0373926
0.0248409
0.0239901
-0.0862236
-0.0167587
0.0107644
-7.04269e-05
0.00606465
-0.034307
-0.0402998
-0.0170735
-0.0163687
0.056862
-0.0234199
0.00167958
-0.0650705
0.0633909
-0.00207397
-0.00765636
0.00193189
0.00339046
0.00233401
-0.000929524
0.00144369
0.000294756
-0.000808921
-0.00472262
0.0103022
3.69866e-05
-0.00561654
0.0160255
-0.00568501
-0.0046185
-0.00572197
-0.0403267
0.00806335
0.0368376
-0.00457426
-0.0391498
0.0107263
-0.0551238
-0.0542752
-0.00318051
0.0555983
0.00185741
0.0905399
-0.0893454
0.0230635
-0.024258
0.0499463
0.0600875
-0.0713491
-0.0386846
-0.0324309
0.0513088
-0.0580278
-0.00256322
-0.00105065
0.00387227
-0.0002584
0.031753
-0.0637537
-0.000430105
0.0612067
-0.0611623
-0.0321192
0.0320748
0.0126293
-0.0172816
0.00121368
0.0034387
-0.0363248
0.106579
0.0607431
-0.130997
-0.084646
0.107878
0.00860813
-0.0318397
-0.130943
0.0317542
0.0298334
0.0693559
0.0152943
-0.0617113
0.0367724
0.00964454
0.0605455
0.00953504
-0.0547862
-0.0440043
0.0104318
0.00198858
0.0315839
-0.0503954
-0.0411849
0.0654302
0.0261501
-0.0334427
0.0403073
-0.0139379
0.00707329
-0.0196449
-0.1019
0.0647069
0.0568376
-0.0865702
0.0864369
0.000133362
0.0318111
-0.00168827
-0.0747649
0.0446421
0.000403591
0.026002
-0.0272253
0.000819757
0.0269432
-0.0504089
0.0234658
0.000116515
-8.64076e-05
-1.85331e-05
-1.15748e-05
6.2571e-05
-0.0589636
0.058901
-0.0686547
0.0426553
0.0627758
-0.0367764
0.0900088
-0.0255438
-0.0125241
-0.051941
-0.000154481
0.0700134
0.000233303
-0.0700923
-0.0474548
0.0729819
0.0393031
-0.0648303
0.000520376
0.00102249
-0.000364534
-0.00117833
-0.0022592
-0.00360526
0.000423137
0.00544132
-0.0383116
0.0839816
-0.046111
0.000441042
0.000324313
-0.000776843
-0.00068607
0.0011386
-0.0548381
0.054372
0.000466165
0.0748183
-0.00764415
-0.0188633
-0.0483108
-0.0974714
0.0898556
0.00559381
0.00202192
-0.0554683
0.0274331
0.0114157
0.0166194
-0.00217105
-0.0158509
0.00689563
0.0111263
-0.0124246
0.0258814
0.0375384
-0.0509952
0.000903726
-0.000259501
-0.000319911
9.73284e-05
1.46989e-05
0.000710638
-0.000822665
0.00117888
0.000214573
-0.000818392
-0.000575063
0.00408393
-0.00913751
0.00519335
-0.00013976
0.0679205
0.0050587
-0.0172158
-0.0557634
-0.0149906
-0.00453819
0.0101517
0.00937707
-0.0408569
-0.0531666
-0.0550499
0.149073
0.00357479
-0.0336954
-0.00386017
0.0339808
-0.000434355
0.000542141
0.000709021
-0.000816807
0.00477061
0.00421159
-0.0283558
0.0193736
0.0186612
-0.00688128
-0.00950181
-0.00227814
0.0417965
-0.0762242
-0.0275258
0.0619535
-0.0282372
-0.00338624
0.0102446
0.0213788
0.0119333
0.00803596
0.012923
-0.0328922
-0.000896017
-0.000408862
-5.38437e-05
0.00135872
0.0251459
-0.00968567
0.0366024
-0.00123857
0.000852204
-0.00148557
0.00187193
0.0444102
-0.0330364
-0.0683845
0.0570107
0.000629154
-0.000287746
-0.000341408
-0.00107087
-6.27487e-05
0.000563126
0.000570496
0.000938392
-0.00041824
0.000957933
-0.00147809
0.0222913
-0.0218677
-0.0627402
0.0623166
0.00118372
-0.0127522
0.00264815
0.00892032
0.0432679
0.0578019
0.0188489
-0.119919
-0.116397
0.025804
0.129218
-0.0386249
-0.00514127
-0.0438879
0.00394284
0.0450864
0.0529358
-0.028538
0.0252713
-0.0496691
0.024907
-0.00416111
-0.150783
0.130037
0.00631517
0.0172564
-0.0264687
0.0028971
0.000696278
-0.000246746
-0.00068793
0.000238399
0.037888
0.0127719
-0.00191614
-0.0487438
-0.00186908
0.0834151
-0.085213
0.00366695
-0.0181566
0.0499818
-0.116342
0.0845168
0.0418468
0.00535072
-0.0523388
0.0420201
-0.000173284
-0.00237339
-0.0289892
0.041324
-0.00996142
0.0710316
0.0167014
-0.0313445
-0.0563885
0.128196
-0.141707
-0.028193
0.0417036
-0.0147076
-0.0453927
0.0577269
-0.0811584
-0.000721064
0.0818795
0.0013627
-0.0982843
0.164491
-0.0675696
-0.00239184
0.00330832
-0.000551908
-0.000364566
0.0885193
-0.147611
0.0308914
0.0282003
0.00155433
-0.000302816
0.000817594
-0.00206911
-0.0856465
0.143061
-0.10407
0.0466552
0.0292181
0.00326027
-0.0397674
0.00728903
0.0871453
-0.016377
-0.0797707
0.00900248
0.00593033
0.031121
-0.0517589
0.0311625
0.028335
-0.133378
0.0738802
0.0853379
0.113022
-0.0789083
-0.119451
0.000222068
0.000820261
-0.0028363
0.00179397
-0.0947695
-0.0292602
0.111884
0.0121454
0.00147182
-0.00586469
0.0151657
-0.0107728
-0.0139415
-0.0334446
0.057498
-0.0101119
-0.00535757
0.0166218
-0.0141002
0.00283591
0.000318048
-0.000657873
-0.000512482
0.000852307
0.0211854
-0.0254292
-0.00111373
-0.0017637
-0.000730445
0.00145223
0.00104192
-0.0571229
0.0597234
-0.00260048
-0.00242319
-0.00615017
-0.00200779
0.0105811
-0.0360303
0.0277962
-0.00570744
0.0184453
-0.047314
-0.0557773
-0.0510435
0.0414089
0.0982089
-0.0885742
-0.00744841
-0.00168254
0.00497269
0.00415827
0.0469394
0.0116001
0.00189584
-0.0604353
0.000339975
-0.00906449
0.00666168
0.00206284
-0.0390377
-0.0533131
0.0116493
0.0807014
0.0646844
-0.038863
0.0266063
-0.0524278
-0.00931554
0.059566
-0.0588926
0.00864206
-0.0592361
-0.0340456
0.00821042
0.0850713
0.0166854
0.00513397
-0.0334425
0.0116231
0.0595764
-0.0590887
-0.000487682
0.00187358
0.0018451
-0.00122599
-0.00249269
0.0412522
-0.0436892
0.00243705
-0.0519256
-0.0387858
0.10613
-0.0154183
0.00085097
-0.00968646
0.00945822
-0.000622735
0.00303084
0.0059497
0.00252977
-0.0115103
0.00179316
0.00613452
-0.0075877
-0.0250156
-0.0573562
-0.00929323
0.091665
0.0255568
-0.00730043
0.0170254
-0.0352818
-0.084275
0.0923571
-0.101524
0.0934421
0.0774022
-0.0514964
-0.0259059
0.00137026
-0.0343825
-0.0100466
0.0430589
0.00807227
-0.00550967
-0.00901965
0.00645705
0.0461043
-0.069697
-0.0614531
0.0850458
0.0741583
-0.0647213
0.0292415
-0.0386785
-0.0132508
-0.00840403
0.0316077
-0.00995294
-0.0584403
-0.087236
0.0565917
0.0890847
-0.0414809
0.0538395
-0.0109883
0.0978268
-0.0485174
-0.0493094
-0.00415166
0.0146857
-0.00246178
0.000948818
0.000649396
-0.000699922
-0.000898292
0.0475391
-0.0160085
-0.00526741
-0.0262633
0.00353925
-0.00178837
-0.000502652
-0.00124823
0.00552413
-0.00997012
0.00856558
-0.00411958
0.0728159
-0.0422006
0.0256063
-0.0562215
0.00851941
-0.000313489
-0.00681242
-0.00139349
0.00161913
-0.000570613
-0.00104852
-0.0639139
0.0643462
-0.000432379
0.0121421
0.00572246
-0.0963187
0.0784542
-0.011123
0.0140393
-0.0101712
0.00725485
-0.0724694
0.0166901
0.0827928
-0.0270135
0.0184078
-0.0975231
0.075609
0.00350636
-0.0525003
0.0425363
-0.00809145
0.0180554
0.0085602
-0.00177265
-0.00286592
-0.00392163
8.40591e-05
-0.000956465
0.000872406
0.027373
0.170459
-0.243352
0.0455207
0.000296811
-0.000254436
-0.0250064
0.0604837
-0.0526989
0.0172216
-8.36817e-05
0.005133
-0.00423985
-0.000809468
0.000679745
0.00181331
-0.00291129
-0.0717145
0.000324073
0.0713905
-0.0325722
0.114173
-0.0478984
-0.033702
0.000309186
0.000768703
0.00940747
-0.0104854
-5.59915e-05
0.0899774
-0.0899215
0.00233646
-0.00163386
-0.00113837
0.00043577
0.00128431
0.000617296
-0.000622123
-0.00127949
-0.0365685
-0.00145085
0.032339
0.0192612
-0.0640247
-0.0719792
-0.0164972
0.00601875
0.0824576
-0.00058993
0.00187424
-0.0992534
-0.0418423
0.112483
0.0286125
0.0275235
0.168902
-0.0845231
-0.0574092
-0.0269696
-0.0176343
0.118594
-0.0435907
-0.0573694
0.0404344
0.0302017
0.0377371
-0.108373
0.105007
-0.247731
0.108527
0.0341975
0.00154553
-0.00134588
-0.00142667
0.00122702
-0.0120401
-0.0357964
0.0559469
-0.00811038
0.0252826
0.0404978
-0.0257236
-0.0400568
-0.035314
-0.0259965
-0.0197079
0.0810184
-0.0540409
-0.0133412
0.0553419
0.00072138
-0.011988
0.00827
0.0029966
0.0554227
-0.0284939
-0.0508689
0.0239401
-0.0885968
0.104458
-0.0500481
0.0341871
0.0159324
-0.0229079
0.00712556
-0.000149995
0.0518255
-0.0601416
0.0637388
-0.0566466
-0.00370717
-0.0143113
0.074665
-0.00536662
-0.0125336
0.0021238
0.0157764
-0.000198859
0.0576203
-0.0572024
-0.000219036
0.136429
-0.053677
-0.00332067
-0.0794312
0.0593956
-0.00780149
-0.0484418
-0.0031523
0.0526649
-0.0208374
-0.0750559
0.0432284
-0.00959267
-0.00201363
0.0147271
-0.00312076
0.00526229
-0.00163811
-0.00478128
0.0011571
0.00216763
-0.0431007
0.0396732
0.00125991
-0.000935816
-0.0863996
0.00359614
0.0193095
-0.0129698
-0.0632601
0.0473677
0.0158924
-0.0596315
-0.0169405
0.0107833
0.0657887
-0.0983278
-0.00205813
0.103113
-0.00272741
0.00380233
0.0232232
-0.0126065
-0.0144191
-0.0705846
0.150011
-0.0662439
-0.013182
-0.00507961
0.014079
0.0224377
-0.0314371
-0.0508724
0.0972965
0.0381147
-0.0845388
0.0278435
0.00223905
-0.0147576
-0.015325
-0.0359364
0.0370016
0.00110241
-0.00375377
0.00677594
-0.0092391
0.00621693
-0.000408673
-0.00422553
0.0101583
0.0362173
0.0383426
-0.0745599
0.00111179
-0.00184863
5.86332e-05
0.000678208
0.0190614
0.00833664
-0.0184493
-0.00894879
0.0218943
0.00991499
-0.00251458
-0.0292948
-0.0510064
-0.000812996
0.00615625
0.0456631
0.000284983
-0.0433857
-0.000916413
0.000583767
0.00144443
-0.0522331
0.0374874
0.0518297
-0.037084
-0.0441433
0.0296662
0.018568
-0.004091
0.00131909
-0.00317209
-0.00968407
0.0115371
-0.00867652
-0.00496392
-0.00356897
0.0172094
-0.0429597
-0.00463867
0.011662
0.0717954
0.0394601
-0.0717614
-0.039494
-0.0440196
-0.000361489
0.044381
0.0863874
-0.0486148
0.0593277
0.00360736
-0.00778619
-0.03803
0.0422088
0.0357696
0.0112019
-0.00576944
-0.0412021
-0.000481726
0.000285946
0.000991069
-0.000795289
-0.016878
-0.0446274
0.0615055
-0.000292761
-0.00125984
-0.00454791
0.0316294
-0.0234742
0.00607639
0.0281002
-0.0419627
0.0978029
-0.0909061
-0.00200532
-0.0048914
-0.0211035
0.100706
-0.0187785
-0.0608235
-0.0318876
0.00684673
0.0152516
0.00978927
-0.0392246
0.035694
0.0143718
-0.0108412
0.0324065
-0.0251255
0.0013898
-0.0086708
0.0183054
0.0720918
-0.120607
0.0302096
0.0759178
-0.0747186
-0.0241805
0.0229812
-0.142798
0.00264682
0.00290816
0.137243
0.0301399
0.0126171
-0.041081
-0.00167601
0.0401472
-0.0578781
0.0201164
-0.00238553
0.00207585
-0.00123937
0.000233575
-0.00107006
-0.0148701
-0.00146814
0.0733944
-0.0416305
0.018847
-0.0506109
-0.0114892
0.0474646
0.000676891
-0.0366523
0.00577733
0.0955872
-0.0931494
-0.00821514
0.0499945
-0.0988765
0.0582096
-0.00932762
-0.0488824
-0.000393348
0.0377866
0.0153926
-0.00405581
0.00874439
-0.0200811
-0.0234403
0.0478564
-0.0133512
-0.011065
-0.0488175
-6.49536e-05
-0.00523207
-0.122688
0.175888
-0.0479674
0.0100612
0.00927303
-0.0627656
0.0434314
0.0501814
0.00531386
-0.0454341
-0.0124815
0.00667872
-0.00356209
0.00936487
-0.055698
0.000204844
0.0554931
0.109833
0.0438158
-0.135512
-0.018137
-0.00900512
0.000421592
-0.00389797
0.0187023
-0.115177
-0.0226295
0.119105
0.0126207
0.065863
-0.0692106
0.00298319
-0.0551266
-0.0106222
0.000450632
0.00183741
-0.0025808
0.0019447
-0.00183289
0.000338818
-0.0508812
0.0253754
0.0744612
-0.0489554
-0.00193459
0.000969766
0.000902075
-0.0345855
-0.00772494
0.0452937
0.00021075
-0.000307927
0.00033098
-0.000899525
9.32173e-05
0.000475328
4.73619e-05
0.00210809
-0.0017033
0.00134984
8.12126e-05
0.000272247
0.000489547
-0.000309286
0.000723464
0.105322
0.120636
-0.0785586
0.000118876
-0.000839628
0.0012103
-0.0528722
0.0530809
-0.000208669
-0.0110868
0.0757288
-0.0708341
0.006192
0.0018178
-0.0191817
0.00503299
0.0123309
-0.0604088
-0.00355017
-0.017058
0.00404788
0.0475824
-0.0345722
-0.0646157
-0.00120831
0.065824
-0.00620883
-0.0163829
-0.0125341
0.0351259
0.000265571
-0.000347163
-0.000465863
0.000547455
-0.00406442
-0.00735514
0.00890473
0.00251484
0.0549792
0.0439148
-0.0175109
0.0475141
0.0888027
-0.0379672
-0.0983496
-0.0123958
-0.0444569
-0.0208862
0.0203441
-0.0561384
0.0566805
-0.0103508
0.029063
-0.00717376
-0.0115384
-0.0152297
-0.0133906
0.0138811
0.0147392
0.097089
-0.0959148
0.018409
-0.0195833
0.00104702
-0.00430281
-0.000277489
0.00353328
0.000711235
-0.065319
0.0646078
-0.0731435
0.00372575
0.0669387
0.00247906
0.0394936
0.037995
-0.0774885
0.018975
-0.0603392
0.0289683
0.00223329
-0.00133024
0.000753398
-0.00165645
0.0001018
-0.000464749
0.00163266
-0.00126971
-6.22046e-05
0.000397557
-0.000939899
0.000604547
0.0632929
0.0558326
-0.0389425
-0.080183
0.00543755
-0.086323
0.0822833
-0.00139782
-0.0135185
0.000211147
0.0265208
-0.0132134
0.0526134
-0.0521926
0.019364
-0.0197848
-0.00048142
0.00128555
-0.000640048
-0.000164077
0.0203474
0.0479516
-0.0493239
-0.0472788
-0.00175
0.00086409
0.00156229
-0.000676383
0.000505079
0.0795142
-0.0800193
-0.0499651
-0.015375
-0.0224779
0.0878181
-0.0502505
0.000285386
0.0116875
0.0169984
0.0165624
-0.0452484
0.000481203
-0.00279953
0.00022236
0.00209597
-0.00166382
-0.000702641
0.000616469
-0.107146
-0.008578
-0.043865
0.159589
-0.0106765
0.00726836
0.137961
-0.134553
-0.0381537
0.0424318
-0.0647596
0.0604816
-0.0785923
0.0779126
0.000679614
0.00159815
-0.0505369
-0.0302894
0.06545
0.0190707
-0.00531274
-0.0792079
0.0502398
0.0935674
-0.155593
0.0117858
0.0420729
0.0156739
0.0328912
-0.090638
0.104351
-0.107946
0.0430883
-0.00338577
0.0128611
-0.011633
0.00215773
-0.00213533
0.000195294
-0.000771269
0.0027113
-0.00274074
-0.00550337
0.00153599
0.00670812
0.0606424
-0.00594001
-0.0183539
-0.0363485
-0.0567132
0.0282801
0.0284332
-0.0924658
-0.00782485
0.0123472
0.000340591
-0.000412946
-0.00206297
-0.117137
0.0251211
0.00529483
0.0867206
0.00089456
-0.0536713
-0.00981509
0.0625918
0.045413
0.0286345
-0.101311
0.0272629
0.0380457
-0.0440954
-0.0188042
0.0248539
0.0477879
-0.0601367
0.0503945
0.0305579
-0.056006
0.0498248
-0.0243767
0.0343019
-0.0357968
0.000603179
0.000891728
0.0164658
-0.142296
0.0909962
0.034834
0.00115765
-0.0610972
-0.00340717
0.0525407
0.000461997
-0.108471
-0.0337326
-0.00920211
0.00673537
0.0361993
-0.048543
0.0445326
0.0503349
-0.0463245
-0.0423911
0.0821998
-0.0398087
0.0108531
-0.102754
0.0478054
-0.0167815
0.00762803
0.0243385
-0.0151851
-0.0884369
0.0932005
0.0368836
-0.0416472
0.0583008
0.0332097
-0.0824257
-0.00908478
-0.0477912
0.142272
0.00462461
-0.099105
-0.000464344
0.00309051
0.00347033
-0.0060965
0.0543189
-0.0727954
0.0831693
-0.0646928
0.00878217
-0.0401319
-0.0085442
0.0398939
-0.0435835
0.0317049
0.102797
-0.0909182
-0.0500864
-0.0266095
0.0534851
0.0232108
-0.0101793
-0.000499246
0.00647015
0.00420842
-0.00969563
0.0211255
-0.0178358
0.00640592
6.18052e-05
0.0737175
-0.0737793
0.0149283
-0.0442422
-0.0192291
0.0485349
-0.0339734
-0.0013511
-0.0132104
0.00156345
-0.0250763
-0.0203634
0.0438763
0.0348812
-0.0348361
-4.51123e-05
0.0617167
-0.0416263
0.0636799
-0.0837704
-0.0996127
0.0972648
0.0994369
0.000123963
-0.0107423
-0.00181225
0.0124306
0.0498095
-8.09758e-05
-8.67472e-05
7.84502e-05
8.92729e-05
-0.000193824
0.0469458
-0.108839
0.0620875
-0.00860375
-0.000472372
0.00494517
0.00413095
0.0268521
0.00999751
-0.0368496
0.00118727
-0.00104632
-0.0087447
-0.0319268
-0.0332055
0.0132067
0.0571834
0.00071821
-0.0579016
0.0728522
-0.0440963
-0.0511978
0.0224418
0.00182244
-0.0246997
-0.0211271
0.0694856
0.0429626
-0.039596
-0.00796853
0.00927977
0.134617
-0.119672
0.0356914
-0.0506366
-0.0450715
0.0367774
0.0218916
-0.0135975
-0.0528504
0.0521969
0.000653523
-0.0478645
0.0297362
0.0104737
-0.0466938
-0.0105403
0.0467604
-0.00255084
0.159551
-0.158752
0.00175175
0.107805
0.0159626
-0.0158896
0.0508705
0.00858034
-0.0513525
-0.00809836
-0.014383
0.00453698
0.0105791
-0.000733077
-0.00954741
-0.00527494
0.00477223
0.0100501
0.0664748
-0.037933
-0.053069
0.0245272
0.0297952
-0.0157905
0.0237098
-0.0377146
0.0268666
-0.0938868
0.0897635
-0.0227433
-0.00570657
0.000402617
-0.00907902
-0.0939901
0.107547
-0.0235758
0.0100193
-0.0113364
0.0478201
0.0138507
-0.0503344
-0.00437949
-8.23436e-05
0.00318495
0.00127689
0.0828443
-0.00504546
0.0516071
-0.129406
5.03866e-05
-0.000726889
2.05899e-05
0.000655913
-0.0664058
0.0580167
0.0741895
-0.0658004
0.0035888
0.00127143
-0.00224434
-0.00261589
-0.07794
0.0756431
0.00229694
0.0622299
-0.0588281
-0.00340175
0.0602752
-0.000568143
-0.0597071
-0.0116834
0.12346
-0.000715259
-0.111061
0.00987837
-0.031101
0.0329102
-0.0237808
-0.000191194
-0.056464
-0.0675426
0.0123124
0.066618
-0.0113878
-0.0131486
-0.00210541
0.000451338
-0.00067309
-0.000178094
0.000399845
0.00112718
-0.000198469
-0.000237293
-0.000691415
-0.0635927
0.00734773
-0.00118879
0.0574338
0.000486318
-0.00540087
0.00182021
0.00309434
0.0120106
-0.0145222
1.88412e-05
0.0024928
0.00809134
-0.00670786
0.0106271
0.0557858
-0.00956987
-0.0224058
-0.0238102
0.0362858
-0.00554485
-0.0365148
0.00577389
0.000395095
0.0667513
-0.000347608
-0.0667988
0.00753132
-0.0716649
0.0193931
0.0447406
-0.0427753
-0.0323492
0.0421375
0.032987
-0.0345596
0.0204367
-0.0909113
0.105034
-0.000866504
0.0150274
-0.00777117
-0.00638974
0.0491326
-0.0590555
0.0474031
-0.0374802
-0.0628754
-0.00670913
-0.00782905
0.000698647
-0.000138735
0.00421726
-0.00477717
-0.0118425
-0.00273555
0.00176693
0.0128111
-0.007931
-0.00915478
0.0106996
0.00638619
-0.000130502
-0.00214793
0.00131745
0.000960986
-0.000470815
0.000565978
-9.51632e-05
0.00124965
-0.0715078
-0.0261415
0.0963996
-0.000161898
-0.000158184
-0.00130033
0.00162041
0.000137682
-0.000500406
-0.000108091
0.00183032
-0.066446
-0.000132216
-8.31221e-05
0.000781317
0.000655676
9.02622e-05
-0.000420238
-0.0003257
-0.0281374
0.0644274
0.0768472
-0.113137
-0.00901672
-0.00221703
0.00716543
0.00406832
-0.0144111
-0.000258725
0.00565308
-0.00521407
0.00541185
0.0129607
-0.0131585
-0.000707409
0.00084452
-0.000269327
-0.0658607
0.0664061
-0.000545398
0.0303514
0.0468214
-0.0598285
-0.0173443
0.0125097
-0.0755193
-0.0218752
0.0848847
-0.0133113
0.00268797
0.0054093
-0.00450881
-0.00627055
-0.00253198
-0.0164987
0.0581656
0.0128402
-0.0545071
0.069203
0.004611
-0.0534853
-0.0203287
0.000151178
0.000430483
-0.00079419
0.00021253
-0.00033826
-0.000231467
-0.00260291
-0.00114466
-0.00123751
0.00498508
0.0653221
-0.0460089
0.0119051
-0.0312182
-0.000797482
-0.00264243
0.00144375
0.00199616
-0.0161493
0.0106206
-0.0040434
0.00957215
0.00173334
-0.101501
0.101592
-0.00182415
0.00299388
0.000691408
-0.0103494
0.0066641
0.00980316
-0.0104592
0.00166126
-0.0010052
0.00988622
0.00371031
-0.0106026
0.0372368
0.0559573
-0.027872
-0.0273042
0.0548268
0.0282165
-0.0557391
0.0277293
-0.0550335
-0.00027096
5.81451e-05
-0.0332299
0.0124662
-0.0100367
0.0792134
0.0234933
0.00728612
0.0687407
-0.0540841
0.0976519
-0.112309
0.00473766
0.0924427
-0.0971803
-0.0068007
-0.0068175
0.0131859
0.000432288
-0.0338722
-0.087516
0.0277868
0.0936014
0.0225834
0.0616528
-0.0252134
-0.0590228
-0.0234233
0.113792
-0.053132
-0.041907
0.0449196
0.0518142
-0.0560361
0.0555231
0.000512987
-0.0386355
0.0367539
0.00188158
0.0404308
-0.0794181
0.0729845
-0.0339971
0.0666526
-0.0831512
-0.00939793
-0.00814491
0.0107421
0.000904106
0.000646431
-0.000609683
-0.000940854
-0.00613825
-0.0426403
-0.0072575
0.00127161
0.00139764
-0.00251085
-0.0001584
-0.0573075
0.0516315
0.0858478
-0.0801718
0.034456
-0.0327625
-0.00169352
0.00854476
0.0218577
-0.011773
-0.0186294
0.00422896
-0.000530846
0.00220946
-0.00590757
-0.0644876
-0.000585429
0.0204324
0.0446407
-0.00282544
0.00673026
0.000324134
0.0401237
-0.109985
0.103919
-0.0340578
0.045633
0.0141239
-0.0593745
-0.000382427
-0.00358353
0.00694228
0.00155759
-0.00491634
-0.000316338
0.060812
-0.0604956
0.037018
0.00629578
0.0146656
-0.0579794
0.00420686
-0.00731552
0.00257782
-0.181983
0.0281895
0.161314
-0.00752019
0.0389483
-0.010979
-0.0279693
-0.00109796
-0.00155446
-0.00120291
0.00385532
-0.0412452
0.0447174
0.124168
-0.12764
-0.00178798
0.000654372
-0.00207288
0.00320649
0.0908063
-0.00236387
-0.0428094
0.000467422
-0.00117383
0.00204863
-0.00134223
-0.018673
-0.116092
0.0159937
0.118771
0.00395547
0.0518993
-0.00387832
-0.0519765
0.0489436
-0.0703748
0.0601304
-0.0386993
0.0317982
-0.0365054
0.0487275
-0.0440203
0.00860308
-0.0021683
0.00610208
-0.0125369
0.00111017
-0.0445248
0.0532998
-0.0536102
-0.0361949
0.09693
0.0180764
-0.0250028
-0.0900036
0.0476625
0.0179131
-0.135079
0.0695039
-0.00161116
-0.00861486
0.00630231
0.0039237
0.0280661
-0.0502834
-0.00335432
0.0290305
-0.0267558
0.00745961
-0.0057798
0.000107399
-0.00178721
-0.0867697
0.00292135
-0.00117969
0.0725532
-0.149875
0.0785018
-0.0270122
-0.0870485
0.0414075
0.0726532
-0.0720766
0.021113
0.00229191
0.0486717
-0.0433764
0.0293574
0.0103224
-0.0830639
0.0963359
-0.013272
-0.0207633
-0.00950415
0.117973
-0.0877056
-0.00348917
-0.00393342
0.0060736
0.00134899
-0.0258259
0.0592161
0.0407681
-0.0721798
0.0280835
-0.000710323
-0.000409272
-0.000979477
0.00209907
0.0466074
-0.0487346
0.0546679
-0.0377232
-0.00690025
-0.0452535
-0.124311
0.0480134
0.0762972
-0.0429526
-0.0325211
0.0276091
0.00307211
-0.00212174
0.000679145
-0.00162951
0.00262805
-0.000283843
0.000727899
-0.0860014
0.00319929
0.0828022
0.0606679
0.0140172
-0.122754
0.0480693
-0.0713302
0.000418666
0.0709115
0.00135693
-0.00187982
0.00835919
-0.00783631
0.0487434
0.154722
-0.224566
0.0211006
0.0017648
-0.00227051
0.00148406
-0.000978348
-0.0916571
0.0650932
0.0263302
0.000233702
-0.00292311
-0.000899506
0.00304945
0.000773163
-0.000763623
0.00837939
-0.00814683
0.00053107
0.00811652
0.00792728
-0.0154042
-0.000639579
0.041124
0.0121905
0.00299195
-0.00268422
0.00145707
-0.0982179
0.105352
0.00707459
-0.014209
0.0117662
-0.0667821
-0.022798
0.0778139
0.00182344
-0.00401013
0.0880155
-0.0858288
-0.0423631
-0.0364779
0.0878514
-0.00901045
-0.0408046
0.0246779
0.0404643
-0.0243376
0.0536991
0.0212204
-0.0728569
-0.00206251
-0.00185248
0.000222856
0.00189876
-0.000269139
-0.12381
-0.0429191
0.03995
0.126779
0.048249
-0.0377753
-0.031495
-0.037757
-0.0311194
0.100371
-0.00193073
0.004275
0.000324593
-0.00266886
-0.0307895
-0.0801036
0.0281146
0.0827785
-0.0296029
-0.0289565
0.0208362
-0.000852558
-0.00319991
-0.00168031
0.00336232
-0.0036849
0.00200288
-0.00554432
0.00545795
0.0253386
-0.0772432
-0.0853632
0.137268
-0.000309399
-0.000429353
0.00042402
0.000314732
0.0571711
-0.0605254
0.0474669
-0.0441126
-0.0145558
0.0430561
-0.00733245
-0.0211679
0.0862447
-0.0858601
-0.0186737
0.018289
0.0262286
0.0225623
-0.0635581
0.0147672
-0.12757
0.0742537
0.0184099
0.0349064
-0.00522558
0.00289786
0.000136008
0.00219171
-0.00786783
0.00960433
-0.000379565
-0.013469
-0.00370904
0.0183317
-0.00115357
-0.0628139
-0.00463528
0.0147048
0.0527444
-0.00948991
0.103814
-0.00550163
-0.0888227
0.00908272
-0.0471616
0.080134
-0.0420552
-0.00165499
0.00416501
-0.00169764
-0.000812379
-0.0149033
0.000349658
-0.00232347
0.0168771
-0.107754
0.00494722
0.0124327
0.0903741
8.16296e-05
-0.000322962
0.000681694
-0.000440362
0.0366456
0.00807104
0.0270787
-0.00478496
0.0455647
0.0532249
-0.0940046
-2.67694e-05
0.000752945
-0.000644546
-0.000591359
0.00211956
-0.00142763
-0.00010057
0.0173134
0.11034
-0.0471595
-0.0804934
-0.000213917
-0.000109045
0.000233194
-0.000447112
0.0619494
0.0170875
-0.0922917
0.0132548
-0.156808
0.0864446
0.0763479
-0.00598454
-0.0182869
0.00059376
-0.0518394
0.0695325
0.0251784
-0.0149414
0.0171494
-0.0273864
-0.0661331
-0.0236
0.0897331
-0.0775842
0.0381452
0.0394389
-0.00219732
-0.00024254
0.000245598
0.00219426
-0.0389937
0.0418673
0.0075864
-0.0104601
0.0471327
-0.0548743
0.00774164
-0.0606685
0.0338402
0.0452707
-0.0184424
0.00446179
-0.00241549
-0.00184419
-0.00020211
-0.00317434
-0.00259921
0.000547972
-0.0420394
-0.0422356
0.0461375
0.0143714
0.0020997
-0.0626086
0.00227194
-0.000368974
-0.00194438
4.14059e-05
0.00212873
0.00470135
-0.00965569
0.00282561
0.00710994
0.021801
-0.039896
0.0109851
-0.0190688
-0.0156115
-0.00903807
0.0437184
-0.075064
-0.0104861
0.0302063
0.0553438
-0.00170699
0.0148547
-0.00827609
-0.00487164
-0.0528422
0.000428554
0.0333448
0.000238686
0.0251591
-0.134873
0.126192
-0.0164787
0.0286237
-0.0342359
-0.0515107
-0.0271639
0.0548932
2.40936e-05
0.0396649
0.00323976
-0.0429288
-0.0560964
-0.059834
0.11593
-0.00306056
-0.00107488
-0.00171796
0.00585339
0.0031933
-0.00470017
0.00170652
-0.000199651
0.036128
-0.00543036
-0.0283468
-0.00235083
-0.00315749
-0.0022791
0.00237604
0.00398194
-0.0120024
0.0668917
-0.0588712
0.0758704
9.70714e-05
0.0279185
0.0091931
-0.00618793
-0.0309237
0.0587839
-0.000400546
-0.0583833
-0.0529762
0.113235
-0.0284878
0.0598274
0.0201443
-0.0514839
-0.0152612
-0.024956
0.0164209
0.0237962
0.00325461
0.0036584
0.000752673
-0.00766568
-0.0336505
-0.0384232
0.0992702
-0.0271965
0.0436272
-0.0354518
-7.58298e-05
-0.00809962
-0.051526
0.114946
-0.0495242
-0.0138959
-0.00151521
0.00180383
-0.000193711
-9.49132e-05
-0.00102622
0.0217013
-0.00417881
-0.0164963
0.00282054
0.00394285
1.19054e-05
-0.0067753
-0.000247446
-3.73846e-05
-4.0715e-05
0.000325546
3.37655e-05
6.96598e-05
-0.000350872
-0.00882769
0.0221512
0.070468
-0.0837915
0.0806442
-0.0798637
-0.000780439
0.000311086
-0.00037052
5.94343e-05
-0.0128462
0.000950918
0.00223087
-0.00139785
-0.00178394
-0.00777608
-0.00565078
0.00441022
0.00901664
-0.0557735
0.0272857
0.000217134
0.000303704
-0.00080646
0.000285622
0.0342666
0.0542212
-0.0342969
-0.0541909
0.0131068
0.157479
-0.179581
0.00899508
0.0583653
0.0636498
-0.0621877
0.00196599
-0.0130309
-0.00176886
0.0128337
-0.0333268
-0.0300716
0.0633983
0.0311866
-0.0645134
-0.054528
-0.0446598
-0.0651554
0.164343
0.0503253
-0.0563564
0.00603115
-0.0731052
0.134704
-0.0711688
0.0328938
-0.0302199
0.085277
-0.00401402
-0.0684768
-0.0127862
0.070143
-0.0711353
0.0109274
-0.00993508
-0.00017785
-0.00602653
0.00743526
-0.00123088
0.00233394
-0.00573133
0.00636735
-0.00296997
-0.000200014
0.000119758
0.000764199
-0.000683943
0.0221873
0.022683
-0.0337546
-0.0111157
-0.00512968
-0.00531003
0.00612996
0.00430976
-0.0112182
0.0321595
-0.042575
0.0216338
0.000939395
-0.00848267
0.0109907
-0.00344745
0.0497109
-0.0043515
-0.0453594
0.0381722
0.0353775
-0.126565
0.0530148
-0.0979731
0.0599751
0.0761702
0.0329994
-0.0997859
-0.0467272
0.108225
-0.0375671
-0.0239308
0.00179519
0.00885081
-0.0123023
0.00165626
0.0281426
-0.00322473
-0.0249179
-0.0304917
0.0437396
-0.00355724
0.0198504
-0.0315229
0.00116577
-6.31976e-05
0.000944864
-0.00204744
0.0118612
-0.0386171
-0.0011078
0.000176082
0.000265801
0.000665913
0.00266238
-0.000278135
0.000972207
-0.00335645
-0.000951994
-0.00228096
-0.0777546
-0.0135912
0.00155962
-0.0116237
0.0236553
0.0203459
-0.0908574
0.0208482
0.0496634
-0.00324063
0.0580713
-0.0821659
0.0273353
0.00108042
-0.000753383
0.00103165
-0.00135869
0.078808
0.0125158
0.00212317
-0.093447
-0.000911402
-0.000757343
0.00197924
-0.00031049
0.00460504
8.55265e-05
-0.0699599
0.0652694
0.00643029
-0.000895486
-0.00474799
-0.000786816
0.00632032
0.00441009
-0.00349733
-0.00723308
-0.111204
0.0970952
-0.0878733
0.101982
-0.0552107
0.109799
-0.0545879
0.00254932
-0.0444912
0.00927535
0.0326666
0.00353201
-0.00361762
0.000824748
-0.000739143
0.0490897
-0.00316594
0.00154086
-0.129276
0.00277994
0.0735202
-0.0333571
-8.75257e-05
0.0015818
0.0306294
-0.0251473
-0.0070639
0.0781357
-0.0306967
0.034178
0.00397046
-0.00492923
0.000206917
0.000751856
0.0335112
0.023115
-0.073866
0.0172398
-0.000239859
-8.41051e-05
0.00039288
-6.89153e-05
-0.000394347
0.00148296
0.0052317
0.000154088
-0.00779907
0.0061868
0.00558273
0.0746625
0.0408037
-0.0370894
-0.0783768
-0.131778
0.140963
-0.00831522
-0.000870175
0.0314301
-0.0321097
0.000679587
-0.0359853
-0.000132483
0.000309658
-0.00302686
-0.00221203
0.0148921
0.206561
-0.158734
-0.0627197
0.0287972
-0.0604807
-0.01745
0.0491335
-0.00307932
0.0391779
-0.000779188
-0.0857837
0.047385
-0.022708
0.00983773
-0.0380137
0.0476385
0.0462976
-0.0559225
-0.0667593
0.0891885
-0.15201
0.129581
-0.000149768
0.000130452
-0.00145657
0.00147588
0.000238099
0.00219137
-0.000680955
-0.00174851
0.0445596
-0.0156766
0.0397696
-0.0686526
-0.00349309
0.000388516
0.00323871
-0.000134133
-0.0118224
0.0108452
-0.0370365
0.0121697
-0.0463025
0.00579936
-0.00305419
0.0180935
-0.0208387
-0.133716
0.0170132
0.126979
-0.0102755
0.0388709
-0.0258056
-0.0179787
0.00491343
0.0344517
-0.0532319
0.00695792
0.00471722
0.00769402
0.051545
-0.0639562
0.0249309
-0.00708714
-0.0248932
0.00704947
-0.0791562
-0.00802978
0.0147165
0.00121192
-0.000996637
2.28176e-05
-0.0019239
0.00298186
0.00149224
-0.0025502
0.0185275
-0.0320992
0.0385026
0.0177043
-0.143647
-0.0222839
0.148227
-0.111973
-0.0153322
0.0259601
0.101345
0.0572312
-0.0354819
0.0291033
-0.0508526
0.110177
-0.00636019
0.00444181
-0.108258
-0.0172186
-0.0372354
-0.00413499
-0.0157949
0.00770958
0.0122203
-0.00135326
0.000510173
0.000116795
0.000726288
0.0151601
-0.0771267
0.0619665
0.108212
-0.0074446
-0.11245
-0.0265776
0.0554138
-0.0460549
0.0399031
-0.122202
0.0143636
0.0679349
-0.00427014
-0.0121933
-0.0273456
0.043809
0.00298095
0.0492129
0.0828296
-0.130476
-0.0015664
0.0493849
-0.0830882
0.0893514
-0.0556482
-0.0966546
0.0954088
-0.00645825
0.007704
0.00162796
0.00398777
-0.0942169
0.0886012
-0.00153223
0.0035693
0.00590541
-0.00794247
0.000164343
-0.000881359
-0.000251003
0.000968019
0.0880374
0.000763584
-0.0176322
-0.0711688
-0.000695368
0.000833406
-0.000424906
0.000286867
0.000916104
0.00327199