/*--------------------------------*- C++ -*----------------------------------*\
| =========                 |                                                 |
| \\      /  F ield         | OpenFOAM: The Open Source CFD Toolbox           |
|  \\    /   O peration     | Version:  2506                                  |
|   \\  /    A nd           | Website:  www.openfoam.com                      |
|    \\/     M anipulation  |                                                 |
\*---------------------------------------------------------------------------*/
FoamFile
{
    version     2.0;
    format      ascii;
    arch        "LSB;label=32;scalar=64";
    class       volVectorField;
    location    "0.0321319";
    object      U;
}
// * * * * * * * * * * * * * * * * * * * * * * * * * * * * * * * * * * * * * //

dimensions      [0 1 -1 0 0 0 0];

internalField   nonuniform List<vector> 
47425
(
(10.114 0.0784733 -0.0421624)
(10.034 -0.0677664 -0.0184882)
(10.0377 -0.0511094 0.0267904)
(11.1423 -0.454196 -0.178642)
(12.021 0.743698 0.659058)
(10.1107 -0.0341174 0.00631224)
(11.9456 0.548997 0.617653)
(10.1103 -0.0172313 0.00197307)
(10.0159 0.00775619 -0.00309042)
(4.38064 6.57809 -0.594654)
(10.0756 -0.00495422 -0.00256994)
(9.90469 0.200837 0.0369548)
(11.8086 0.495973 0.167823)
(10.0314 -0.0302674 0.0391848)
(10.5799 0.456916 -0.108139)
(9.89799 -0.135593 -0.0101786)
(10.0422 -0.0424229 0.0461706)
(8.64299 -0.445227 -1.281)
(8.50837 1.10007 -4.63898)
(12.9621 -0.507903 -0.945284)
(10.6723 -0.606538 -0.451142)
(9.75775 -0.0654667 0.0322224)
(10.0067 0.0913051 0.0067281)
(10.078 -0.0211582 0.0876558)
(9.94381 -0.160077 0.0718162)
(9.98044 0.0436286 -0.0148551)
(9.98052 0.0510013 0.0230963)
(11.2027 -0.27762 -8.17939)
(10.0071 0.036757 0.0288109)
(10.0633 -0.0155206 -0.0352773)
(9.70316 0.721339 0.126316)
(9.95131 0.0158938 0.0189327)
(10.013 -0.0248347 -0.00997415)
(9.97936 -0.0210197 -0.0161077)
(9.98882 -0.0779259 -0.0518334)
(10.0569 -0.00745645 -0.0422146)
(9.71121 -0.0891242 -0.0123223)
(9.99472 0.0250987 0.00818763)
(10.5293 0.292744 -0.0106988)
(10.0101 -0.00243963 -0.00193872)
(9.89366 0.100741 0.0244777)
(9.26854 0.26657 -0.50273)
(8.05893 -0.826513 -0.296908)
(9.9915 0.0182052 0.00854207)
(0.0786685 -0.00683577 1.55015)
(10.1202 -0.021476 0.00793959)
(9.97948 -0.0387676 -0.0801489)
(9.99841 0.0679846 -0.00854486)
(10.0203 -0.0288921 0.00173399)
(10.0202 -0.0111318 -0.0422766)
(2.00526 -0.629667 -5.39839)
(9.19826 0.963552 1.33207)
(10.0324 0.00159281 0.0311019)
(6.86266 -6.13509 2.971)
(10.0062 0.0332865 -0.0236546)
(10.1693 0.0694219 -0.0605057)
(10.104 -0.0704221 -0.024717)
(10.082 0.0231049 0.0324073)
(12.6641 0.842523 1.21252)
(10.0198 -0.00280331 0.0253384)
(4.86639 -6.00004 2.41449)
(5.01144 0.173297 2.60289)
(6.35168 -7.0054 1.57671)
(9.1186 -1.09641 0.0933769)
(10.0065 0.00897494 -0.00525652)
(10.6211 -0.20918 0.106995)
(10.0303 -0.0218804 -0.00425737)
(10.5717 0.156778 0.476157)
(8.53585 -6.69029 3.18599)
(9.09204 0.565489 0.417222)
(10.8296 -0.346984 0.197232)
(9.98593 0.0304983 0.0586295)
(10.6693 0.0114906 0.0209747)
(10.6236 0.267974 -0.560831)
(6.68302 4.6006 1.46927)
(9.99622 -0.0101759 0.0142214)
(6.98002 -6.78753 2.47508)
(10.0019 -0.00697047 0.0174989)
(8.39466 -5.86895 2.91013)
(11.495 0.461436 1.74844)
(7.12135 3.80156 1.55479)
(10.1743 0.25318 0.0920202)
(9.2758 0.103395 -0.135101)
(10.0083 0.0846657 0.0101177)
(9.90404 0.0109034 -0.0474337)
(10.0722 -0.0427648 0.0589808)
(10.4784 -0.187694 -0.0131041)
(10.124 0.054193 0.000326039)
(10.3813 0.993512 -1.57108)
(10.6585 0.0204534 2.5616)
(9.7655 0.42478 0.0898473)
(10.5395 -0.0565043 0.0318223)
(10.0719 0.051896 0.0198813)
(9.99072 -0.0142544 -0.00119129)
(9.96011 -0.0442191 -0.00638798)
(9.99549 0.00235691 -0.00476155)
(10.0426 0.00878078 -0.0522285)
(10.1397 -0.24742 -0.0555163)
(10.0837 -0.0676948 0.0704786)
(9.89979 0.0373316 -0.00855119)
(10.1423 0.0150591 -0.0701187)
(8.58853 0.0855752 -3.70776)
(10.2297 0.164506 0.0736324)
(5.41026 1.92781 -0.421672)
(10.2539 0.0346101 0.0351397)
(10.2298 -0.620789 0.133091)
(10.0576 0.0708974 0.0262693)
(9.98078 -0.0438723 0.0847155)
(9.77851 -0.0270202 0.00820239)
(9.89278 0.161437 0.0586344)
(-4.2734 -1.6871 0.438344)
(10.1209 -0.075765 0.0164391)
(10.1482 -0.806072 0.245439)
(10.1467 -0.00441151 0.0224332)
(10.5835 -0.459325 0.151693)
(1.73721 -4.20178 -5.32901)
(10.5813 -0.43056 0.111316)
(4.09576 0.0761887 -3.88111)
(10.2704 0.159198 -0.00274944)
(10.7589 0.271509 0.45274)
(10.1937 -0.00376391 -0.0022885)
(10.003 -0.0111358 0.00229376)
(10.0024 0.0579848 0.0411716)
(11.4918 0.841788 -0.645204)
(10.0646 0.0200222 0.0122046)
(10.3955 -0.827135 0.276726)
(10.0089 -0.075059 0.00660778)
(10.0026 0.00368718 -0.00697584)
(9.94801 -0.0165311 0.00851346)
(10.033 0.0114667 0.00718992)
(9.34078 -0.203575 0.428322)
(10.0153 0.315273 -0.0369977)
(4.37429 0.024633 1.0111)
(10.4513 -0.341842 0.0648474)
(9.5692 -0.238167 -0.396401)
(11.6789 -0.501029 -0.758679)
(10.9374 0.597972 0.26752)
(10.434 -0.818809 0.40864)
(10.1395 -0.0502158 0.000435884)
(10.8 0.201253 -0.0588726)
(10.052 -0.0648905 -0.0212227)
(12.2845 -0.0470401 -0.0486332)
(10.4413 0.0260901 -0.0877812)
(10.2054 -1.12902 0.413284)
(10.106 0.21827 -0.0147737)
(10.0102 0.00611044 0.00217255)
(11.7769 0.0703247 0.797618)
(10.1047 0.0118366 -0.0752243)
(10.4001 -0.0098142 -0.0407342)
(9.99162 0.00207873 -0.0160766)
(10.116 -1.14696 0.276093)
(2.98714 -0.39179 -6.35452)
(10.0304 0.0317298 0.0199648)
(5.66876 0.123161 -10.8867)
(8.92059 -1.10172 -0.52865)
(9.99459 -0.00760073 -0.0143405)
(10.6878 0.375532 -1.50993)
(7.43351 -3.61428 -2.3943)
(9.94297 0.0489141 -0.0423264)
(9.91578 -0.0143975 0.00382367)
(10.8247 -0.392152 0.183251)
(9.94577 0.101408 -0.0505082)
(10.0448 -0.0110104 0.037962)
(10.1015 0.253344 -0.0194485)
(11.8114 0.0894544 -0.340165)
(1.1148 -1.81741 -1.94865)
(9.91405 -0.0323274 -0.0617226)
(7.13693 4.30861 1.42365)
(9.97081 -0.0138088 0.0236909)
(11.9033 0.543313 -3.85757)
(8.23632 3.6172 1.09029)
(10.0977 -0.0130127 -0.0215854)
(10.0429 0.0382837 0.00646415)
(9.36272 -0.923728 -0.491593)
(10.1147 0.0325276 -0.0343152)
(9.27432 -2.91802 -1.02307)
(2.75324 0.815321 -7.01519)
(9.99704 0.0384161 0.0201655)
(10.0446 0.0231745 0.0414324)
(10.0422 -0.0526056 0.012807)
(2.54945 0.298031 -10.3163)
(9.9965 -0.0446514 -0.014562)
(10.0267 0.0290578 0.0267261)
(9.93783 -0.0146658 0.0198385)
(9.99354 -0.0687236 -0.0238275)
(10.0657 -0.0538978 -0.0487212)
(10.1597 0.0188303 -0.0569247)
(5.61165 -0.414576 -0.244339)
(9.95359 -0.0249673 -0.0754446)
(10.0698 0.0604498 0.00178511)
(10.0047 -0.000757249 0.0182789)
(10.0322 -0.0619 0.0258908)
(11.8072 0.332682 -1.1879)
(10.0021 0.00798133 0.00597541)
(9.93129 -0.0159186 0.0146498)
(10.8376 -0.20467 0.066704)
(10.0107 0.000559442 0.00200531)
(9.99148 -0.0190763 -0.0533475)
(11.0053 -0.191324 0.136044)
(10.1211 -0.16292 0.0441451)
(10.0456 -0.0482615 0.0306635)
(10.2749 -0.0966635 0.00386605)
(9.8932 0.0471012 0.0737053)
(10.7615 -0.29445 0.062332)
(10.1611 -1.37621 -0.749441)
(10.442 -0.0167424 0.0766209)
(10.0226 0.0136528 0.0362606)
(10.7696 -0.226059 0.0516214)
(10.0311 0.179753 -0.0513518)
(9.98945 0.03509 -0.00917829)
(10.1237 -0.100516 -0.0473216)
(10.896 0.0882014 0.0685769)
(10.0098 0.100831 -0.00861099)
(10.0754 -0.0946116 0.0229298)
(10.4225 -0.0282271 0.00743258)
(11.0042 -0.295629 -0.153351)
(10.6164 0.0164974 -0.00642897)
(10.2169 0.471395 1.06421)
(8.6862 -1.21477 -0.436829)
(10.0544 -0.0156745 0.013528)
(11.4346 -0.0423703 2.11941)
(10.8571 0.0667993 0.133288)
(9.57315 -1.1419 -0.47975)
(10.5888 -0.0100121 0.0503745)
(10.4399 -0.0076597 0.092754)
(11.4796 -0.322614 2.06953)
(10.0723 -0.0320346 0.0286032)
(10.9008 -0.24351 -0.0773401)
(11.0215 0.482934 0.31764)
(11.5476 0.686497 -0.212354)
(10.6322 -0.000548737 -0.0251359)
(9.9324 -0.0120264 0.0461653)
(10.2226 -0.0923516 0.00358398)
(10.0044 0.00306547 0.00516098)
(10.0192 0.0313963 0.00447299)
(9.9122 0.164184 -0.00311408)
(11.338 0.607003 1.83788)
(9.91682 0.0216875 -0.0200244)
(11.6367 0.580648 1.64224)
(9.97952 -0.00536822 0.031852)
(9.94232 0.0190364 0.0497659)
(10.0013 -0.00226623 -0.0282862)
(9.99566 0.000860285 0.016667)
(11.6381 0.245243 -0.112927)
(10.4018 0.309131 0.049511)
(9.99105 -0.0184876 0.0215446)
(10.193 -0.0175918 0.0201253)
(9.96263 -0.0225713 0.0309954)
(10.0059 0.0207558 -0.0480212)
(9.8968 0.0515895 -0.0181766)
(9.99504 0.0197666 0.0481107)
(11.4624 0.100981 1.82522)
(10.0775 -0.00575924 -0.0464992)
(10.0018 -0.00549668 0.00736289)
(9.98569 -0.0683888 0.0180058)
(9.95018 -0.0238653 0.0522625)
(9.87156 0.0818856 0.0733473)
(9.9754 -0.0617787 -0.058004)
(10.551 -0.486327 0.155566)
(10.0224 0.00430014 0.00118547)
(9.8933 -0.0253346 -0.0619862)
(9.9848 -0.0283397 -0.0175753)
(10.0806 0.0869313 -0.0533103)
(10.2473 0.0302835 -0.0207112)
(11.4152 0.303258 0.671459)
(9.87512 -0.33109 -0.0550597)
(9.93158 0.0315348 -0.000223708)
(11.4886 0.309945 0.525516)
(9.9152 -0.00586221 0.0280806)
(10.1935 0.131581 -0.0620378)
(10.0918 0.0831873 -0.0251988)
(11.6844 0.696617 1.30278)
(11.1681 0.735412 1.52151)
(10.232 -0.0960912 0.00279266)
(11.5378 0.404804 1.64264)
(10.1673 0.0340544 0.0352053)
(11.6021 0.551951 1.47436)
(6.94167 3.22738 2.59194)
(11.1314 0.629124 1.60406)
(5.82223 1.20624 -4.78575)
(3.91836 -5.74139 2.18589)
(10.138 0.0632821 -0.0353176)
(3.79115 -6.23056 1.46367)
(9.89576 0.0651376 -0.0441438)
(9.99318 -0.0339456 -0.0889498)
(11.0071 -0.166467 0.105683)
(9.93714 0.0171796 -0.0345148)
(10.0022 -0.0583825 0.0195497)
(9.91897 -0.00030356 0.0199906)
(10.5229 -0.617822 0.0525964)
(1.39336 1.72127 -3.13177)
(9.20268 0.746758 0.167951)
(10.0029 -0.00113015 -0.00221012)
(9.90294 0.0327678 0.0290915)
(10.0142 -0.0803389 0.0249508)
(10.7438 0.182354 0.44782)
(11.7541 0.362916 0.0406282)
(10.2031 -0.525979 0.197689)
(10.0658 -0.103411 -0.046422)
(11.5345 -0.00142694 0.431844)
(9.9222 0.104624 -4.8523e-05)
(10.1336 0.00602985 0.100688)
(9.99798 -0.0875713 -0.00365706)
(10.0235 -0.0908467 0.0351477)
(12.3284 3.681 0.180244)
(7.21627 1.59805 0.732245)
(1.44839 1.16512 -5.87612)
(9.89021 -0.0110962 0.00703312)
(10.0465 -0.0673995 -0.0373411)
(10.0176 -0.576412 0.0513934)
(10.0756 -0.461 -0.103991)
(1.13628 -0.639478 -5.3911)
(10.0156 -0.0215776 -0.0305593)
(10.0165 -0.0235869 -0.0284456)
(10.7291 2.62738 1.62457)
(10.0116 -0.0409309 -0.058685)
(9.9358 0.0467433 -0.0352153)
(9.85124 0.0857031 -0.0438961)
(9.93096 0.0270352 0.00880405)
(13.5556 1.35305 -0.197793)
(10.9751 2.33599 1.52758)
(10.0546 0.155101 0.0787431)
(10.1824 0.101303 -0.060536)
(10.0095 0.0342334 -0.102702)
(10.1432 -0.0634739 -0.0392974)
(10.0499 0.0405255 -0.0430313)
(9.93425 0.122518 0.0288893)
(10.0181 0.0748489 -0.0193279)
(10.0316 -0.0383785 -0.0394516)
(10.02 -0.0119403 -0.067802)
(11.0861 0.0773241 0.316657)
(11.8435 -1.56482 1.07669)
(10.3308 -0.699093 -1.1177)
(9.98313 0.0300503 0.030045)
(9.95841 0.00835453 0.00195263)
(9.95444 0.0150606 0.041182)
(11.8351 -0.93531 1.14567)
(9.91024 0.0939171 -0.124382)
(10.0703 -0.0300987 -0.028106)
(9.97023 -0.0511529 -0.00870589)
(10.0635 0.231679 0.0698246)
(10.0464 0.236053 0.0419832)
(10.083 -0.000805683 0.037492)
(9.83374 0.193703 -0.0427263)
(10.0602 -0.00399207 0.018788)
(9.89405 0.00869797 -0.0644408)
(10.1031 -0.0188007 0.0409521)
(9.65588 0.383724 -0.0747892)
(9.98746 0.0628871 -0.0251644)
(9.97772 -0.0290585 -0.00454139)
(10.0358 0.216707 0.0583949)
(10.3922 -0.390571 -0.0285013)
(10.05 0.200222 0.0378216)
(9.89813 0.156116 0.00388308)
(10.0465 0.202337 0.0947856)
(11.2132 -1.01613 0.0278074)
(10.0118 -0.00661685 -0.057736)
(9.36396 0.232045 0.213125)
(9.94268 0.188551 0.0283369)
(10.0417 0.0516765 0.00693958)
(10.1131 0.190369 2.06953)
(10.9698 -0.610395 -0.460131)
(10.0433 -0.0258026 0.0330746)
(9.97582 0.0288526 -0.0392821)
(10.3608 -0.299092 0.0876388)
(10.2687 0.361472 -0.0292313)
(9.90339 0.00332655 0.00195501)
(10.0285 0.00746662 0.0361952)
(10.0466 -0.0998201 -0.0241673)
(10.1332 0.672179 -0.0928454)
(9.92913 0.00226042 -0.0207842)
(-1.16657 0.162863 0.367746)
(10.4397 -0.0687965 0.0571242)
(10.0784 0.842355 -0.0519557)
(9.98102 -0.0119925 0.00713982)
(10.0624 0.742985 -0.0473345)
(9.83337 -0.238023 -0.597024)
(9.96526 -0.0589459 0.0239522)
(10.0043 0.00286176 0.00162489)
(9.74641 -0.0893379 -0.000397429)
(10.0154 -0.00549122 0.00300123)
(10.0264 0.786166 -0.0840874)
(10.1534 -0.0418121 0.0104391)
(10.0364 0.0298889 -0.0213974)
(9.98406 -0.0930062 0.0129118)
(10.012 0.0247636 -0.000908639)
(9.97141 0.0778884 0.0107945)
(10.1078 0.186758 0.0574412)
(10.0401 -0.0388123 -0.0199749)
(9.99855 0.00819709 0.00528433)
(10.4374 0.838239 -0.227733)
(10.2939 1.04565 -0.260328)
(10.0683 0.00705186 0.0303162)
(10.5049 -0.330366 0.102139)
(9.98489 -0.0369852 -0.0516305)
(10.3642 0.78432 -0.205208)
(9.99092 -0.0141306 0.0362852)
(9.91445 0.0270169 0.00540731)
(11.9128 -0.347628 -0.675008)
(9.96375 0.010543 0.0413937)
(10.3728 -0.972302 1.71116)
(9.98569 -0.052978 -0.00161384)
(11.2443 -0.649699 -3.62475)
(9.97796 -0.0348011 0.01596)
(10.5021 0.147505 -0.0105548)
(9.94261 0.0210692 -0.0554882)
(10.0068 -0.0487756 -0.0495628)
(9.81526 -0.014822 0.0294735)
(10.0869 0.0124922 -0.0114208)
(10.0129 0.0312249 -0.101486)
(10.2793 0.928615 -0.198486)
(2.11896 -1.88258 2.2849)
(2.17595 -0.495576 -2.24176)
(10.0596 0.0254583 0.0357067)
(10.288 1.46107 -0.708714)
(10.5919 0.688818 -0.300451)
(10.6802 0.64703 -0.291609)
(9.98601 0.0129949 0.0310681)
(10.0085 -0.0595408 -0.00532768)
(9.97587 -0.0190978 -0.00635153)
(9.95449 0.0454604 -0.00769844)
(9.98351 -0.0659245 0.0160354)
(10.1496 -0.121217 -0.0177248)
(10.673 0.588655 -0.177566)
(9.97148 -0.00814614 0.0331428)
(10.037 0.00861074 -0.0188944)
(10.9178 -1.32351 0.565009)
(11.2672 0.540437 -0.188369)
(10.9195 0.53313 -0.0351872)
(8.02196 -1.28518 -4.63898)
(-0.0164847 5.9324 0.669728)
(10.2942 -0.232191 0.0474203)
(7.39009 -0.963371 -5.12668)
(0.0379189 5.62982 0.979222)
(9.95728 -0.0834145 0.0137444)
(-0.112741 5.98191 0.841393)
(8.79161 -1.99998 1.56844)
(10.0188 0.0927067 -0.0279556)
(10.8864 0.634943 -0.301091)
(10.8422 0.67281 -0.329933)
(11.0868 0.601304 -0.313808)
(-1.03289 5.51149 1.10657)
(10.1046 0.125586 -0.0266461)
(9.98467 0.0319233 -0.0365636)
(10.0191 -0.0885462 0.0176734)
(11.138 0.632407 -0.432209)
(11.0302 0.662182 -0.485101)
(10.0301 0.0137564 0.0104645)
(10.0723 0.0510858 0.00398593)
(9.89538 3.78907 3.32277)
(-1.01081 5.25906 1.00745)
(12.5149 -0.339136 -2.81035)
(10.0168 0.00749778 0.00276828)
(8.64709 -0.719102 -2.95632)
(10.1783 0.119968 0.852283)
(9.98199 -0.00329999 0.0119529)
(10.7537 0.307089 0.00932944)
(11.6463 0.430404 0.25676)
(10.736 0.192434 0.0218127)
(10.0244 0.0201524 0.000274173)
(10.0019 -0.00189161 0.00713807)
(9.98339 -0.00129434 0.000703808)
(10.4565 0.298282 -0.00785954)
(9.99806 0.00287447 0.000427802)
(9.99152 -0.00180777 0.0548905)
(10.0636 0.102714 -0.0119973)
(9.93961 0.0137522 -0.012885)
(10.8768 0.0683442 0.0596914)
(10.0403 -0.0522932 -0.0338297)
(10.0629 -0.041588 -0.0107794)
(10.0345 0.015077 -0.00731684)
(10.0122 -0.00353226 0.00345262)
(9.94431 -0.101877 0.0171357)
(10.3852 0.231643 -0.0259184)
(10.2049 -0.000795243 -0.0728978)
(9.95735 0.00305436 0.0352365)
(10.8118 0.0721762 0.0372762)
(9.37303 4.58659 2.78114)
(9.96344 -0.0899702 0.0428713)
(11.7493 1.6532 -1.20695)
(10.005 -0.0200932 -0.0209778)
(10.5729 -0.247768 -0.0157469)
(7.69881 -0.407185 0.990983)
(9.75808 1.39769 -0.452146)
(9.98762 0.0126381 -0.0549002)
(9.83327 1.46594 -0.501554)
(10.023 0.00331432 -0.109514)
(10.06 0.0245845 0.09624)
(10.0115 1.28095 -0.761596)
(9.96266 -5.1766e-05 -0.063756)
(10.4252 -0.18526 0.0136441)
(9.90601 1.16587 -0.500399)
(10.185 -0.0797377 0.0616919)
(10.4037 -0.0102767 -0.250592)
(8.09939 0.278348 -3.77867)
(10.014 0.036351 -0.025372)
(9.67141 1.80944 -0.414679)
(9.99802 -0.0176938 0.0142981)
(9.05831 1.9791 -0.819237)
(10.0525 -0.101674 0.0216649)
(9.95491 -0.0581922 -0.0121706)
(9.98338 0.0446959 -0.0249781)
(9.9858 0.00060367 -0.0386487)
(10.9832 0.630594 0.798237)
(9.99001 0.0100936 -0.0512284)
(9.97723 0.013158 -0.0236835)
(10.0518 -0.00368877 0.0317157)
(10.0196 0.0175033 -0.00557118)
(11.038 0.359907 0.0750883)
(10.1242 -0.0338722 0.00950804)
(10.1076 -0.0123518 0.00184457)
(8.6938 0.263508 -0.436639)
(9.98242 -0.0146077 0.0601652)
(9.88271 0.0367833 0.0181097)
(10.0069 -0.098237 0.0445542)
(9.99042 -0.0906048 -0.0767604)
(10.1054 -0.0638937 0.00224569)
(10.0343 -0.0167359 0.0151506)
(10.1163 0.0314247 -0.040732)
(10.2509 1.32471 -0.91056)
(10.0224 0.0117771 0.0011557)
(9.98648 0.00342029 -0.00340798)
(2.86034 -0.334617 -5.39136)
(10.0233 0.0384365 0.0214783)
(10.03 0.0641634 -0.0061447)
(10.0465 0.119396 0.000749296)
(10.0093 0.0122133 -0.00149069)
(12.5098 1.14012 -0.0582908)
(12.6 0.773393 0.253126)
(9.95285 -0.0829713 -0.0228078)
(9.90588 -0.0437951 0.0648098)
(9.94275 0.018334 -0.00453349)
(11.159 -0.304516 1.01959)
(9.93878 0.0560056 0.0268181)
(12.53 1.41626 -0.127838)
(9.99226 -0.0146034 0.00357199)
(-0.195865 -2.28025 3.33183)
(8.11042 -0.418277 -0.480174)
(9.45235 -0.72254 2.06462)
(10.0367 0.0293726 -0.0162397)
(12.475 1.29973 -0.0483966)
(10.035 -0.00445896 -0.045509)
(10.0822 0.0615385 -0.0106466)
(10.0575 0.0193587 -0.02642)
(9.93355 0.0102584 0.0714298)
(10.0286 -0.00667174 -0.0306441)
(10.0973 -0.0247195 -0.0183743)
(8.29145 -0.57435 0.580643)
(9.9879 0.00785264 0.00940768)
(9.91913 0.0793601 0.0017088)
(9.98375 -0.0456871 -0.0110738)
(12.4526 1.0919 -0.0100921)
(10.0338 -0.0409265 0.0332759)
(10.0493 0.0475174 0.0102543)
(12.2655 1.1686 -0.114306)
(12.1455 0.444963 0.217095)
(9.99994 0.0595928 0.0218014)
(10.0296 -0.00760501 0.000231782)
(-0.450606 1.83709 1.25521)
(10.0002 0.0571909 -0.0460968)
(10.3768 -0.304716 0.116323)
(9.94542 0.0435315 0.0304916)
(10.0509 0.0652302 0.0405997)
(10.0605 -0.00891635 0.0104918)
(11.8554 0.579196 -0.00569613)
(11.0051 -0.207207 1.21864)
(9.39664 0.592338 0.94103)
(9.98966 0.0272906 0.0632125)
(10.0243 0.031943 0.00161957)
(9.97454 0.0408706 -0.0120949)
(12.5567 -0.32406 0.977871)
(9.31644 0.125569 -0.329758)
(9.90318 -0.0150825 -0.0814327)
(-0.274794 1.79711 0.935107)
(9.94633 -0.00438148 0.0609088)
(10.0138 -0.00198941 0.0432129)
(-1.36266 1.71437 1.40084)
(11.8347 2.08243 -1.04514)
(9.8182 0.13644 0.0261517)
(0.0760183 1.8996 0.659365)
(-0.0464511 2.02613 1.16289)
(10.0217 0.0272562 0.0163941)
(9.97531 -0.0346491 0.0118245)
(10.0447 -0.0195829 -0.0571104)
(9.74157 -0.372911 0.0761777)
(9.9873 0.00160226 0.0305779)
(9.90756 0.0351796 0.00681951)
(12.1414 2.16679 0.74508)
(10.1373 0.226637 0.145177)
(10.012 0.111396 -0.0251143)
(10.0879 0.0110198 -0.00924949)
(12.5023 0.339644 0.227974)
(11.7914 0.904794 -0.0117935)
(10.0122 -0.0657315 -0.0348349)
(10.2402 0.308076 -0.124852)
(-4.77969 -2.26732 -0.726247)
(3.61862 -1.5458 -2.65616)
(10.5848 0.295412 -0.204903)
(9.95187 0.0107498 0.0292164)
(10.2459 -0.183693 0.168981)
(10.7565 -0.157032 -0.661966)
(9.92981 0.0362511 -0.062413)
(9.91132 0.0737368 -0.0572347)
(10.0165 -0.0320111 -0.0681288)
(10.2407 0.174702 -0.0227154)
(9.9837 -0.00102397 0.00409117)
(10.5989 0.190542 0.254214)
(10.0606 -0.0189184 0.0702871)
(12.5747 1.0514 -0.587293)
(10.251 1.50811 -0.966039)
(10.5199 0.233201 -0.160041)
(12.6254 1.22906 -0.880746)
(10.2269 0.0472971 -0.109615)
(9.97862 -0.031963 -0.108056)
(10.576 0.597715 0.156975)
(10.2355 -0.0173751 0.0322692)
(9.9755 0.0165239 -0.00658577)
(10.0298 0.00786289 -0.00241809)
(10.5521 0.799943 -0.391681)
(7.92551 -0.686142 -1.14298)
(10.029 0.00983549 0.046283)
(10.6229 0.246102 0.0963253)
(9.99651 0.0336296 0.0389366)
(12.8854 -5.36182 -1.4899)
(10.6831 -0.602327 0.944706)
(11.3436 -0.259973 0.636997)
(6.10753 1.52146 0.397382)
(5.99799 1.51851 0.264195)
(10.0402 -0.0468744 -0.0193736)
(9.89548 0.103416 0.0620968)
(5.22693 1.32666 -0.161304)
(10.0617 -0.00226113 -0.00438595)
(9.79493 -1.70105 -3.09453)
(7.67072 0.324717 1.18174)
(9.98465 0.000435032 -0.0140503)
(9.82485 1.65667 0.926969)
(10.0589 -0.10436 0.0066042)
(10.0052 0.05357 -0.00227986)
(10.0446 -0.0133294 0.0302204)
(12.752 0.371147 -0.106514)
(9.96904 0.00503082 -0.0117675)
(9.98475 -0.00537726 -0.00544644)
(10.0132 -0.00868535 -0.00731505)
(9.95214 0.00307477 -0.0462444)
(10.0255 0.0270919 0.00521592)
(10.0308 -0.025749 0.0225247)
(10.0053 -0.0342879 0.0665631)
(10.0272 0.0453917 -0.042582)
(11.2143 0.633624 0.515663)
(10.3601 1.56206 -3.49801)
(13.7798 2.78116 0.904055)
(10.6953 0.305314 0.0247769)
(9.93135 1.13573 1.42997)
(10.0044 -0.0237039 -0.0627526)
(9.4319 -0.865717 0.198492)
(10.2032 0.0250957 -0.0100131)
(10.0015 -0.0138984 0.00594782)
(10.0134 -0.00456462 -0.0068669)
(10.0051 -0.00382186 -0.0119306)
(9.99948 0.00976254 0.0410689)
(9.09622 0.276661 -0.784926)
(11.4919 0.371193 0.246295)
(9.98651 0.00966031 0.0052188)
(10.2088 -0.416187 0.165102)
(11.819 1.11421 1.78153)
(10.0603 -0.0127063 -0.0125973)
(5.49253 -1.59153 3.00938)
(12.7203 -0.994837 -2.57794)
(9.90495 0.0300151 0.0118268)
(9.52323 -0.480132 0.125643)
(10.4835 -0.0067165 0.0151117)
(10.0474 -0.00255247 -0.0251322)
(6.06535 0.303698 2.51657)
(9.95435 -0.0017671 0.015401)
(9.17108 -4.84624 1.19114)
(10.1043 0.0566563 0.0240088)
(11.3232 -0.406988 0.837462)
(11.7108 0.530823 -0.0188903)
(10.0293 -0.0155633 -0.0513694)
(9.97691 0.0911758 0.000656403)
(10.2979 0.425434 0.00559784)
(8.492 -0.555875 -2.04169)
(9.94285 -0.0579324 0.0418864)
(9.98672 0.0204644 0.059502)
(10.135 0.000304821 0.0447584)
(11.762 -0.0198835 0.578542)
(10.0002 -0.0014351 -0.000263554)
(11.8917 0.582567 0.287767)
(10.2046 -0.0120492 0.0119229)
(2.81059 0.710041 1.07575)
(11.6567 0.469901 0.0823202)
(10.1647 -0.00548422 0.0282742)
(11.7383 0.525361 0.200656)
(10.0101 -0.00597109 -0.00322191)
(10.1085 -0.0239569 -0.0247084)
(10.479 0.30219 -0.00015573)
(10.2118 -0.0109656 0.021942)
(11.9129 0.639255 0.117965)
(9.99132 -0.0329818 0.0309926)
(9.98415 -0.242831 0.0689897)
(11.7875 0.552462 0.0322808)
(10.0097 -0.013841 -0.000673335)
(10.2288 -0.0267999 0.011227)
(10.0049 -0.00431205 -0.00206705)
(10.0391 0.00943929 0.0123049)
(6.80713 0.334102 -4.75171)
(6.61763 -0.169868 -5.29434)
(10.0147 0.0493064 0.411702)
(8.69919 0.333501 -3.85758)
(10.0218 -0.00373291 0.00908696)
(9.96997 -0.0095026 0.00233045)
(10.6468 0.563759 -0.240085)
(10.2235 -0.106311 0.0626644)
(9.70233 0.0705132 0.670522)
(10.0293 -0.000234162 0.0115337)
(9.99436 0.0131165 -0.0473986)
(9.99874 -0.0384058 0.0615121)
(9.93585 0.113647 -0.0417197)
(5.20427 0.125462 -5.91917)
(3.2029 -2.00025 -0.865485)
(10.0166 -0.0152981 0.0311467)
(10.0197 0.0919081 0.00873688)
(9.9118 -0.0501428 -0.0126254)
(9.94141 0.00115839 -0.00463275)
(10.088 -0.0756796 0.014186)
(10.0431 -0.000166411 0.0149786)
(10.9268 -0.168638 0.145878)
(11.4071 -1.46669 2.25259)
(10.0397 -0.0120013 -0.000795004)
(10.0447 -0.025525 -0.0152848)
(10.0186 -0.00308813 0.0660519)
(10.0077 -0.00650695 0.0486341)
(9.85299 0.158119 0.00615784)
(9.98205 -0.0246116 0.0813791)
(10.408 -0.146599 0.0252506)
(9.98863 0.00253937 -0.0248856)
(10.0247 -0.0599889 -0.0444998)
(10.0894 -0.0449634 0.0325908)
(9.18608 -0.796551 -1.03559)
(5.10102 0.633089 -4.38437)
(9.95221 -0.0258514 -0.000991344)
(-0.542265 -1.64465 1.04477)
(10.0157 -2.6422 1.41428)
(12.7201 -1.3973 -0.913841)
(-0.312078 -1.72658 0.711816)
(10.0758 0.035576 0.0141122)
(7.93635 -0.211676 0.452245)
(10.2954 -0.494852 -2.33002)
(11.0548 -1.18028 0.441563)
(5.6 0.274487 -3.41163)
(-0.468789 1.7997 2.19148)
(1.38395 0.461628 -3.02862)
(11.2648 -0.0201078 0.462946)
(10.5361 -0.0428203 -0.00412392)
(10.971 -0.0124036 0.926657)
(10.0142 -0.00554123 -0.0454054)
(3.83973 -0.271103 0.0619934)
(10.5945 -0.0284366 -0.326654)
(10.4644 -0.0147242 0.00349129)
(9.99148 0.00729225 0.00429915)
(10.0655 -0.03741 0.0115316)
(11.1715 -0.30019 0.837131)
(9.85268 0.140747 0.0210517)
(10.0808 0.0259734 0.0573091)
(9.99163 0.0331522 -0.0228333)
(-2.76068 0.911844 0.626922)
(8.09385 0.275844 -2.2164)
(10.0788 0.0116841 -0.0415798)
(9.99131 -0.0103931 -0.000849254)
(5.083 0.280999 -2.01692)
(5.90622 0.135974 -2.70226)
(10.6945 0.292644 -2.14528)
(-2.93627 -3.81209 -1.39352)
(3.98093 1.34165 0.482888)
(4.18481 0.0593415 -3.46933)
(3.88877 -0.0148163 -4.34663)
(10.0232 0.00470206 -0.00389661)
(9.82212 -0.00679514 -0.00904564)
(9.51547 -0.0272968 0.158276)
(9.95806 -0.0453114 0.0383179)
(10.4017 0.045198 -0.0616503)
(-0.598836 1.82095 1.29542)
(10.7219 -0.113235 -0.253564)
(10.4202 0.0300899 -0.0592937)
(10.3966 0.0278304 -0.0286163)
(10.0601 -0.0265161 0.0504897)
(-0.401686 1.77581 2.169)
(-0.222242 2.01464 2.19775)
(9.97451 -0.0364443 -0.00282592)
(10.3939 -0.023345 -0.0338353)
(9.9474 0.0428906 0.0717191)
(9.9329 -0.00046594 -0.00308823)
(10.3967 -0.00374751 -0.0171967)
(9.98194 0.0194504 0.0185759)
(9.66972 -0.0252825 0.0139172)
(10.0555 0.00848382 -0.0469604)
(9.94903 -0.0275151 0.0167663)
(6.78567 -0.662686 -2.83382)
(9.94492 0.00245432 -0.0329663)
(9.97994 0.038246 0.0440633)
(10.0358 -0.0962322 0.0068245)
(9.95394 0.0535741 -0.0178831)
(9.99057 0.00747219 -0.0330115)
(4.11644 -0.483769 -2.05431)
(12.3894 -1.27387 -0.139825)
(10.0201 -0.0302909 -0.0356253)
(10.5407 0.403751 -0.192727)
(10.0725 -0.0249254 -0.0222133)
(9.82418 -0.366055 0.174381)
(9.75978 -0.428025 0.286051)
(11.8138 -0.0491609 -0.0443964)
(10.012 -0.0577123 0.0196073)
(-0.834282 -1.0934 3.05586)
(11.9192 -0.112517 -0.0603536)
(10.3786 0.116972 0.00450279)
(10.6324 0.216389 -0.00579368)
(8.06451 0.30748 -3.11805)
(13.4046 2.04297 0.657169)
(10.0435 -0.0513388 -0.0241721)
(10.0466 -0.0576347 -0.0145001)
(12.1812 1.32147 1.89664)
(10.0604 0.0169272 -0.0627405)
(10.0252 0.024594 -0.0199303)
(11.24 0.355505 0.363171)
(10.0143 -0.0728374 -0.00695345)
(9.98281 0.00513411 0.0041455)
(0.135096 -0.373224 2.25834)
(12.3248 -0.184534 0.377722)
(12.5287 2.79098 0.350194)
(10.0055 0.00111439 0.00542943)
(7.6294 0.513837 -2.3481)
(9.95699 -0.0416186 -0.0507814)
(11.5579 -0.766128 -0.193831)
(9.62028 -0.399339 0.393418)
(11.8647 -0.0600284 -0.024597)
(10.1262 0.0133355 -0.00477178)
(9.43312 -0.408177 0.361107)
(1.4471 0.912236 2.70808)
(12.2593 1.43413 2.3517)
(12.0671 -0.362497 -0.753847)
(-1.15353 1.88848 2.47304)
(11.7858 0.34942 0.0701796)
(10.3211 0.123415 0.0840574)
(9.98757 0.0280694 -0.0407398)
(11.8031 0.668885 -0.155432)
(10.013 -0.0629748 0.0145586)
(12.0029 -0.0580126 0.112408)
(-0.239208 -0.954307 2.13428)
(10.0071 -0.0513927 0.0331084)
(12.3212 0.0150006 -1.14171)
(10.0255 -0.0137896 -0.030752)
(10.0541 -0.00939036 -0.00898081)
(11.3275 -2.01752 1.41374)
(10.1128 -0.0162893 0.0329651)
(10.0234 -0.0198115 -0.0984402)
(8.3784 -5.75738 0.464625)
(9.60084 0.40929 0.0456322)
(10.0099 -0.201245 0.0935669)
(12.3012 -0.859908 0.2759)
(10.3666 1.30059 1.49052)
(10.1169 -0.0758767 0.0547481)
(11.8631 -2.19921 -0.465639)
(5.32299 -0.752066 0.170101)
(10.4583 0.0388349 0.0806229)
(9.52754 -0.67824 -0.693888)
(10.0066 0.0354288 -0.0109352)
(10.2392 0.122545 0.0197972)
(10.1242 -0.0331572 0.0812109)
(10.076 -0.0307275 0.0184471)
(3.93298 2.05274 -2.40327)
(0.801173 -2.10803 1.68041)
(11.9597 0.0291467 -0.44681)
(9.76485 -1.43156 -0.160177)
(11.7152 -1.9082 -0.0480372)
(2.78172 5.74303 0.0739218)
(-1.00214 0.159279 -1.03364)
(10.1225 -3.44165 4.36128)
(10.0466 -0.0201791 -0.0282513)
(10.0128 0.0199403 -0.0034278)
(9.98081 -0.00771938 -5.39763e-05)
(9.96893 -0.109044 -0.125312)
(6.66369 0.597864 -2.31957)
(9.71041 -0.531876 0.281328)
(9.16616 -0.51177 1.27461)
(9.97726 0.0155221 0.00382335)
(-1.42615 -1.17689 0.743991)
(11.9471 -0.0576482 0.000409217)
(9.83464 0.197723 -0.0399097)
(10.0079 -0.000454945 -0.0332352)
(10.0118 -0.0197356 0.018742)
(9.9962 0.0386531 -0.0435962)
(6.18452 -1.79308 -2.83868)
(10.0084 0.0123814 0.00169747)
(6.72631 5.8928 0.0482988)
(10.0183 -0.109315 0.0141528)
(10.0005 -0.592728 -2.83778)
(9.99387 -0.00152797 0.00106958)
(10.0153 -0.0101635 -0.00136535)
(10.0449 -0.00337395 0.0462657)
(10.0963 0.0240059 0.0193042)
(9.98266 -0.0117721 -0.00327927)
(12.8485 0.535874 -0.0802697)
(12.3108 0.086947 0.419104)
(9.25699 1.26284 2.60893)
(7.35023 3.98936 2.73966)
(9.46071 0.947118 0.593314)
(10.244 0.484717 -0.0601687)
(11.1822 0.794831 0.14788)
(6.40675 -0.334247 -2.64366)
(10.3767 -0.112935 0.0470879)
(11.0899 0.0505012 -0.111941)
(10.2 -0.583212 0.116203)
(11.7494 0.0502618 -0.0374693)
(8.83079 0.0714985 4.93712)
(6.49533 -0.629909 0.38957)
(10.3734 -0.25977 0.180681)
(9.9995 0.00330819 0.00718405)
(9.58527 0.882811 -0.198419)
(10.0265 -0.00616744 0.00423857)
(10.0914 0.0213788 0.0120513)
(14.1759 -2.04478 2.07098)
(11.9517 -0.770604 0.664055)
(-1.03315 3.41224 0.493897)
(10.1602 -0.768135 0.295514)
(11.6623 -0.881056 -0.223364)
(10.2914 -1.01432 -0.944545)
(12.6526 0.167211 -0.206963)
(10.144 -0.0581427 0.0184444)
(-2.14908 -2.02837 0.53634)
(10.0028 0.0102824 -0.0422465)
(10.0233 0.0252356 -0.017046)
(10.6227 -0.0851461 0.582903)
(10.4545 0.10239 5.23414)
(10.177 -0.0239785 0.00460794)
(10.093 0.519338 -0.323333)
(10.0197 0.0171146 0.0483741)
(10.6936 -1.04911 0.627251)
(10.9089 0.0181853 0.880683)
(9.98536 -0.0129119 1.38705e-05)
(10.7963 -0.450644 -2.77228)
(10.3715 -0.348116 -2.99974)
(12.8863 0.262243 0.881415)
(10.3326 0.464734 -0.113817)
(9.68791 0.0330069 0.342898)
(3.1293 0.757772 -3.29162)
(0.917359 1.17179 3.77063)
(5.46771 3.15596 0.992304)
(12.7263 -0.843726 -2.44715)
(5.595 -0.403261 -0.0734486)
(9.92326 -0.0185976 -0.164116)
(9.91836 -0.0496965 0.0180239)
(8.64451 1.51967 2.9527)
(9.97194 -0.0432122 0.08827)
(4.54409 -0.683948 0.135473)
(9.94768 -0.0459296 -0.1251)
(9.95023 -0.0253202 -0.148872)
(-1.65187 1.42462 -0.469374)
(9.71005 -1.1427 0.967844)
(10.8415 -0.251931 0.166879)
(10.0319 -0.00415279 0.0340638)
(9.9034 0.0429408 0.0546196)
(8.22327 0.31412 -2.55971)
(10.0096 0.0590527 0.0807962)
(9.9932 -0.0175145 -0.0106824)
(10.201 0.675756 1.02624)
(11.995 -0.750824 -2.55873)
(10.2784 0.274392 0.129321)
(9.88163 0.1345 0.0147046)
(9.89539 -0.11288 0.029216)
(9.98208 -0.00346893 -0.0144213)
(9.94895 -0.0498163 -0.0190495)
(11.6532 -0.756953 -1.65246)
(11.7407 0.176176 -0.0641012)
(8.39503 0.0324569 0.174322)
(9.853 -0.912601 0.61244)
(9.86036 -0.0729536 -0.000284322)