/*--------------------------------*- C++ -*----------------------------------*\
| =========                 |                                                 |
| \\      /  F ield         | OpenFOAM: The Open Source CFD Toolbox           |
|  \\    /   O peration     | Version:  2506                                  |
|   \\  /    A nd           | Website:  www.openfoam.com                      |
|    \\/     M anipulation  |                                                 |
\*---------------------------------------------------------------------------*/
FoamFile
{
    version     2.0;
    format      ascii;
    arch        "LSB;label=32;scalar=64";
    class       volScalarField;
    location    "0.0949388";
    object      k;
}
// * * * * * * * * * * * * * * * * * * * * * * * * * * * * * * * * * * * * * //

dimensions      [0 2 -2 0 0 0 0];

internalField   nonuniform List<scalar> 
47425
(
0.268555
0.29966
0.287949
0.294233
0.431102
0.289406
0.390744
0.29661
0.366887
1.51199
0.306244
0.322245
0.336357
0.288549
0.27988
0.310561
0.283553
0.303343
1.02843
0.485754
0.291462
0.282681
0.29275
0.287732
0.290647
0.26743
0.271599
0.761151
0.269415
0.273955
0.283502
0.31562
0.356124
0.273215
0.263719
0.283739
0.277964
0.363339
0.280312
0.289733
0.34389
1.00509
1.10837
0.3784
1.7122
0.314318
0.307176
0.350646
0.278002
0.269144
0.720252
0.571345
0.267288
0.934687
0.344611
0.346054
0.271776
0.270912
0.366354
0.28186
0.86809
0.805586
0.943565
0.292225
0.364462
0.272338
0.341094
0.337922
0.899509
0.285453
0.281446
0.264833
0.267378
0.286791
0.992791
0.368709
0.98225
0.28382
0.817315
0.488715
0.994644
0.289251
0.280351
0.348596
0.360959
0.293868
0.264939
0.261167
0.482683
0.538492
0.28043
0.314411
0.270292
0.362387
0.373625
0.354226
0.268943
0.272718
0.29032
0.345959
0.334344
0.389801
0.284324
0.404679
0.277639
0.34135
0.295764
0.301201
0.489582
0.30658
1.46198
0.318148
0.396394
0.338995
0.29858
0.750784
0.294192
0.578761
0.314758
0.304264
0.302895
0.362698
0.342883
0.316899
0.334963
0.360653
0.294691
0.364887
0.337705
0.270015
0.278551
0.300264
0.453755
0.324572
0.734356
0.313335
0.280247
0.36622
0.289703
0.283751
0.354005
0.326233
0.308312
0.427844
0.306081
0.366223
0.401252
0.339848
0.341189
0.361577
0.432686
0.73396
0.360297
0.740411
0.296972
0.294931
0.305796
0.857683
0.321813
0.299825
0.305273
0.268337
0.262107
0.283661
0.716699
0.773142
0.337723
0.993187
0.31739
0.814626
1.16992
0.322448
0.353842
0.285498
0.317961
0.341985
0.778613
0.268105
0.269686
0.270158
0.78193
0.264544
0.267402
0.267815
0.269184
0.336702
0.289002
0.375001
0.331985
0.275243
0.357974
0.275004
0.372442
0.365297
0.269243
0.286502
0.360532
0.294413
0.299413
0.266553
0.30623
0.358056
0.440823
0.288667
0.300864
0.364741
0.266617
0.284087
0.346483
0.361897
0.270346
0.280192
0.352098
0.296207
0.279244
0.273522
0.286387
0.568206
0.303123
0.352902
0.489269
0.272369
0.624606
0.278561
0.384048
0.470566
0.270446
0.291395
0.31696
0.351502
0.286271
0.288036
0.315203
0.36937
0.353411
0.302031
0.530417
0.304041
0.493022
0.350855
0.319825
0.264913
0.268366
0.277263
0.274052
0.362565
0.282241
0.35755
0.267895
0.280224
0.271892
0.46171
0.277463
0.365695
0.291499
0.269313
0.286626
0.349671
0.285987
0.357613
0.366002
0.352128
0.297462
0.348337
0.344378
0.330442
0.270302
0.342418
0.27244
0.310391
0.302613
0.481849
0.532812
0.275769
0.47166
0.361796
0.47358
0.404754
0.518127
0.487346
0.847951
0.265306
0.928763
0.344412
0.286063
0.279617
0.333635
0.301738
0.350566
0.313948
0.709449
0.287342
0.371308
0.272504
0.284085
0.299595
0.289849
0.276135
0.307883
0.326452
0.304498
0.264611
0.299017
0.277079
0.844906
0.764763
0.718463
0.269138
0.267673
0.276272
0.292726
0.72992
0.297177
0.307786
0.559626
0.311092
0.327886
0.356311
0.294801
0.620857
0.520701
0.290701
0.297676
0.264596
0.307836
0.269387
0.297699
0.267584
0.269132
0.275739
0.281492
0.995477
0.291727
0.277929
0.383801
0.269391
0.905957
0.310259
0.265873
0.274898
0.285919
0.285563
0.26548
0.284774
0.263555
0.2739
0.272711
0.278598
0.281957
0.307743
0.289214
0.272383
0.298003
0.289606
0.293056
0.305714
0.295091
0.280772
0.296766
0.360265
0.315592
0.302738
0.290169
0.294758
0.27481
0.290763
0.348746
0.358444
0.314295
0.282228
0.3399
1.07672
0.280689
0.284846
0.385664
0.283281
0.492242
0.355639
0.364436
0.279147
0.357607
0.28363
0.269114
0.355244
0.321491
0.364513
0.291218
0.284768
0.349717
0.29102
0.287583
0.288409
0.298537
0.27816
0.277742
0.28582
0.316488
0.289282
0.36044
0.266862
0.589477
0.267942
1.06852
0.300367
0.338301
0.326689
0.269818
0.330326
0.269429
0.304523
0.285911
0.508876
0.770129
0.266678
0.302756
0.286194
0.286288
0.294018
0.280747
0.282287
0.338757
0.297971
0.275663
0.289227
0.294573
0.270728
0.411008
0.285359
0.287886
0.447422
0.348936
0.278372
0.563796
0.367897
0.346443
0.362195
0.663131
0.269516
0.285044
0.285794
0.285089
0.572629
0.299108
0.266264
0.271686
0.290021
0.2904
0.295054
0.276095
0.683546
0.553193
0.457767
0.356379
0.35698
0.445654
0.268571
0.283128
0.325067
0.282335
0.355171
0.363124
0.377802
0.284163
0.369613
0.288032
0.291234
0.302733
0.28744
0.287028
0.282672
0.348575
0.357668
0.36733
0.305593
0.305808
0.314571
0.283546
0.855594
0.36052
0.359957
0.344928
0.316728
0.693248
0.298018
0.267743
0.300713
0.350141
0.326964
0.298726
0.312862
0.276755
0.293599
0.269747
0.297914
0.399971
0.265227
0.312499
0.316613
0.322865
0.269044
0.269096
0.271452
0.277951
0.279061
0.297921
0.277024
0.271283
0.283067
0.292336
0.294258
0.308566
0.296006
0.269434
0.30552
0.267031
0.269384
0.27945
0.303334
0.309684
0.302287
0.363305
0.375393
0.689219
0.28451
0.278511
0.323492
0.365735
0.416524
0.417908
0.30882
0.279315
0.31515
0.398318
0.315878
0.42382
0.362381
1.48707
0.307463
0.309778
0.273873
0.416416
0.270354
0.280001
0.28416
0.388111
0.269366
0.264523
0.987346
0.273789
0.326792
0.268738
0.398577
0.262777
0.272849
0.381506
0.369779
0.285637
0.267279
0.24889
0.268122
0.286238
0.268191
0.267587
0.264996
0.34229
0.414029
0.286696
0.333468
0.285577
0.269494
0.488712
0.280761
0.331097
0.171878
0.285803
0.269993
0.227716
0.706907
0.294666
0.182169
0.201203
0.271229
0.346964
0.265867
0.275443
0.361928
0.308244
0.95212
0.284016
0.312396
0.268077
0.421713
0.337654
0.369484
0.292438
0.778996
1.91434
0.281174
0.30134
0.320832
0.289823
0.34311
0.354247
0.317717
0.308031
0.378945
0.277115
0.359112
0.43248
0.307744
0.27908
0.43689
0.32878
0.281922
0.297461
0.31996
0.272704
0.361918
0.331314
0.319929
0.343278
0.272746
0.297128
0.899672
0.288223
0.36488
0.78185
0.745575
0.270511
0.35433
0.668139
0.321766
0.378486
0.802105
0.376793
0.721633
0.26829
0.266459
0.354825
0.466449
0.381506
0.375569
0.266139
0.350919
0.274071
0.29489
0.26366
0.314994
0.283694
0.804082
0.645363
0.310977
0.301572
0.319882
0.285573
0.374336
0.351687
0.35241
0.360589
0.342618
0.287582
0.308719
0.354472
0.275628
0.343772
0.333207
0.909905
0.519757
0.308835
0.279961
0.347274
0.26886
0.862181
0.281133
1.49248
0.325796
0.406265
0.315016
0.294078
0.313726
0.27413
0.318097
0.286335
0.266726
0.380703
0.345415
0.368556
0.355539
0.344755
0.924934
0.315414
0.363236
0.338415
0.363677
0.270145
0.321657
0.307874
0.354155
0.341378
0.298177
0.327374
0.291963
0.313847
0.28354
0.277544
0.431154
0.497288
0.279319
0.397203
0.277643
0.296566
0.285581
0.26988
0.581727
0.267247
0.291266
0.286984
0.267979
0.600119
0.886659
0.29016
0.333928
0.27086
0.317943
0.269117
0.296791
0.297275
0.508893
0.295318
0.268898
0.289165
0.272125
0.288379
0.281386
0.264321
0.292157
0.269321
0.264276
0.291698
0.491548
0.268452
0.242314
0.600415
0.512687
0.253034
0.299404
0.805642
0.320133
0.302701
0.455977
0.241048
0.746791
0.309796
0.276077
0.440297
0.307874
0.508179
0.290943
0.321566
0.277279
0.2741
0.397335
0.34769
0.288056
0.314226
0.300441
0.338616
0.348331
0.37843
0.442898
0.422002
0.778821
0.925655
0.829669
0.555863
0.583189
0.3631
0.34149
0.27665
0.269078
0.316912
0.278506
0.301665
0.312382
0.329562
0.270275
0.310282
0.346993
0.27019
0.359938
0.300337
0.269325
0.344967
0.269806
0.278375
0.28158
0.318625
0.38134
0.272634
0.269162
0.279052
0.339683
0.330457
0.467664
0.395268
0.269152
0.316913
0.265116
0.274323
0.276167
0.321561
0.33852
0.478322
0.290354
0.276623
0.27822
0.358576
0.854911
0.287811
0.287754
0.35398
0.314151
0.34293
0.310589
0.29588
0.3768
2.43861
0.402186
0.840979
0.366857
0.35387
0.264792
0.364348
0.275472
0.309115
0.303127
0.276826
1.7915
0.385416
0.327041
0.75876
0.335582
0.262852
0.291999
0.366039
0.276588
0.314939
0.196408
0.273544
0.350662
0.353558
0.373516
0.677741
0.355511
0.334175
0.445781
0.278242
0.283607
0.396292
0.480806
0.3089
0.370145
0.400027
0.313428
0.282242
0.277551
0.301823
0.336512
0.335119
4.27234
0.637978
0.327704
0.51842
0.477091
1.11702
1.39459
0.461963
0.345697
0.360762
0.373541
0.340015
3.16401
0.276912
0.296257
0.372762
0.220196
0.303465
0.367064
0.339003
0.271373
0.365937
0.425061
0.363484
1.56174
0.265169
0.341899
0.376584
0.365703
0.357266
0.34985
0.37481
0.407215
0.311221
0.326604
0.414987
0.291809
0.279708
0.303644
0.375176
0.273612
0.371036
0.343274
0.337019
0.590801
0.828093
0.277663
0.3635
0.286912
0.36189
0.347916
0.606256
0.511896
1.17589
0.279456
0.329468
0.291866
0.800652
0.293071
1.85881
0.388756
0.368903
0.441512
0.529042
0.299177
0.280944
0.283577
0.291808
0.411506
0.291813
0.358772
1.29984
0.341492
0.271763
0.277206
0.612743
1.12548
0.45661
0.498557
0.885385
0.37952
0.326042
0.349523
0.288291
0.421613
0.348773
0.364842
0.978022
0.295724
0.275136
0.280408
0.357108
0.347351
0.365893
0.302915
0.283999
0.416219
0.278899
0.316155
0.283914
0.352838
0.343062
0.338978
0.308344
0.299314
0.284186
0.356942
0.292259
0.291844
0.301662
0.284713
0.337887
0.401871
0.31466
0.331399
0.279278
1.59823
0.362027
0.346178
0.309534
0.85896
0.769551
1.33964
0.302118
0.313896
0.300942
0.721285
0.327151
0.304278
0.340832
0.336721
0.363445
0.869691
0.344802
0.283435
0.34112
0.317245
0.267471
0.521964
0.93816
0.289732
0.979718
0.322154
0.59667
0.508252
0.305805
0.329717
0.353702
0.590337
0.324027
0.301294
0.301942
0.669104
0.462872
0.574646
0.294143
0.306647
0.274316
0.286531
1.6237
1.52073
0.326541
0.324092
0.353951
0.882497
0.277925
0.270543
2.47373
1.39352
0.355628
0.28246
0.813596
1.55364
1.25835
0.360192
0.810531
1.53387
1.03402
0.306546
0.400395
0.398562
0.302691
0.303531
1.63175
1.28163
0.320866
0.328394
0.345079
0.285754
0.303157
0.314492
0.422239
0.326888
0.366938
0.277064
0.38214
1.59493
0.940448
0.28756
0.516718
0.396631
0.30756
0.452661
0.271202
0.324274
0.288648
0.304236
0.375822
0.277463
0.709249
0.288154
0.784144
0.512384
1.00233
0.390886
0.416802
0.321586
0.350946
0.364373
0.495497
1.0267
0.341413
1.06485
0.460217
0.682153
0.426913
0.808354
0.652427
0.298757
0.378099
0.920099
0.32756
0.27913
0.284328
0.796087
0.669444
0.287895
0.301719
0.588327
0.358888
1.12387
0.741567
0.338006
0.406146
0.988237
0.334068
0.291037
0.859755
0.282362
0.801705
0.743837
0.280618
0.276752
0.295722
0.271561
0.356444
0.288952
0.283763
0.348076
0.353906
0.422861
0.301605
0.288359
0.466531
2.09238
0.73356
0.317057
0.304902
0.508318
0.283141
0.931779
0.321573
0.319608
0.348665
2.18696
0.327132
2.11566
0.37542
0.451032
0.303984
0.751521
0.559477
0.59307
0.388114
0.486168
0.331391
0.363526
0.346158
0.537834
0.317578
0.415022
0.737492
0.388159
0.405655
0.901017
0.313549
0.287589
0.636777
1.61469
0.369853
0.30673
0.35933
0.379488
1.12852
1.15094
0.272325
0.290103
0.359141
0.804676
0.355932
0.529176
0.33543
0.346816
0.352531
0.434195
0.317698
0.543947
0.574681
0.311471
0.340023
0.392159
0.304112
0.838673
2.04019
0.306842
0.782562
0.809724
0.376772
0.695217
0.360612
0.326454
1.01006
0.329405
1.18452
3.01455
0.295057
0.332244
0.399319
0.365345
0.353173
0.35227
0.456414
0.357779
0.301623
0.350538
0.302605
0.712933
0.352507
0.325747
0.349453
0.598884
0.283227
0.767509
0.693967
0.325646
0.810668
2.09688
0.278024
0.415609
0.415455
0.337719
0.308766
0.474078
0.896783
0.451527
1.19777
0.283356
0.70048
0.410212
0.27077
0.342499
0.345453
0.44538
0.303284
0.34626
0.520753
0.272053
0.522532
0.336312
1.41184
0.358654
0.271881
0.331468
0.475736
0.320938
0.737678
0.403464
0.289614
0.619621
0.279976
0.310803
1.29143
0.267985
0.350623
0.651911
0.309959
1.12688
1.10735
0.347329
0.356402
0.279123
0.83097
0.469083
0.927101
0.74948
0.370374
0.306351
0.383757
0.971168
0.951682
1.34305
0.335612
0.357545
0.324185
0.29019
0.364242
0.664091
0.347173
0.329936
0.311677
0.274045
0.293119
0.35307
0.282835
0.348864
0.346073
0.380274
0.278714
0.344829
0.528179
0.298897
0.276553
0.355221
0.320472
0.359399
0.273282
0.307627
0.316621
0.286515
0.375958
0.51259
0.336859
0.287937
0.276369
0.269587
0.478944
0.301627
0.298406
0.463317
1.00012
0.656258
0.285762
0.45495
0.424467
0.371564
0.408621
0.379587
0.389143
0.344536
0.287407
0.344946
0.347799
0.287879
0.351175
0.363543
0.331672
0.285318
0.290022
0.340363
0.458746
0.331672
0.371581
0.759646
0.346477
0.633118
0.362628
0.810946
0.265802
0.346878
0.317049
0.279488
0.288605
0.36588
0.272676
1.24032
0.515021
0.763969
0.334316
0.867488
0.282187
0.305606
0.485475
0.29424
0.740974
0.383111
0.569506
0.332324
0.932998
0.893481
0.285801
0.268845
0.878191
0.293349
0.905568
0.318065
0.338122
0.283612
0.278752
0.277891
0.294143
0.311438
0.650815
0.360741
0.385256
0.301001
0.326602
0.267437
0.355008
1.25539
0.346855
1.35857
0.588147
0.286573
0.356303
0.302251
0.308303
0.301901
0.32684
0.328165
0.362906
0.312091
0.275639
0.31005
0.341126
1.25342
1.41801
0.308798
0.323839
2.12867
0.319528
0.274061
0.274329
0.270519
0.312562
0.355707
0.400063
0.377934
0.302595
0.28419
0.354914
0.269062
0.265509
0.287602
0.663704
0.382623
0.76421
0.701166
0.75854
0.284617
0.2771
0.277447
0.272458
0.272287
0.585238
0.298427
0.265609
0.292706
0.344123
0.288679
0.395865
0.28479
0.357564
0.405333
0.299661
0.27399
0.283224
0.301462
0.304933
0.282407
0.311925
0.296289
0.462389
0.299272
0.350193
0.386271
0.297331
0.300916
0.278915
0.305482
0.290026
0.338497
0.374003
0.286449
0.264602
0.292056
0.293629
0.289176
0.327938
0.270663
0.319807
0.283084
0.290786
0.780623
0.288693
0.379043
0.262934
0.27579
0.604848
0.289618
0.343094
0.269765
0.280353
0.323798
0.350234
0.685636
0.366211
1.41634
0.272791
0.281373
0.341427
0.269416
0.264239
0.374428
0.304218
0.265044
0.26696
0.949291
0.385727
0.606645
0.336542
0.490421
0.362045
0.283723
0.381942
1.63813
0.33772
0.28878
0.286375
0.727501
0.280546
0.292228
0.302505
0.301458
0.394344
0.71437
0.283906
0.298779
0.347455
0.29931
0.325517
0.826658
0.738273
0.281145
0.275559
0.270264
0.325581
0.313488
0.268977
0.73291
1.24971
0.277426
0.32786
0.79955
0.285675
2.03057
0.404844
0.268973
0.280385
0.275726
0.286439
0.53179
0.303304
0.3035
0.287952
0.322093
0.29088
0.361543
0.56935
0.362926
0.441613
0.45561
0.413395
0.536083
0.327184
0.387718
0.359231
0.379195
0.316098
0.289307
0.749846
0.538364
0.377901
0.318856
0.360539
0.319264
0.309524
0.233698
0.267469
0.267827
0.357061
0.349904
0.445007
0.372211
0.780693
0.656291
0.296679
0.37789
0.283894
0.285972
0.365123
0.274866
0.294788
0.273966
0.268464
0.218298
0.217334
0.269476
0.405443
0.657732
0.987212
0.310623
0.268218
0.430033
0.454756
0.766497
0.296308
0.768958
0.861539
0.993282
0.848143
0.361398
0.270663
0.267208
0.360613
0.791532
0.269024
0.372716
0.315182
0.269429
0.45226
0.413265
0.395303
0.304399
1.22709
0.271669
0.280009
0.304045
0.30876
0.53184
0.618618
0.292372
0.428234
0.276219
0.329651
0.305905
0.830664
0.353672
0.802314
0.371897
0.797938
0.352731
0.445688
0.710049
0.474961
0.380213
0.382691
0.670337
0.35251
0.353862
0.351742
0.343767
0.360714
0.340956
1.204
0.465401
0.303182
0.543413
0.533432
0.538129
0.284965
0.278854
0.611208
0.601536
0.772719
0.297695
1.06997
0.283531
0.976291
0.614904
0.488984
0.663464
0.27792
0.321089
0.279375
0.326759
0.325247
0.469115
0.390693
0.276856
0.298967
0.338523
0.302222
0.276838
0.268301
0.421596
0.271267
0.266355
0.305621
0.376933
0.389231
0.304427
0.337067
0.346272
0.351537
0.511395
0.389506
0.287646
0.286471
0.441361
0.51377
0.290379
1.97696
0.313103
0.378118
0.969444
0.349349
0.289048
0.27274
0.444193
0.296079
0.266665
0.343388
0.291999
0.279773
0.290116
0.276273
0.346207
0.304648
0.304795
0.280009
0.333719
0.616924
0.283172
0.297132
0.286519
0.294734
0.376687
1.1288
0.293718
0.278763
0.306792
0.522573
0.25897
0.319634
0.302139
0.779822
0.326934
0.366545
0.350814
0.362458
0.330675
0.3361
0.290489
0.461178
0.353047
0.339435
1.34158
0.295858
0.370092
0.327059
0.319039
0.35347
0.390778
0.292723
0.336519
0.276138
0.314106
0.304644
0.326535
2.97854
0.282288
0.373843
0.37597
0.343893
0.588008
0.323583
0.682808
0.351955
0.516953
0.630052
0.307777
0.276332
0.387447
0.347851
0.306928
0.27694
0.71511
0.410678
0.332732
0.912704
0.604148
0.286366
0.444954
0.351866
1.21735
0.832129
0.353909
0.374574
0.464586
0.56003
0.429525
0.877169
0.211384
0.582489
0.296694
0.524567
0.354493
0.362118
0.382914
0.348314
0.304119
0.338083
0.544962
0.295618
0.347308
0.34618
0.448905
0.69866
0.375549
0.682038
0.312285
0.987933
0.373324
0.374643
0.788927
0.520075
0.669295
0.570956
0.599338
0.497608
0.450932
0.415057
0.328768
0.346881
0.348731
0.703451
0.325433
0.324729
0.290357
0.448136
0.34118
0.283378
0.783962
0.457733
0.466183
0.150096
0.383552
0.308216
0.33427
0.321753
0.340831
0.328175
0.26325
0.31144
0.358226
0.151285
0.144387
0.441518
0.317299
0.392005
0.374427
0.411922
0.359604
0.342908
0.323748
0.124996
0.328232
0.359484
0.129533
0.360099
0.813814
0.549746
0.314907
1.55441
0.376815
0.425314
1.02374
0.382195
0.365998
0.280463
0.53848
0.269973
0.278238
0.319478
0.35166
0.345684
0.309666
0.587453
0.353608
0.424808
0.288822
0.376398
0.359556
0.268347
2.32995
0.462249
1.08786
0.409684
0.283568
0.867235
0.44182
0.276628
2.29114
0.278525
0.274136
0.436165
0.417581
0.92069
1.07066
0.311061
0.621601
0.867578
0.379834
0.600245
0.92695
1.07871
2.31604
0.33717
0.330304
0.528867
0.595191
0.386426
0.889181
0.321969
0.296748
0.467791
0.31951
0.278546
0.369791
0.696475
0.627306
0.269763
0.458897
0.283523
0.379545
0.306895
0.376391
0.554106
0.381799
0.732829
0.351377
0.360678
0.675953
0.27887
0.285668
0.399975
0.278313
0.320228
1.07301
0.297248
0.822921
0.747296
0.752472
0.795658
0.376378
0.350156
0.277214
0.271387
0.372347
0.282126
0.28973
0.384205
0.29002
0.362668
0.879541
0.278469
0.470747
0.276417
0.420644
0.328639
0.780462
0.345009
0.417697
0.282746
0.303082
0.394835
0.275393
0.299634
0.293853
0.278766
0.471632
0.297488
0.348733
0.319173
0.285363
0.338594
0.305429
0.349347
1.00671
0.298571
0.285371
0.282209
0.344773
0.126625
0.565818
0.421878
0.622606
0.970469
0.194968
0.380033
0.0680946
0.16095
1.211
0.360455
0.488994
0.220677
0.660547
0.645661
1.14052
0.319166
0.297121
0.491964
1.26779
0.306177
0.343901
0.403128
0.372474
0.366608
0.353955
0.896086
1.46078
0.161113
0.332006
0.127986
0.330787
1.35486
0.292272
0.322155
0.295659
0.282916
0.394683
0.293875
0.522856
0.40165
0.317994
0.367258
0.294001
0.493296
0.602323
0.291773
0.384775
0.322206
0.777402
0.403558
0.339877
0.487386
0.464326
0.271862
0.27384
0.338131
0.285618
0.657402
0.277725
0.386656
0.53741
0.298842
0.304055
0.294504
0.293858
0.547756
0.366637
0.465536
0.285247
0.291433
0.406733
0.54636
0.290411
0.31806
0.288738
0.28226
0.556141
0.396842
0.705049
0.303162
0.283796
0.389127
0.348941
0.307231
0.292411
0.342699
0.35883
0.491789
0.277898
2.00896
0.360611
0.359786
0.280291
0.356014
0.79273
0.923669
0.346876
0.805865
0.335113
0.945572
0.369392
0.63092
0.41597
0.493219
0.377067
0.299206
0.331895
0.367013
0.498004
0.337038
0.321794
0.879993
0.374529
1.75552
0.373237
0.304958
0.359593
0.54522
0.378976
0.28032
1.09795
0.280191
0.304356
0.2811
0.341971
0.691245
0.423978
0.326626
0.449104
0.345903
0.302844
0.297047
0.325247
0.366542
0.386588
0.356854
0.31195
0.310599
0.353116
0.307159
0.273531
0.339779
0.311679
6.71417
0.333918
0.403225
0.305098
0.351788
0.319633
0.36207
0.277097
0.336549
0.312499
0.309542
0.347334
0.74567
0.269653
0.841216
0.423283
0.391243
0.379798
0.309295
0.382508
0.392329
0.715613
0.289402
0.307225
0.311749
0.440643
0.331259
0.275765
1.16016
1.61866
0.620226
0.274846
0.282213
0.454266
0.352969
0.353594
0.441162
0.364427
0.298981
0.319051
1.66825
0.276723
0.498294
0.272409
0.297042
0.368738
0.292383
0.371057
0.401336
0.278469
0.5329
0.351229
0.344676
0.38752
0.881079
0.291676
0.35995
0.328155
0.347812
0.315335
0.326434
0.272813
0.262768
0.374465
0.52212
0.357878
0.327413
1.43754
0.36103
0.544316
0.358353
0.383028
0.34592
0.3234
0.775025
0.307413
0.468929
0.329379
0.355006
0.315101
0.343162
0.509029
0.404923
0.294052
0.562155
0.376929
0.563817
0.683358
1.53415
0.284941
0.396713
0.377686
0.230738
0.343561
0.226872
0.388349
0.215201
0.341493
0.818127
0.350057
0.553255
0.598189
0.325453
0.198348
0.373509
1.08363
0.446369
0.593909
2.08309
1.30623
0.657582
0.720563
0.283021
0.33625
0.680265
0.342551
0.908116
0.32884
0.737967
0.693938
0.302128
0.349782
0.299939
0.268031
0.335423
0.270929
0.636581
0.372381
0.342153
0.490049
0.302232
0.338293
0.284589
0.29394
0.331513
0.312525
0.371893
0.27162
0.360419
0.816497
0.282087
0.28298
0.307646
0.280355
0.848498
1.15297
0.349489
0.389742
0.471577
0.277804
0.265776
0.300253
0.315018
0.297125
0.302055
0.301178
0.285786
0.560515
0.292587
0.3171
0.295775
0.274206
0.277483
0.867834
0.293959
0.312565
0.304895
0.389733
0.344165
0.307864
0.590798
0.356659
0.295263
0.340781
0.336155
0.331241
0.380478
0.35589
0.288733
0.365784
0.346591
0.291724
0.307633
0.328632
0.392556
0.401939
0.29711
0.311439
0.352988
0.382405
0.418752
0.527008
0.89309
0.83857
0.312148
0.277751
1.22055
0.465058
0.511569
0.284528
0.280064
0.294331
0.271825
0.292139
0.277551
0.285399
0.303918
0.283164
0.284095
0.294979
0.284021
0.276031
0.486353
0.326421
0.308035
0.28732
0.298741
0.538643
0.282443
0.292574
0.358985
0.997708
0.459688
0.374181
0.362234
0.281815
0.312079
0.419569
0.610559
0.348356
0.292902
0.351484
0.292635
0.300008
0.318633
0.37756
0.339486
0.294379
0.348256
0.376491
0.556821
0.34249
0.707194
0.53663
0.360607
0.348776
0.305963
0.304052
0.350493
0.272948
0.297927
0.532946
0.285499
0.318362
0.671433
0.326679
0.347292
0.383008
0.339076
0.296797
0.326137
0.281287
0.323089
0.66528
0.331694
0.379449
5.23348
0.520478
0.914907
0.750905
0.297834
0.297615
0.461754
0.277832
0.487104
0.435396
0.627427
0.369858
0.272904
0.754005
0.274015
0.476032
0.365324
0.294198
0.651433
0.987943
0.278609
0.281214
0.807612
0.27709
0.286601
0.283025
0.276467
0.340083
0.529403
0.520652
0.305126
0.72237
0.303566
0.29417
0.3015
0.776369
0.297816
0.816853
0.277799
0.314504
0.282122
0.376866
0.33477
0.437028
0.282074
0.622289
0.421136
0.424182
0.636506
0.303652
0.297613
0.912116
0.397996
0.314449
0.373427
0.995724
0.302957
0.378758
0.318726
0.523564
0.355013
0.284358
0.276036
0.406849
0.296116
0.342297
0.306228
0.279254
0.30186
0.287111
0.28832
0.325357
0.743345
0.309721
0.288625
0.287864
0.296736
0.309951
0.343422
0.270839
0.351347
0.390575
0.371808
0.364819
0.293946
0.328078
0.285234
0.337209
0.86838
0.353288
0.66103
0.299441
3.64598
0.318548
0.418172
0.359575
0.307441
0.366541
0.282328
0.287579
0.325279
0.341115
0.26649
0.290994
0.275288
0.585531
0.275014
0.292175
0.322614
0.656274
0.100398
0.294056
0.721641
0.792763
0.536034
0.513816
0.792149
0.113933
0.362401
0.139579
0.325965
0.450661
4.09718
0.346299
0.33046
0.272564
0.277143
0.694937
0.304513
0.344096
0.953789
0.353117
0.582929
0.340824
0.530703
0.281946
0.348628
0.332074
0.271036
0.364343
0.268605
0.314885
0.985815
0.891668
1.07757
0.398954
0.897454
0.28966
0.267837
0.283637
0.34511
0.273692
0.324216
0.2819
0.362638
0.3594
0.27375
0.280922
0.343576
0.274634
0.305948
0.338309
0.310281
0.336154
0.438283
0.293143
0.323951
0.756704
0.325088
0.723374
0.72411
0.327036
0.365456
0.279774
0.417243
0.307122
0.323015
0.713444
0.279729
0.330749
0.307062
0.317253
0.294153
0.286803
0.43559
0.453655
0.3755
0.31157
0.734599
0.333171
0.582486
0.541313
0.360507
1.05526
0.398549
0.328881
0.300767
0.351536
0.340256
0.306905
0.281688
0.328206
0.164648
0.520954
0.174511
0.283778
0.31126
0.37652
0.124669
1.16978
0.328059
0.357582
0.343403
0.139338
0.347222
1.2676
2.88715
0.341063
0.281745
0.365532
0.449741
0.287992
0.327244
0.361139
0.290563
0.349585
0.299842
0.930352
0.324447
1.63917
0.386048
0.832293
0.334549
1.80836
1.05084
0.802475
0.301246
0.319685
0.392086
0.359931
0.286018
0.342432
0.302295
0.736533
0.279349
0.405727
0.667135
0.27771
0.275095
0.293292
0.317326
0.329512
0.360466
0.340075
0.371961
0.371664
0.301305
0.377381
0.307977
0.396771
0.302219
0.349991
0.285044
2.6246
1.55868
0.336895
0.399411
0.268757
1.72213
0.270221
0.270775
0.338216
0.269448
0.35678
0.342042
0.263518
0.267114
0.334468
1.95525
0.518808
0.370891
0.735171
0.277996
0.361218
0.304965
0.35956
0.72946
0.361042
0.747419
0.266222
0.297681
0.703525
0.78906
0.302726
0.31225
0.552713
0.377035
0.313598
0.423728
0.338073
0.348179
0.361846
0.352099
0.26412
0.36323
0.337606
0.419102
0.276379
0.344238
0.268415
0.318322
0.800045
0.850084
0.287868
0.423126
0.304285
0.338461
0.29366
0.467414
0.29009
0.30188
0.31507
0.330247
0.38603
0.347604
0.425215
0.323091
0.271046
0.322388
0.278829
0.330961
0.279307
0.462008
0.397686
0.317988
0.5193
0.308259
0.27335
0.336456
0.282814
0.357216
0.559894
0.296644
0.375426
0.354971
1.13289
0.347237
0.331511
0.361241
0.639842
0.362054
0.469021
0.332665
0.351547
0.482907
0.365853
0.334298
0.738617
0.393523
0.363187
0.301586
0.283934
0.483459
0.295597
0.9822
1.41863
0.375887
0.369464
0.357432
0.419323
0.389829
0.334188
0.74199
0.417204
0.56686
0.278228
0.376948
1.17167
0.422714
0.308015
0.410965
0.291864
1.26279
0.334329
0.342505
0.292249
0.270198
0.279693
0.315136
0.285689
5.04342
0.277284
0.609574
0.273603
0.371139
0.33143
0.45938
0.311294
0.316349
0.301362
0.632039
0.408606
0.440842
0.284995
0.281768
0.395428
0.324239
0.311164
0.278416
0.275502
0.272231
0.296498
0.273617
0.331002
0.275792
0.503793
0.376674
1.43481
0.678828
0.515307
0.487983
0.339744
0.34731
0.271519
0.511868
0.288434
0.291921
0.287522
0.401348
0.436175
0.289602
0.366282
0.699206
0.434165
0.278756
0.282295
1.65393
0.727611
0.335762
0.771198
0.76721
0.557552
0.68699
0.496896
0.680052
0.352973
0.55026
0.678703
0.275078
0.28095
0.268762
0.414781
0.537674
0.289529
0.273092
0.350689
0.319432
0.375794
0.679728
0.417284
0.895813
0.336404
0.285251
0.300694
0.285259
0.320897
0.633815
0.964041
0.862643
0.711966
0.313903
1.36426
0.512379
0.306977
0.486039
0.417001
0.68264
0.365364
0.419809
0.684201
0.668845
0.416325
0.809034
0.43683
0.78503
0.345093
0.292201
0.359628
1.10875
0.70437
0.339492
0.301762
0.480304
0.387867
0.517666
0.31418
0.335825
1.06339
1.37732
0.165688
0.390924
0.1549
0.276137
0.160017
0.323436
0.411312
0.522972
0.145001
0.378159
0.43611
0.109179
0.404646
1.20775
0.35654
0.328319
0.793638
0.28915
0.430366
0.282032
0.271678
0.286726
0.293934
0.792436
0.626648
2.13203
0.337678
0.335189
0.574843
0.323091
0.34842
0.354934
0.314359
0.294994
0.506952
0.379922
0.341115
0.283689
0.365266
0.351125
0.664942
0.401616
0.715823
0.902788
0.691877
0.373698
0.348888
0.673267
0.237826
0.474978
0.312267
0.335644
0.282598
0.719931
0.562189
0.610865
0.624029
0.536674
0.280509
0.371572
0.811903
0.724714
0.334791
0.355728
0.398362
2.01479
0.304506
0.278885
0.361688
0.308633
0.803341
0.367611
0.534641
0.606292
0.958076
2.14596
0.472056
0.394814
0.73318
1.09781
0.7819
0.512011
0.869172
0.876094
0.461642
0.327838
0.390609
0.356454
0.267985
0.294739
0.373097
0.447903
1.75839
0.335767
0.380606
0.396835
0.365338
0.417342
0.4937
0.424143
0.346194
0.371961
1.01909
0.989859
0.137926
0.344828
0.307366
0.323254
1.69187
0.837718
0.361423
0.525623
0.295419
0.377415
0.409605
0.4916
0.293909
0.293787
0.292675
0.340311
0.845145
0.398505
0.31501
0.749105
0.282295
0.8946
0.661189
0.412157
0.642704
0.3219
0.278724
0.310586
0.279396
0.344781
0.343276
0.293421
0.308991
0.294931
0.278845
0.437165
0.473411
0.658384
0.28313
0.412811
0.313185
0.341507
0.301453
0.45344
0.307169
0.297764
0.292567
0.281232
0.284807
0.285514
0.400458
0.276789
0.316569
0.320445
0.539314
0.285016
0.337481
0.440192
0.717466
0.964357
0.335749
0.756858
0.386314
0.323894
0.300458
0.470141
0.302286
4.44385
0.362254
0.288512
0.37296
0.367061
0.355487
0.395788
0.649929
0.926525
0.385073
0.790418
0.297376
0.27081
0.342193
0.280943
0.276196
0.357025
0.276555
0.284614
0.516723
0.286673
0.173973
2.4629
0.511914
0.277139
0.279095
0.511259
0.297866
0.289623
0.51736
0.292815
0.680683
0.3457
0.730013
0.277426
0.480014
0.385043
0.58882
0.281196
0.382263
0.283762
0.978088
0.364327
0.276761
1.2969
0.373939
0.448076
0.307675
0.332135
0.373675
0.274586
0.442326
0.274735
0.286317
0.285719
0.392498
0.550533
0.290156
0.282571
0.285328
0.281921
0.292873
3.78282
0.277506
0.398432
0.276135
0.501507
0.315745
0.319281
0.318277
0.411515
0.296611
0.363949
0.269692
0.29998
0.294118
0.304311
0.277663
0.382589
0.353064
1.04886
0.929835
0.716475
0.34509
0.29777
0.296548
0.275684
0.28188
0.968905
0.564044
0.347076
0.321683
0.271954
0.291664
0.266502
0.281687
0.462679
0.459282
0.685068
0.869684
0.321118
0.361814
0.348226
0.277898
0.502939
0.340026
0.402949
0.348276
0.312231
1.00365
0.36359
0.270167
0.297085
0.353241
0.292667
0.430392
0.277195
0.532557
0.326196
0.826064
0.435243
0.688027
0.284847
0.294051
0.308742
0.374406
0.316946
0.358234
0.287268
0.278418
0.281211
0.287416
0.354883
0.523155
0.323444
0.773693
0.366511
0.3148
0.455162
0.381688
0.36145
0.22262
0.964488
0.790349
0.200292
0.275369
0.282116
0.775551
0.308974
0.359424
0.330298
0.318935
0.241064
0.343337
0.345228
0.280073
0.366768
0.296752
0.917771
0.468369
0.383999
0.26371
0.347794
0.35128
0.304785
0.283054
0.817543
0.793477
0.331263
0.695613
0.294332
0.277389
0.346553
0.291662
0.823031
0.273617
0.274703
0.279217
0.589947
0.276467
0.312165
0.400495
0.404473
0.275188
0.295367
0.295651
0.300456
0.288169
0.331051
0.31817
0.522384
0.377866
0.351721
0.511969
0.343258
0.54851
0.316536
0.794504
0.39262
0.211148
0.574202
0.106158
0.380136
0.461147
0.517197
0.344171
0.277468
0.279068
0.280198
0.340723
0.741
0.35837
0.275119
0.332717
0.326173
0.265156
0.426108
0.297813
0.35366
0.407846
0.294921
0.285223
0.307812
0.29909
3.05172
0.893771
0.336819
0.341051
0.372049
0.336896
0.728721
0.849586
0.906603
0.702974
0.328049
0.293932