/*--------------------------------*- C++ -*----------------------------------*\
| =========                 |                                                 |
| \\      /  F ield         | OpenFOAM: The Open Source CFD Toolbox           |
|  \\    /   O peration     | Version:  2506                                  |
|   \\  /    A nd           | Website:  www.openfoam.com                      |
|    \\/     M anipulation  |                                                 |
\*---------------------------------------------------------------------------*/
FoamFile
{
    version     2.0;
    format      ascii;
    arch        "LSB;label=32;scalar=64";
    class       volScalarField;
    location    "0.0949388";
    object      nut;
}
// * * * * * * * * * * * * * * * * * * * * * * * * * * * * * * * * * * * * * //

dimensions      [0 2 -1 0 0 0 0];

internalField   nonuniform List<scalar> 
47425
(
0.00454233
0.00454405
0.00411939
0.00188899
0.00285948
0.00420251
0.00391836
0.00302882
0.00742777
0.00303038
0.00231709
0.00738802
0.00467091
0.00373534
0.00298725
0.00362868
0.00424699
0.00216238
0.000228508
0.00243572
0.00355384
0.00662862
0.00291282
0.0047277
0.00661142
0.00624628
0.00360715
0.000449649
0.00396204
0.00512281
0.0068256
0.00714129
0.00745914
0.00408749
0.00477077
0.00440092
0.00660518
0.00537819
0.0043296
0.00399132
0.00490921
0.00672689
0.00513836
0.00260976
0.000967286
0.00317149
0.0033123
0.00451837
0.00362236
0.00587332
0.000590709
0.00233718
0.00560472
0.00137573
0.00315318
0.00287598
0.0061822
0.00479011
0.00241641
0.00475296
0.00108331
0.000645381
0.00139664
0.00263536
0.0073849
0.00619142
0.00555474
0.00386074
0.00115571
0.00476629
0.00366177
0.0051058
0.00550891
0.00325902
0.00185106
0.00746319
0.00139708
0.00361675
0.000207536
0.00167596
0.00176457
0.00456179
0.00673625
0.00742906
0.00513279
0.00370068
0.00490982
0.00479278
0.00370288
0.00131554
0.00667708
0.00426388
0.00684518
0.0031939
0.00256518
0.0018441
0.00586744
0.00524289
0.0033583
0.00447587
0.00556448
0.000871988
0.0055805
0.000883537
0.0057053
0.00649834
0.00536259
0.00327822
0.00547139
0.00704609
0.0039801
0.00515275
0.0049791
0.00221451
0.00705974
0.000313464
0.00707707
0.00067891
0.00416695
0.00500743
0.00384853
0.0074714
0.00590228
0.00227129
0.00353129
0.00605573
0.0035611
0.0074179
0.00327354
0.00675153
0.00638016
0.00327864
0.00092305
0.00280495
0.00565446
0.00399858
0.00594589
0.00580396
0.00429936
0.00301516
0.00499002
0.00246729
0.00451297
0.0042095
0.00608807
0.00742414
0.00320823
0.00542155
0.00232992
0.00499667
0.00417266
0.000518919
0.00738985
0.000391258
0.00258131
0.00361729
0.00259028
0.000282119
0.00365491
0.00436025
0.00713291
0.00629535
0.00535738
0.00639334
0.00112166
0.000377117
0.00743189
0.0017927
0.00304944
0.000741403
0.00189862
0.00392615
0.00479058
0.00290097
0.00463
0.00113557
0.000361541
0.00393334
0.00526331
0.00659604
0.000293655
0.00518854
0.00456352
0.00603992
0.00606312
0.00696052
0.00521985
0.000992207
0.00227702
0.0047042
0.00746955
0.00392144
0.00458868
0.00474269
0.00614398
0.00696587
0.00582726
0.00424994
0.00712328
0.00325523
0.00474205
0.00292875
0.00509503
0.00695289
0.00216073
0.00232879
0.00516562
0.00686715
0.00400368
0.00747105
0.00438328
0.00432947
0.00745915
0.00322232
0.00441463
0.00436155
0.00381306
0.00207179
0.0029203
0.00379939
0.00160275
0.00231568
0.00415999
0.00295197
0.00234157
0.00155141
0.00622684
0.00231639
0.00675007
0.00368005
0.00405673
0.00412909
0.00318651
0.00748888
0.00218277
0.00335917
0.00149893
0.0028408
0.00166558
0.00197649
0.00391638
0.00452808
0.00665999
0.00280661
0.00629558
0.00733161
0.00421142
0.00590018
0.00634406
0.00374116
0.00655731
0.00193149
0.00426592
0.00742026
0.00325205
0.00668982
0.00661641
0.00296836
0.00311238
0.00739659
0.00299078
0.00745955
0.00384155
0.00261913
0.00475149
0.00379387
0.00641667
0.00408205
0.00441346
0.0038595
0.00384627
0.00185985
0.00158
0.00579955
0.00192775
0.00204977
0.0019313
0.000500146
0.00161649
0.000539399
0.00106355
0.00451885
0.00109433
0.00287572
0.00369895
0.00340935
0.00328934
0.00340205
0.00394733
0.00715445
0.000680131
0.00449179
0.00737543
0.0049567
0.00430316
0.00317864
0.002692
0.00608036
0.00476862
0.00457661
0.00364411
0.0061287
0.00364914
0.00470048
0.000866584
0.0007729
0.000498383
0.00670472
0.00568654
0.00657565
0.00305227
0.000760289
0.00355134
0.00273057
0.00174178
0.00444037
0.00320543
0.00297729
0.00322639
0.00133036
0.00187559
0.00692695
0.00503865
0.00574057
0.00395653
0.00648856
0.00389897
0.00427017
0.00517716
0.00395121
0.00345557
0.00095638
0.00337938
0.00386046
0.00297231
0.00665649
0.000785348
0.00630668
0.00596026
0.00536153
0.00670078
0.00663777
0.00575614
0.00563173
0.00516105
0.00562989
0.00474023
0.00619053
0.00345351
0.00386657
0.00661578
0.00616412
0.00494836
0.00641591
0.00650399
0.00232091
0.00380251
0.00676376
0.00635474
0.00385723
0.00179519
0.00505834
0.00394317
0.00319813
0.00582698
0.00607309
0.00273325
0.00743423
0.00476807
0.00659596
0.00269833
0.00133069
0.00366626
0.00681958
0.00192608
0.00678319
0.00426597
0.00382727
0.00502322
0.00660231
0.00563146
0.00665872
0.00642924
0.0048145
0.00388851
0.00439929
0.00363129
0.00556195
0.0071739
0.00366391
0.00529136
0.00540751
0.00386715
0.00496228
0.00437884
0.00593141
0.00515344
0.00340677
0.00318685
0.0055709
0.00107974
0.00617798
0.00235424
0.00451216
0.00333688
0.00331046
0.00599892
0.00232295
0.00608844
0.00338314
0.00588809
0.00116324
0.000912933
0.00626796
0.00232044
0.00368825
0.00344376
0.00363679
0.00389638
0.00359676
0.00390386
0.00461253
0.0058362
0.00295907
0.00424544
0.00582765
0.0037443
0.00376601
0.00561894
0.000807057
0.000324099
0.00638935
0.000442773
0.000412758
0.00392409
0.00039723
0.000979371
0.00583072
0.00367419
0.00389084
0.00372132
0.000989204
0.00361385
0.00546253
0.00578808
0.00398829
0.00374042
0.00382259
0.00352357
0.00126699
0.000730615
0.00113915
0.00543748
0.00088085
0.00350103
0.00470537
0.00667247
0.00479566
0.00672632
0.00422912
0.00478985
0.00284693
0.00416238
0.0074896
0.00364814
0.00497041
0.00410894
0.00683336
0.00452929
0.00434069
0.00523069
0.0056292
0.00338504
0.00266574
0.00498906
0.0039604
0.00674792
0.00140362
0.00277633
0.00178881
0.00744304
0.00246475
0.00271367
0.00263752
0.00647898
0.00348166
0.00740266
0.00486013
0.00253464
0.0031198
0.003346
0.00282996
0.00493362
0.00218738
0.000783499
0.00575126
0.00141314
0.00558176
0.00141922
0.00545562
0.00541707
0.0062941
0.00414152
0.00472799
0.00279938
0.00462271
0.00610692
0.00616406
0.00532843
0.00411955
0.00252433
0.00323454
0.00672415
0.00520365
0.0042553
0.00465832
0.00481268
0.00458679
0.00433496
0.00221844
0.00472287
0.00372038
0.00061028
0.00482569
0.00415977
0.0061889
0.00741179
0.00157991
0.00213318
0.00423562
0.00527793
0.00410018
0.00362101
0.00683675
0.00201456
0.00747828
0.0058715
0.00211767
0.0025295
0.00481289
0.00265531
0.00691245
0.00396749
0.0039977
0.00490306
0.00654671
0.00521819
0.000901984
0.00446987
0.00233569
0.00618737
0.00185985
0.00569258
0.00475335
0.0018366
0.00221838
0.00424947
0.00618217
0.000675852
0.00497337
0.00500023
0.0048717
0.0057314
0.00616306
0.00198806
0.00286615
0.00557222
0.00433463
0.00431966
0.00650833
0.00170517
0.00653149
0.00482206
0.000386774
0.00413446
0.00667545
0.000726242
0.00117992
0.00705352
0.000297901
0.000313642
0.00397195
0.00744585
0.00524863
0.00646782
0.00425998
0.00366459
0.00131698
0.00681341
0.00258791
0.00558852
0.00182712
0.00209777
0.00433117
0.00452415
0.00173291
0.0065451
0.00554943
0.00327185
0.00322421
0.00224028
0.00290263
0.00291651
0.00667284
0.00323892
0.00285124
0.00285385
0.00532507
0.00279219
0.00291927
0.00596797
0.00238217
0.00358781
0.00371406
0.00259193
0.00326857
0.0040818
0.00492961
0.00522332
0.00147817
0.00507652
0.00598043
0.00548588
0.000267289
0.0036845
0.00437412
0.000476298
0.000726482
0.00670627
0.00464469
0.00013719
0.00198398
0.000696622
0.00246451
0.00315409
0.000802187
0.00459884
0.0056709
0.00590922
0.00263687
0.00335451
0.0033283
0.00589722
0.00305004
0.0041447
0.00363929
0.00553719
0.0041003
0.00350543
0.00171075
0.000899135
0.00265199
0.00262033
0.00384892
0.0050987
0.00341998
0.00741649
0.00605393
0.0056784
0.00526678
0.0049766
0.00183723
0.00469464
0.00593644
0.00170864
0.00186213
0.00142227
0.00107115
0.00373242
0.00675526
0.00473911
0.00647328
0.00139739
0.00415978
0.00138204
0.00403451
0.00345765
0.0045698
0.00443311
0.00544352
0.00319063
0.00165285
0.00330591
0.00472984
0.001866
0.00381366
0.00748587
0.00401613
0.00391996
0.00201562
0.00458765
0.00182264
0.00321763
0.00747321
0.00617888
0.00238201
0.00389179
0.00330362
0.00743286
0.0048813
0.00386494
0.00420755
0.0039457
0.00368113
0.00438399
0.000800061
0.000552858
0.00403657
0.000714923
0.0042288
0.00273395
0.00324783
0.00576496
0.00401933
0.00444176
0.00378702
0.0038142
0.00610686
0.000516987
0.00212059
0.00318487
0.00506619
0.00599135
0.00360133
0.00486585
0.00228563
0.00700846
0.00163592
0.00383728
0.00637036
0.00390242
0.00601291
0.00503431
0.00416932
0.00536009
0.00337811
0.00671194
0.00577878
0.00331518
0.000908376
0.00668425
0.000748995
0.00199775
0.00189043
0.00070299
0.00397959
0.00343466
0.00187868
0.00300491
0.000731388
0.00079526
0.000850628
0.00299376
0.00446162
0.00297349
0.00279217
0.000767575
0.0023622
0.00350482
0.00498626
0.00401591
0.00366156
0.00308907
0.00529285
0.00402352
0.00116722
0.00176125
0.00555466
0.00246468
0.000982398
0.000635105
0.00423223
0.000626176
0.0017618
0.000606682
0.000776946
0.00449997
0.00294085
0.00649822
0.00605653
0.0046074
0.000687152
0.00112203
0.00455349
0.00466948
0.00671448
0.000876357
0.000849297
0.00670604
0.00219154
0.00347819
0.00668253
0.00214544
0.00672053
0.00676108
0.00399867
0.00457068
0.00141046
0.00593128
0.00661709
0.00468789
0.00506587
0.00503517
0.000919181
0.00181798
0.00652315
0.00112689
0.00562917
0.00601343
0.00595101
0.00171119
0.0044009
0.00261454
0.00248584
0.00518953
0.00657884
0.0011414
0.000597933
0.00419383
0.00364245
0.00183768
0.0050423
0.00560949
0.00284858
0.00259921
0.00294507
0.00824947
0.00247099
0.00101824
0.0074237
0.000981026
0.00472499
0.0038195
0.00624069
0.0019282
0.00253119
0.00640106
0.00490027
0.00111412
0.00295955
0.00235514
0.00430066
0.00486039
0.00431844
0.00367146
0.00411945
0.00289047
0.000641428
0.00423339
0.00242448
0.0017447
0.00173125
0.00097854
0.00168895
0.0039313
0.000509442
0.00645068
0.00622173
0.00361228
0.00242112
0.00364831
0.00125311
0.00119629
0.00310174
0.00407718
0.00407682
0.00303529
0.00347351
0.0038078
0.0110007
0.00147536
0.00371366
0.00309469
0.00231899
0.0018952
0.00591282
0.000517613
0.00382143
0.00537197
0.00386731
0.00380325
0.0123434
0.00617475
0.00300363
0.00386328
0.000632338
0.00260239
0.00467109
0.00354238
0.00518609
0.00342854
0.000701022
0.00462404
0.00293453
0.00499634
0.00163929
0.00286743
0.00376016
0.00546097
0.00528977
0.00357869
0.00234579
0.00360255
0.0014924
0.000699202
0.0048944
0.00644596
0.00439907
0.000937025
0.00484445
0.00258692
0.00650707
0.00161684
0.00138933
0.00310748
0.00283521
0.00434286
0.00637148
0.00514757
0.00309865
0.00124362
0.0019628
0.00121495
0.00590706
0.00202072
0.00218859
0.00275087
0.00338194
0.00613654
0.00166119
0.00161816
0.00325954
0.000800508
0.00339028
0.00336383
0.00400031
0.00450233
0.00314834
0.00440812
0.00109758
0.0048938
0.00448045
0.00395982
0.00555533
0.000712085
0.00304537
0.0006368
0.00143283
0.000758005
0.00203021
0.00371798
0.00116494
0.00329089
0.00114571
0.00194199
0.00199053
0.00226423
0.00267959
0.00475385
0.00398801
0.00746824
0.00129163
0.00365685
0.00326988
0.00400591
0.00120833
0.00540948
0.0042087
0.00572557
0.00746033
0.00284019
0.00162461
0.00282274
0.00286081
0.0047539
0.00226255
0.00648198
0.00303088
0.0029645
0.0060083
0.00211842
0.00209906
0.00401816
0.00183425
0.00356566
0.00365715
0.00200908
0.0028516
0.00297696
0.000202413
0.000713049
0.00235615
0.0007159
0.00318814
0.00303295
0.000549199
0.00086358
0.00432343
0.000935194
0.00323854
0.00419403
0.000570964
0.00255253
0.00645824
0.00309395
0.00128835
0.00539741
0.000623043
0.000319725
0.00214234
0.000775566
0.00216274
0.000859787
0.000809144
0.00509385
0.00438862
0.00270138
0.00163393
0.00359165
0.00682027
0.0018689
0.000657919
0.00359938
0.00150682
0.00411057
0.00195414
0.00588063
0.00554011
0.00351694
0.00312906
0.00407153
0.00159697
0.00459733
0.0014828
0.00654263
0.00529888
0.00576988
0.00308299
0.004899
0.00664229
0.00072737
0.00246212
0.00226734
0.00366069
0.00253577
0.00317607
0.00128335
0.00389473
0.00100996
0.00297644
0.0047951
0.00293231
0.00354465
0.00079648
0.00179877
0.00157933
0.00587657
0.00435766
0.0018298
0.00391328
0.00293259
0.00499026
0.00740451
0.00590695
0.00383989
0.00368357
0.000765707
0.00352164
0.000470741
0.00365326
0.00430441
0.00290391
0.0047828
0.00364315
0.00387353
0.00417543
0.00191512
0.00529041
0.00131826
0.00685497
0.000342341
0.00135677
0.00151185
0.00195316
0.0041279
0.00523662
0.00343347
0.00456998
0.000584043
0.00071776
0.00333489
0.00213257
0.000973805
0.000850493
0.002254
0.0010986
0.000705799
0.00338556
0.00432398
0.000533068
0.00373742
0.00416025
0.0039853
0.00104447
0.000452849
0.0037129
0.00324311
0.00119918
0.00238262
0.00221474
0.000707558
0.00319388
0.00101746
0.00113385
0.00309325
0.00412824
0.00126884
0.0053185
0.00226003
0.000222583
0.00676764
0.00406256
0.00362611
0.00481256
0.00295145
0.00292227
0.00686056
0.00291658
0.00404125
0.000746922
0.00146723
0.00415234
0.00136025
0.00888176
0.000369899
0.00641001
0.00334264
0.00208077
0.00474638
0.00093358
0.00379815
0.00294472
0.00232872
0.00528114
0.00383252
0.00665598
0.00209027
0.000630228
0.00537742
0.00173154
0.000649471
0.0025617
0.00337511
0.000917194
0.0015502
0.00478142
0.00463171
0.000958704
0.00174709
0.00234502
0.000777234
0.002586
0.000843791
0.00322875
0.00266435
0.0020696
0.000949442
0.00740211
0.00474037
0.00204025
0.00428487
0.00255693
0.00368117
0.00210956
0.00469875
0.00326929
0.00575608
0.00147158
0.00560391
0.000588456
0.00213165
0.00556556
0.00739773
0.00184666
0.00150931
0.000801705
0.0017359
0.00181386
0.00101263
0.000802987
0.00389221
0.000893703
0.00526003
0.00272202
0.000376416
0.00141387
0.00308877
0.0032745
0.005613
0.00132676
0.00135268
0.00142903
0.003546
0.00817483
0.00670245
0.00161828
0.00316293
0.00379483
0.00627761
0.000939064
0.00258356
0.0015015
0.00395627
0.00140612
0.00385098
0.00270769
0.00101386
0.00177069
0.00232303
0.00227052
0.00523533
0.00038421
0.00157829
0.00140845
0.00136181
0.0082295
0.0049753
0.000957151
0.000736811
0.00159496
0.00248402
0.00248375
0.00177029
0.00212776
0.00163782
0.00507567
0.00120766
0.0012233
0.00501355
0.0010805
0.00327848
0.00228813
0.00262036
0.00115876
0.00238937
0.00529084
0.000620016
0.0032348
0.000604815
0.00256468
0.00342839
0.00291997
0.00171909
0.00116256
0.0024161
0.00349392
0.00277039
0.00113388
0.00365752
0.00403186
0.000658041
0.00627245
0.0035268
0.000785997
0.00319592
0.00331568
0.00301956
0.00234531
0.00107871
0.0034275
0.000145722
0.00241449
0.0007672
0.00366123
0.00103807
0.00246506
0.000838508
0.00140692
0.00153902
0.00431489
0.0038819
0.00741053
0.00388484
0.00344043
0.00284957
0.000666729
0.00375522
0.00595149
0.00382117
0.00455495
0.00271589
0.00415359
0.00667844
0.00745235
0.00293417
0.000884671
0.00631516
0.00274282
0.00212253
0.00507418
0.00599998
0.00278385
0.00199928
0.00747109
0.00511629
0.00320493
0.00344489
0.00518532
0.00387981
0.00111349
0.00384978
0.00304684
0.00511968
0.00645154
0.00187396
0.00457871
0.00574585
0.000828783
0.00248524
0.000907485
0.00591578
0.000833244
0.000399075
0.00484116
0.000383736
0.00073371
0.00048041
0.00385457
0.00435068
0.00423723
0.0012743
0.00673042
0.00433832
0.00441408
0.00375632
0.00258666
0.00333722
0.00336622
0.000958273
0.00422965
0.00262112
0.000758254
0.00400478
0.00029356
0.00152194
0.00117484
0.00570895
0.0029816
0.00186234
0.0055344
0.00435577
0.00192708
0.00632755
0.0029321
0.00150244
0.000506097
0.00665532
0.00142141
0.00467535
0.0028984
0.00204872
0.00474769
0.00126549
0.00421338
0.00195403
0.00425522
0.00124868
0.000269607
0.00366952
0.00646996
0.00212835
0.00445912
0.00102183
0.00374047
0.00364702
0.00414352
0.00392279
0.0050647
0.00691331
0.00356963
0.00206927
0.00475287
0.00218338
0.00380316
0.00375972
0.00664051
0.00229564
0.00416344
0.00393844
0.00585572
0.00418565
0.00414549
0.00302929
0.00400048
0.0042573
0.00557378
0.00226125
0.00255339
0.0074721
0.00373553
0.00342373
0.00483296
0.00373417
0.00471877
0.00422532
0.00392827
0.00376004
0.00617679
0.00374094
0.0053519
0.00438593
0.00589945
0.00196875
0.00218968
0.00196174
0.00361907
0.00448994
0.00388739
0.00110536
0.00476966
0.0045714
0.00508903
0.00137592
0.00296421
0.00117488
0.00118939
0.00121414
0.00285383
0.00421921
0.00380683
0.00392512
0.00577673
0.0011604
0.00371942
0.00581205
0.00388369
0.00309241
0.0037743
0.00159423
0.0037666
0.0023226
0.00264549
0.00323566
0.00571037
0.00415632
0.00353374
0.00362085
0.00427674
0.00288218
0.00309952
0.00243849
0.00352836
0.00508194
0.00492336
0.00204665
0.00183754
0.00437936
0.00396712
0.00222457
0.00361775
0.00224558
0.00544235
0.00470448
0.00221561
0.00436143
0.00531015
0.00448637
0.00636051
0.00556339
0.00326903
0.00408922
0.00217894
0.00416604
0.00213135
0.0052894
0.00405205
0.00102515
0.00379717
0.00413194
0.00459844
0.00477671
0.00382993
0.00417472
0.000295833
0.00344383
0.00524192
0.00546303
0.00478828
0.00489167
0.00665507
0.00558878
0.00348227
0.00391549
0.00558789
0.00610792
0.00294958
0.00094753
0.00118978
0.00291258
0.00172732
0.00348366
0.00366814
0.00351705
0.00349186
0.00189903
0.00310029
0.00377905
0.000794304
0.00450995
0.00378109
0.00367035
0.00381299
0.00502376
0.000277476
0.00438272
0.00344297
0.00743038
0.00252428
0.00225505
0.000391802
0.000210701
0.0043378
0.00527966
0.00644897
0.00378284
0.00350273
0.00452715
0.00019066
0.00219001
0.00444109
0.00245317
0.00112675
0.00453297
0.00941474
0.00323988
0.00642722
0.00468379
0.00598289
0.00401565
0.00248411
0.00370091
0.00404909
0.00467685
0.00169987
0.00402851
0.00743715
0.00156773
0.00571885
0.00300719
0.00254656
0.000998187
0.00147876
0.00332891
0.00287962
0.00466041
0.00284779
0.00276128
0.00537353
0.000564808
0.00146936
0.00287974
0.00367776
0.00339964
0.0036971
0.00367413
0.00110035
0.00661415
0.00605095
0.00574164
0.00538212
0.000780379
0.00115713
0.0011726
0.00170621
0.00271435
0.0028797
0.00677489
0.00616372
0.00454906
0.00460987
0.00480327
0.00515827
0.00663819
0.00103956
0.000687008
0.00659814
0.00505579
0.00230732
0.00286075
0.00259932
0.00649267
0.00407112
0.00188981
0.000854997
0.00327668
0.00194722
0.00262487
0.00161887
0.000533879
0.00307002
0.00561077
0.00647204
0.00617169
0.000853843
0.00483275
0.00435008
0.00401561
0.00672478
0.000757083
0.000417729
0.000408359
0.00159669
0.00528142
0.00554191
0.00629956
0.00194642
0.00344341
0.000850045
0.000837112
0.000756534
0.000531953
0.000761194
0.00152602
0.00644808
0.000718262
0.00739758
0.000316307
0.00390475
0.00073879
0.00444161
0.00156008
0.00569216
0.00280273
0.00224757
0.00225489
0.00414785
0.00559502
0.00398863
0.000819686
0.000952546
0.00500284
0.00516241
0.0004502
0.000494352
0.00339316
0.00145801
0.000834117
0.00147195
0.00430103
0.00635771
0.000943804
0.000868183
0.00137788
0.00703081
0.00139355
0.00579105
0.000918626
0.00113748
0.000635768
0.00220939
0.00535802
0.00134397
0.00621812
0.00459617
0.00364497
0.00201609
0.00480104
0.00332375
0.00387555
0.00368463
0.00395404
0.00560899
0.0058334
0.00303475
0.00621895
0.00526636
0.00402543
0.00379093
0.00138968
0.00364639
0.00229639
0.00392566
0.00436869
0.00414737
0.000880815
0.00329042
0.00318302
0.0017462
0.000529758
0.00401417
0.00519265
0.00278301
0.000878641
0.00190538
0.00116118
0.00425077
0.00591532
0.00385455
0.00322431
0.00502366
0.00323678
0.00299475
0.00345278
0.00631585
0.00426763
0.00408266
0.00421912
0.00303265
0.00390155
0.00352827
0.000603591
0.00327568
0.00383043
0.00394376
0.00276596
0.00100261
0.00317208
0.00337489
0.00425272
0.00298612
0.00109619
0.00109
0.00364377
0.00309315
0.000347534
0.00145743
0.00200669
0.00396145
0.00143688
0.00306255
0.00390304
0.00237938
0.00102329
0.00461907
0.00396922
0.00322953
0.00604386
0.00230388
0.00261257
0.00299847
0.00332888
0.00194431
0.0038521
0.00584156
0.00645781
0.00159896
0.00313552
0.00357323
0.00620421
0.00461738
0.000739697
0.00293936
0.00332156
0.000413317
0.0015843
0.00550763
0.00337032
0.000931286
0.00150526
0.00220372
0.00658162
0.00287915
0.000942626
0.00425114
0.00667858
0.000632388
0.0016424
0.00121532
0.00214473
0.00464926
0.004266
0.00144199
0.000542879
0.000729987
0.00460529
0.00491478
0.00055556
0.00449347
0.00183523
0.00292463
0.00144731
0.000932084
0.00470691
0.00323959
0.00107556
0.00393293
0.00508289
0.00442713
0.00353252
0.00516935
0.000804686
0.000272721
0.00309187
0.00350017
0.000662077
0.00047576
0.0006287
0.00184817
0.00100823
0.00178847
0.000488089
0.00352553
0.00353175
0.000846203
0.00204525
0.00208941
0.00114787
0.000940509
0.000417504
0.00516239
0.00477896
0.000707419
0.00621189
0.00415957
0.000740396
0.00492134
0.00316427
0.00383431
0.00262145
0.0049188
0.00578757
0.000430152
0.000656897
0.00237048
0.000603367
0.00234542
0.00338833
0.00420397
0.00403915
0.00313639
0.00412472
0.00466904
0.00368411
0.00404342
0.000603542
0.000557418
0.00364319
0.001538
0.00371227
0.0041521
0.0024762
0.00346522
0.00357302
0.00416537
0.000383476
0.000989889
0.00412254
0.000536948
0.00276685
0.0013465
0.00263878
0.00326167
0.00138083
0.00276855
0.000979151
0.00267304
0.00287594
0.00287649
0.00570968
0.00110887
0.00658916
0.00502807
0.00213887
0.00417818
0.00136968
0.00317781
0.0022611
0.00337962
0.000772497
0.00369885
0.00340569
0.00362504
0.0064474
0.00654916
0.00280096
0.00193151
0.000415898
0.00266547
0.000742823
0.00277183
0.0040838
0.00522278
0.00421134
0.00456403
0.00389476
0.00315022
0.00111403
0.00211657
0.00108251
0.000563052
0.00245374
0.00396244
0.000155301
0.00075395
0.00645546
0.00687769
0.00111275
0.0037371
0.000648326
0.000419415
0.002653
0.000668513
0.00119698
0.00258185
0.000675581
0.00151394
0.00509593
0.00348345
0.00092973
0.00119433
0.00532421
0.000868739
0.00571691
0.00262926
0.00389155
0.0026183
0.00164888
0.000746997
0.000904802
0.005892
0.005689
0.000218316
0.00649623
0.00430996
0.00108852
0.00523523
0.0026828
0.00400825
0.00284587
0.000501415
0.00124421
0.000897581
0.00158988
0.00315235
0.000995771
0.00534218
0.00445378
0.000910375
0.00624976
0.00350795
0.00260127
0.00480624
0.0011638
0.000589978
0.00614168
0.00211612
0.00639948
0.000670523
0.00365154
0.000533109
0.00273306
0.00336592
0.00490498
0.00240645
0.00263702
0.00571522
0.00378781
0.00309104
0.00627152
0.00137552
0.00313862
0.00340737
0.00583638
0.00349855
0.00339579
0.00218038
0.00280458
0.00210827
0.00283314
0.00310464
0.00332483
0.00129171
0.000509647
0.000720597
0.000645236
0.00104023
0.000776035
0.00079565
0.00245843
0.000178984
0.000576658
0.00196515
0.00158969
0.0022921
0.000870091
0.000904334
0.00198322
0.0014893
0.00194393
0.005603
0.00230005
0.00208986
0.00360825
0.000845441
0.00322611
0.000647284
0.00172668
0.00105051
0.00132779
0.00140625
0.000640304
0.00163591
0.000544472
0.00256505
0.00360235
0.00357022
0.0014596
0.00473375
0.00514004
0.000837819
0.0031536
0.000904101
0.00169772
0.00502182
0.00230912
0.00377945
0.00139304
0.0010535
0.00575788
0.00450346
0.00147505
0.000931143
0.00360651
0.00262465
0.00129961
0.000994629
0.00387211
0.00638417
0.00377937
0.00385978
0.000643712
0.00661393
0.000812267
0.000344802
0.00474146
0.00221576
0.00390128
0.00291666
0.000828846
0.002712
0.000746818
0.00307196
0.00405474
0.000458684
0.000997118
0.00493773
0.00226403
0.0048979
0.00613049
0.00124959
0.00374698
0.000689574
0.00347197
0.00582574
0.00262724
0.00570941
0.0045658
0.00489533
0.00438614
0.00267989
0.00175472
0.00132196
0.0053545
0.000981751
0.00484864
0.0060688
0.0021173
0.00114484
0.000742994
0.000784861
0.00197617
0.00190536
0.000979014
0.000825425
0.000801945
0.000774374
0.00265406
0.00295417
0.0037919
0.00132414
0.00465978
0.00247072
0.00301765
0.00120142
0.000480347
0.00348142
0.00251327
0.00347541
0.00392438
0.00332946
0.00301271
0.00523188
0.00422555
0.00263519
0.00274123
0.00257368
0.00503002
0.00281185
0.00157123
0.00068982
0.00413918
0.000519461
0.00744378
0.00254347
0.00684107
0.00437908
0.000805859
0.00265461
0.00103974
0.00347284
0.00327473
0.00303745
0.00419032
0.00439066
0.004053
0.00298363
0.0151661
0.00690652
0.000700948
0.00264981
0.0010902
0.00270137
0.00103542
0.00529637
0.00438219
0.00323603
0.00367988
0.00281617
0.000882466
0.00593524
0.00447272
0.00106946
0.00246715
0.00243077
0.00230044
0.00243944
0.00212741
0.00199034
0.00436019
0.00709725
0.00602989
0.00188254
0.00132419
0.00428523
0.000461665
0.00701301
0.00158885
0.00624755
0.00569084
0.00166125
0.00435093
0.00635548
0.00085421
0.00742105
0.00389919
0.00124899
0.00426521
0.00634423
0.00114409
0.00616776
0.00700485
0.000966448
0.00252637
0.00283369
0.00067882
0.00674189
0.0016706
0.00117684
0.00151547
0.000835375
0.00109082
0.00385204
0.00582482
0.00271104
0.00550103
0.00162676
0.00276191
0.00464964
0.00516343
0.00348112
0.00110699
0.00291028
0.00408048
0.00404143
0.0033534
0.00224813
0.00738817
0.00209993
0.000984612
0.00349431
0.00312621
0.00410739
0.00340069
0.00258718
0.00432336
0.00209731
0.00302266
0.000559329
0.00350361
0.00689321
0.000885527
0.00286875
0.000630646
0.000903639
0.00665884
0.00318045
0.00108841
0.00309252
0.000639311
0.00128333
0.000543473
0.00129472
0.000617246
0.00294027
0.0013303
0.00149524
0.000492194
0.00102157
0.00275777
0.000614142
0.000672265
0.00318579
0.000313513
0.00108998
0.00520078
0.00323952
0.00141221
0.000835782
0.00681045
0.00358335
0.000868585
0.000656316
0.00101307
0.00114696
0.00141732
0.000729655
0.00265705
0.00355809
0.00408153
0.00617961
0.00298624
0.00588702
0.000895389
0.00288639
0.0041987
0.000609238
0.00361503
0.00223868
0.00402494
0.00549674
0.00305006
0.00386645
0.00173297
0.00578516
0.00158505
0.000558704
0.00435987
0.00561908
0.00308783
0.00442955
0.000994055
0.00406001
0.00477732
0.00505629
0.000506175
0.00574137
0.00314679
0.00590227
0.00149471
0.00291403
0.00410386
0.00556824
0.00472484
0.00162373
0.00335703
0.00235507
0.00699225
0.00632409
0.00617063
0.004311
0.00423155
0.00338154
0.00573598
0.00318257
0.00353273
0.00210923
0.00110655
0.000986513
0.00286944
0.00157442
0.00409216
0.00252062
0.0034451
0.00364672
0.0058619
0.00310382
0.00417221
0.00576645
0.0019347
0.00441028
0.00284096
0.000950792
0.00450386
0.0026109
0.00104497
0.00338767
0.00101635
0.00163523
0.00108541
0.000297411
0.0026441
0.00472474
0.00238513
0.000404901
0.00212815
0.00644141
0.0056251
0.0044556
0.0030875
0.00417613
0.00657927
0.0067738
0.00323097
0.00263493
0.00687052
0.00632452
0.00683429
0.00474782
0.00254277
0.00154511
0.00282489
0.0056558
0.00314166
0.000841249
0.00488957
0.00556014
0.00417479
0.000565868
0.000562317
0.0037487
0.00539697
0.00415301
0.00257909
0.00359217
0.00106835
0.00152846
0.00446829
0.0039403
0.00507076
0.00323864
0.00162075
0.00435776
0.00311357
0.00328651
0.00115709
0.00189658
0.00152305
0.000838643
0.000189189
0.00188072
0.0018561
0.00401322
0.00368499
0.00316387
0.00313618
0.00512575
0.00408161
0.00044148
0.00569085
0.00171468
0.000472564
0.00318811
0.00287154
0.000675696
0.00187726
0.00381586
0.00366747
0.00679889
0.0028397
0.00098778
0.00369166
0.00133238
0.00906737
0.00232411
0.000710638
0.000773295
0.00304389
0.0026862
0.000947719
0.00420446
0.000605227
0.000527652
0.00111174
0.0074196
0.00604207
0.000312898
0.00523133
0.00047576
0.00177231
0.00291883
0.00099224
0.00161994
0.00571278
0.00668375
0.00088714
0.00572505
0.00551327
0.00438267
0.00591322
0.00420725
0.00314105
0.00188413
0.00506771
0.000330271
0.0029894
0.00328674
0.00361817
0.000279973
0.00390117
0.000511837
0.00435389
0.00266349
0.00336523
0.00098054
0.00559032
0.00371395
0.00445283
0.000937951
0.00168503
0.00166046
0.00120055
0.00255227
0.00564919
0.000747654
0.00324807
0.00308054
0.00327543
0.00530553
0.00291934
0.00384547
0.00717937
0.000332546
0.00112564
0.00405663
0.00441113
0.00306235
0.00354442
0.00254088
0.00246461
0.00412208
0.00214754
0.00397697
0.0044522
0.00408114
0.00147552
0.00431913
0.00404848
0.00414605
0.00329482
0.00675482
0.00536789
0.00427426
0.00270497
0.0036496
0.00266292
0.0024968
0.00334949
0.000801695
0.00450441
0.00236259
0.00179401
0.00104105
0.00139487
0.00346028
0.00950161
0.00163855
0.000818079
0.00386364
0.00111717
0.00390089
0.00645892
0.00257606
0.00167727
0.00371032
0.00382969
0.00632977
0.00439883
0.000322354
0.00438184
0.00598746
0.00213628
0.000481819
0.000411812
0.00310359
0.000278742
0.00145887
0.00110307
0.00193814
0.00139567
0.000460246
0.00427258
0.000603365
0.00377173
0.00431347
0.00890036
0.000425399
0.0018632
0.00622202
0.00521044
0.000930719
0.00347986
0.000424013
0.00596621
0.0028165
0.00365424
0.0028097
0.00059015
0.00675931
0.00307569
0.00274665
0.00486129
0.00356602
0.00506677
0.00271258
0.000423273
0.000407667
0.000767878
0.00127817
0.00122999
0.00514377
0.00553385
0.0047027
0.00352388
0.0062461
0.00127294
0.00681585
0.000780916
0.00407719
0.00586629
0.00523426
0.00459739
0.00595377
0.0031136
0.00286888
0.00720359
0.00299328
0.000786491
0.00464176
0.000912299
0.000889369
0.00587507
0.000314252
0.000507869
0.00267106
0.00282367
0.00338632
0.00110757
0.00452771
0.00177708
0.00109911
0.00486596
0.00146063
0.00656428
0.00182082
0.00383396
0.00213802
0.0022568
0.000840821
0.00332799
0.00350086
0.000573804
0.00116424
0.00177354
0.00129357
0.00566131
0.00307023
0.00375678
0.0016531
0.00307103
0.00612341
0.00116097
0.00239898
0.00223996
0.00646352
0.000551403
0.000752082
0.000520148
0.00502918
0.00350241
0.000776351
0.000473611
0.00230068
0.00349326
0.00246299
0.000936526
0.000559188
0.0015709
0.00636134
0.00766371
0.00414938
0.00432633
0.00399027
0.000508921
0.00470779
0.00151577
0.00305858
0.00623381
0.00255762
0.00247614
0.00573334
0.00385084
0.00623774
0.002272
0.0024282
0.00468796
0.00716358
0.00235128
0.00254455
0.00259431
0.00187964
0.00192199
0.00353445
0.00536232
0.00523381
0.0048749
0.000679762
0.00331836
0.000834424
0.0019173
0.00342169
0.00445293
0.00310178
0.00703479
0.00237118
0.00747109
0.00186285
0.00230179