/*--------------------------------*- C++ -*----------------------------------*\
| =========                 |                                                 |
| \\      /  F ield         | OpenFOAM: The Open Source CFD Toolbox           |
|  \\    /   O peration     | Version:  2506                                  |
|   \\  /    A nd           | Website:  www.openfoam.com                      |
|    \\/     M anipulation  |                                                 |
\*---------------------------------------------------------------------------*/
FoamFile
{
    version     2.0;
    format      ascii;
    arch        "LSB;label=32;scalar=64";
    class       volScalarField;
    location    "0.0949388";
    object      omega;
}
// * * * * * * * * * * * * * * * * * * * * * * * * * * * * * * * * * * * * * //

dimensions      [0 0 -1 0 0 0 0];

internalField   nonuniform List<scalar> 
47425
(
59.1228
65.9455
69.901
155.762
150.763
68.8651
99.7214
97.9291
49.394
498.946
132.167
43.6173
72.0109
77.2484
93.6916
85.585
66.7656
46.6502
1364.95
199.429
82.0131
42.6455
100.504
60.8609
43.9614
42.8143
75.2946
678.574
67.999
53.4775
41.5351
44.1965
47.7432
66.8416
55.2782
64.4726
42.0827
67.5579
64.7431
72.5907
70.05
149.413
215.704
144.994
1698.51
99.1076
92.7379
77.6046
76.7461
45.8248
563.16
244.459
47.6899
679.41
109.29
120.325
43.9611
56.5565
76.5299
59.302
801.334
1248.23
675.598
42.8213
49.3524
43.9863
61.4059
87.5278
778.32
43.2677
76.8607
51.8691
48.5357
87.9992
536.335
49.4036
703.073
78.4737
1321.05
291.604
563.675
63.4074
41.6182
46.9233
70.3242
79.4092
53.9611
54.4917
130.354
409.331
41.9988
73.7383
39.4864
113.462
145.652
192.086
45.8366
52.0166
86.4486
77.2943
60.0853
90.6316
50.9497
94.5204
48.6634
52.5287
55.1533
91.8793
89.4805
43.5107
313.357
61.7434
79.6114
153.079
42.2934
858.241
41.5697
224.438
75.5368
60.7626
78.704
48.5449
58.0933
62.0137
94.8557
59.5556
82.7528
49.19
103.162
39.9932
43.6589
91.582
122.958
115.714
129.872
67.862
47.1329
63.0984
67.3827
94.108
70.9426
124.19
68.3167
101.638
50.2755
49.3287
125.069
62.6848
146.438
72.3635
103.695
492.802
48.7557
677.221
45.4984
81.5335
58.4867
861.716
88.0495
68.7632
42.7978
42.6246
48.9245
44.3682
434.812
783.685
45.4423
554.017
104.081
714.339
616.198
82.1283
73.862
44.906
68.6742
65.4533
714.457
68.1621
51.2389
40.9576
957.85
50.9863
58.5954
44.3408
44.397
48.373
55.3659
73.7665
145.798
58.51
47.9245
70.1285
81.1655
77.0232
43.8223
41.1293
61.8699
69.2746
42.0331
81.8844
64.5776
122.256
86.5202
41.5175
48.4974
156.623
51.6137
41.369
86.5411
48.44
61.6767
64.7174
47.2035
91.9235
63.2543
62.7121
75.1069
271.409
45.7471
92.8837
305.268
117.619
150.146
94.3644
164.013
258.852
43.4323
125.797
46.9566
62.0626
70.5669
69.7578
98.918
49.3224
161.91
89.9122
353.865
107.027
296.007
177.514
81.6635
58.5045
40.2952
98.7892
43.5309
49.4523
67.0182
60.5998
42.2277
74.903
41.4639
239.043
65.0418
49.2833
89.6356
40.2572
43.3205
117.799
91.8869
48.3484
122.377
47.205
77.4327
132.997
72.4778
87.0988
42.1249
72.529
61.7292
80.4227
78.6771
259.079
337.223
47.5501
244.668
176.505
245.214
107.455
320.527
180.206
797.285
58.711
771.131
119.766
77.3364
82.0148
101.429
88.693
88.8111
43.8814
617.811
42.1089
50.3438
54.9769
66.0178
94.2528
107.67
45.4143
64.5644
54.8376
83.5589
43.1756
81.9417
58.9471
844.78
989.473
644.975
40.1415
47.0713
42.0145
95.9044
668.645
83.6803
112.719
321.295
70.0599
102.291
119.676
91.3717
466.685
277.621
41.9666
59.0785
46.0923
77.8045
41.5173
76.3533
62.6637
51.9846
69.7859
81.4604
746.054
55.187
71.9937
129.125
40.4704
740.954
49.1954
44.6075
51.2724
42.6695
43.0208
46.1211
50.5661
51.0661
48.651
57.5311
45.0038
81.6436
79.5906
43.7158
44.1884
60.2225
45.1386
45.058
45.3204
77.6043
41.5113
46.6999
93.3999
53.1509
59.8492
73.5878
92.1659
47.1617
47.8772
127.594
48.2153
65.9167
42.788
125.967
809.147
76.5601
41.7689
200.232
41.7623
115.388
92.9223
72.5504
42.2802
63.5015
42.5953
41.8579
73.7864
82.677
82.8573
80.197
51.1993
48.7485
79.4288
47.1904
45.3803
77.1981
56.0549
63.4283
47.2757
61.4128
84.9138
69.8951
47.9028
492.139
43.3705
453.87
66.5684
101.383
98.6838
44.9777
142.201
44.2526
90.0118
45.1146
437.465
360.527
42.5463
48.6803
77.5962
83.1325
80.8453
72.0534
78.4838
86.775
64.6003
47.2333
97.7425
69.3856
46.4558
100.098
75.7722
51.235
146.19
1076.63
43.5682
280.832
891.314
88.2863
911.803
677.099
46.2235
77.5801
73.4532
76.6096
578.105
82.767
48.7438
46.9388
72.7183
73.0798
77.187
78.3565
539.503
634.851
153.975
65.5412
72.0309
127.292
57.0775
42.4323
67.7834
41.9747
83.9823
75.8111
132.705
68.2692
49.3502
78.9532
58.5934
73.6767
42.0642
63.3715
65.1216
66.6403
63.5381
108.516
114.637
61.2957
79.4292
42.0198
609.562
129.855
75.1803
46.3424
128.503
255.465
45.4455
41.3248
45.6082
47.2993
67.2748
47.9587
100.283
82.7123
46.3696
54.6753
136.197
97.3942
46.1163
48.5355
56.7228
52.3804
49.315
49.6756
43.1279
67.1132
59.0232
106.424
59.9268
44.4222
45.9221
41.7856
71.4295
122.237
43.0548
40.0697
58.7127
62.7526
57.8286
58.0654
66.1321
71.4385
50.4659
76.9246
100.902
422.161
58.9575
66.9534
52.2698
49.345
139.524
136.857
72.9103
52.9214
76.8623
110.002
46.2029
148.242
48.4578
253.269
46.0669
49.5018
56.904
132.225
39.1112
70.5739
71.0807
79.1569
41.1452
50.6924
1094.64
61.2522
139.913
43.4334
102.519
46.1613
57.4015
87.1725
72.8261
67.2171
43.2338
368.261
53.9115
57.2449
55.0507
46.6878
42.9975
56.8786
124.087
47.859
76.9311
66.111
41.4075
286.607
42.9857
68.6629
444.388
69.1269
40.4457
313.555
599.114
41.7757
611.51
641.505
68.2862
46.5982
50.6546
42.5867
84.96
84.1141
722.96
41.6849
120.714
47.9693
121.859
55.5546
85.3081
64.6393
449.53
292.485
50.6672
92.1009
99.5071
82.666
118.206
121.463
47.6135
95.103
132.906
97.1022
67.4379
141.878
50.0481
46.763
141.979
91.6379
75.9067
114.764
97.8899
66.8096
73.4171
63.4298
52.6105
67.6207
45.6064
54.1622
1279.2
61.211
79.6339
1044.64
1026.28
40.337
76.2872
1545.9
162.182
94.8773
325.462
119.462
759.449
58.3385
46.9872
60.0461
176.895
113.729
112.841
45.1296
115.054
66.1256
81.0295
47.6161
76.8222
57.7282
470.018
717.76
117.262
48.0109
83.1095
41.6245
109.456
47.4195
58.2118
63.5018
65.0526
43.2687
168.035
75.5058
46.4298
65.4044
178.939
515.343
241.938
82.744
41.4434
73.2785
41.5338
616.992
67.5836
682.23
80.7523
117.497
65.6258
66.3368
57.6329
85.9171
53.4808
86.613
56.3923
204.02
90.5731
49.2336
72.7608
87.9487
375.478
65.6458
199.291
69.194
48.6641
43.7208
135.036
79.1084
72.6317
45.9283
61.0857
67.1267
69.3903
79.5415
77.0253
63.3085
124.587
193.845
69.1972
97.212
65.6553
108.475
87.9297
46.8139
144.732
60.1669
76.9117
75.2411
43.8816
291.932
418.119
91.1057
65.913
45.2084
88.2849
55.3073
129.851
42.4166
297.705
76.9602
42.2109
74.099
45.2568
57.2828
67.4897
49.3129
86.4852
40.1257
45.7322
48.0223
163.126
40.1619
323.519
300.546
271.201
359.94
75.2348
234.562
59.0721
45.2273
141.263
303.107
399.958
103.481
61.8782
148.074
110.263
166.19
123.166
91.7496
55.6087
68.2535
108.515
112.555
54.4236
78.0971
257.398
55.9257
62.7097
153.542
117.215
113.065
184.021
758.813
470.92
216.566
239.156
80.6894
116.12
42.5732
44.4277
68.7832
405.305
168.768
68.6028
70.578
40.2525
354.058
408.565
40.2906
164.24
86.3488
40.3029
160.791
40.1465
41.1732
70.4185
69.7107
81.8737
45.9655
40.6768
59.5261
67.0532
65.6297
135.033
108.048
41.261
234.955
47.0968
45.6184
46.4067
187.916
76.9207
182.947
116.803
53.3042
42.2901
66.6231
1429.78
68.6273
79
68.3126
62.303
61.1339
109.033
113.834
127.943
295.608
99.9985
825.916
49.4171
64.1104
56.0407
66.6115
44.1414
160.313
119.757
43.2469
282.464
91.5931
71.4186
225.971
78.0303
54.0803
67.6168
70.4091
67.1421
108.958
306.204
64.6159
73.7157
202.647
215.75
692.604
210.492
85.0035
166.994
43.1338
45.5834
109.707
198.588
84.6693
82.0131
89.0971
101.049
47.6039
68.0804
99.4383
96.8795
88.0085
346.702
432.42
88.2427
167.519
205.732
589.396
235.859
197.494
90.4626
67.1564
96.5893
89.4012
256.332
44.846
46.9566
96.4886
348.225
116.61
78.582
95.6992
52.3271
106.732
125.158
78.6074
532.196
53.0727
64.9269
131.331
97.2574
65.4216
66.1371
104.734
107.879
86.389
56.1315
119.429
43.3899
43.3927
43.5652
77.5944
56.4794
143.428
52.754
208.443
277.099
266.484
97.9339
83.7005
43.4961
70.3032
112.28
487.491
260.798
697.228
44.1883
57.5794
54.2209
291.054
86.6579
302.909
234.022
227.977
135.452
214.563
88.2457
83.519
70.8888
45.507
130.706
66.199
75.3751
265.609
68.1055
68.6301
49.8991
264.409
369.571
149.802
210.1
640.801
186.936
87.6934
65.921
87.6029
101.141
179.595
183.289
322.529
45.1345
57.8764
70.3129
47.8169
61.2245
100.057
92.6378
54.0565
123.455
51.5574
75.1192
49.587
47.2952
120.788
67.8208
109.236
42.9494
44.1888
157.761
45.088
96.2904
101.758
42.9824
62.4332
93.9528
78.3095
68.7675
78.3244
437.014
180.196
121.398
103.977
1833.71
1079.24
568.571
422.011
98.4574
48.9588
1313.34
378.831
52.7591
62.4462
103.973
86.6577
393.987
135.083
43.8874
110.254
58.9184
49.5555
198.487
944.84
135.241
1263.23
148.956
250.019
628.135
60.0342
75.1299
130.934
361.298
90.2167
44.1763
44.9088
735.811
128.597
381.364
71.5576
156.922
46.6473
51.7194
461.681
486.003
80.2011
50.5525
76.9905
595.157
42.4791
51.0567
404.221
452.003
72.5918
42.5245
1019.05
631.015
554.988
98.3945
319.639
482.948
677.272
78.7077
85.9488
111.345
63.125
103.512
460.34
1291.17
63.938
60.2516
58.7211
50.9618
45.6071
80.3654
118.169
65.5052
49.5561
46.9047
99.5186
432.985
1228.21
49.7456
224.315
107.331
71.4524
155.88
56.7036
89.0093
74.518
45.1373
196.239
52.4464
538.018
42.0357
770.803
377.651
662.979
200.13
100.972
61.4111
102.213
79.7319
220.992
1430.43
102.376
395.171
173.952
518.318
163.517
735.802
641.864
88.2444
87.4424
1726.04
87.6433
48.4838
71.3442
706.284
1138.45
77.5391
51.4196
490.609
75.0758
507.45
751.947
105.829
109.743
815.971
101.27
43.078
632.067
49.9923
354.732
962.461
41.4647
68.1226
81.5535
56.4276
120.769
98.8791
41.3615
119.344
87.5732
115.101
57.341
41.4815
211.438
235.582
569.845
49.4628
91.2159
244.293
44.3254
843.911
84.6655
108.536
149.724
414.108
85.3569
317.859
179.604
144.701
56.5297
434.019
220.614
231.514
89.1321
161.002
61.8301
76.0289
74.7365
354.195
181.776
112.764
700.456
150.1
108.138
235.067
117.683
138.959
670.685
218.14
78.022
150.339
83.86
148.415
306.567
542.515
57.9568
44.7037
62.3933
417.635
63.5148
287.955
57.5793
62.3146
47.6539
162.913
53.7348
200.768
331.056
53.0382
59.0188
89.6531
78.1334
938.425
387.867
112.726
745.532
354.241
121.981
212.313
64.2458
55.4108
639.774
55.5331
334.045
368.76
44.0222
57.4776
126.25
96.2746
56.2592
69.9935
176.66
70.434
76.2393
64.979
78.5788
263.299
65.1223
183.967
150.43
263.765
54.0991
711.755
439.696
53.3141
595.289
254.801
55.8809
102.422
563.855
211.741
45.1443
190.872
506.576
212.208
608.837
55.8262
580.033
119.774
54.0077
68.7105
105.37
194.648
115.741
64.0162
217.946
51.4196
232.673
103.967
1356.39
139.844
79.303
113.518
276.736
54.7845
305.318
115.476
104.539
546.46
76.548
77.0867
1215.96
42.7241
99.4168
370.956
60.9739
339.864
366.726
148.095
68.3392
81.4363
913.891
194.278
514.675
204.707
76.4438
69.5327
98.722
690.279
618.367
311.259
86.4556
48.2483
83.4489
84.3469
127.823
318.885
92.4508
55.4377
61.3105
60.1641
43.8368
85.0037
42.3505
46.8126
117.946
78.0218
44.1341
125.721
248.844
58.9055
46.0924
127.601
63.3931
48.1053
53.4142
95.9855
91.9102
48.1365
96.9012
460.347
87.5007
48.0826
53.9817
41.7864
255.579
65.8761
51.9341
559.033
402.425
290.222
46.1208
545.998
146.549
76.7512
829.733
89.2886
810.022
89.3838
66.0602
81.4084
66.453
42.7728
80.9471
82.36
88.2972
110.304
86.9051
101.111
166.135
78.416
83.5355
437.8
86.5158
1459.47
71.2209
690.262
46.5588
116.339
170.242
50.5001
66.2581
189.863
43.0934
423.015
342.79
1075.24
50.233
610.303
60.3563
105.44
187.198
61.9753
585.524
90.9273
291.453
78.098
747.185
677.414
77.8852
41.5528
412.615
65.7863
418.988
85.0335
92.7119
68.4471
71.0597
54.8682
42.5473
87.2465
314.515
75.8995
176.449
79.1449
86.8685
40.2735
154.645
283.983
88.069
232.008
140.515
69.1289
117.619
75.5536
72.4176
54.1645
144.539
128.521
48.5681
83.5467
80.5083
64.1534
91.3523
265.625
274.483
77.6135
86.1265
344.624
85.4137
51.2081
62.5475
45.8551
158.762
162.447
203.932
104.428
67.3941
73.1058
62.9291
56.4111
58.0806
56.5141
482.372
129.081
650.459
512.668
624.755
57.8457
65.6759
72.8812
69.414
47.1352
324.686
80.2347
45.6997
75.3681
111.28
76.4856
248.312
75.6093
153.95
118.631
92.6118
47.9811
68.143
85.3097
84.2157
66.0332
108.225
95.5917
189.622
84.8191
68.9093
78.457
145.277
163.76
63.6885
77.0034
130.374
93.5656
166.551
52.6334
56.2448
131.817
67.3238
54.4573
73.0965
42.5537
57.4841
86.5956
71.1102
357.801
69.2967
88.7803
49.7096
68.0617
586.983
76.272
83.0345
58.6644
58.6917
84.5441
83.894
897.283
106.339
270.195
49.9341
58.7629
69.7977
40.4828
47.2803
107.524
77.6962
47.4319
43.7071
321.839
106.383
509.878
115.548
269.606
103.927
77.348
108.597
469.129
177.838
93.1462
75.7797
915.897
62.206
77.2866
82.4184
79.0607
78.4958
900.477
64.7785
86.7793
46.7615
118.573
54.176
872.034
963.326
64.8128
52.1926
41.9081
86.0679
89.4981
59.4141
1125.22
570.641
62.4679
133.647
489.594
63.0216
215.68
124.957
41.8491
59.8628
46.0857
71.3306
214.077
81.9539
74.955
43.4374
54.7647
72.2053
48.6131
363.168
63.4613
146.852
178.912
414.146
362.523
98.2857
134.642
77.0815
133.154
114.475
41.8937
588.142
366.394
131.227
86.6982
106.052
86.3553
84.2444
212.386
40.4389
44.2621
62.188
65.0123
135.066
72.0838
346.085
384.648
44.0613
131.225
41.9039
41.6708
80.2634
59.6255
61.3723
53.1119
40.4423
209.991
316.349
40.8413
80.1938
285.063
345.089
47.0322
41.3108
105.63
184.989
896.49
90.4296
394.9
328.222
613.567
389.079
72.3571
48.2399
41.2866
58.4302
927.023
55.6669
85.6803
78.4892
40.0651
597.372
989.314
968.028
190.644
232.342
49.0208
44.449
53.1925
82.3008
625.662
521.467
386.462
531.243
362.875
52.9798
47.4412
830.989
47.8092
871.454
95.2421
869.082
79.4152
151.276
124.741
169.464
169.166
169.716
161.611
63.0043
88.7178
67.8974
64.4424
72.102
66.0458
1279.6
692.977
89.3509
372.71
567.559
365.59
66.2552
43.8607
533.309
494.467
534.58
42.3415
767.806
48.9602
978.852
540.586
648.115
300.293
51.8699
62.1397
44.9292
71.0938
89.2318
173.491
81.3768
83.2963
77.1419
91.8743
76.4338
49.3561
45.9939
124.58
43.6194
50.5767
75.9225
99.4302
96.9295
83.4871
146.781
88.2074
80.4674
123.306
95.3674
87.4192
89.9999
148.165
969.821
58.5619
311.371
68.3493
87.487
508.794
62.8487
57.1061
46.1075
115.239
91.8273
53.0818
106.089
97.5037
81.0283
45.4836
64.7368
84.7994
72.2064
100.504
71.7687
94.5845
273.166
86.4468
77.5715
72.6513
106.558
76.1398
355.854
42.9162
65.5494
102.739
337.277
237.587
87.7208
97.6799
913.09
224.321
182.662
88.557
71.6015
107.974
86.1124
53.7611
125.923
76.4326
85.5169
415.412
48.9518
160.639
125.187
106.401
106.183
200.985
75.9904
57.6078
42.7603
52.6954
97.1591
77.974
375.95
61.1361
92.0032
127.909
103.534
833.484
56.0529
123.975
104.428
268.087
418.567
139.662
41.9855
134.57
64.2321
44.6871
41.4669
549.143
99.2151
56.4612
425.556
129.945
67.1276
142.959
636.828
1099.4
180.69
72.0092
674.228
103.391
284.14
146.865
606.07
226.787
123.752
91.5836
487.713
90.1345
71.2426
86.4925
98.6022
53.308
61.8183
338.772
43.5071
99.2262
522.869
154.512
560.761
89.0163
435.99
47.7422
1137.56
105.892
106.079
659.794
254.285
320.327
470.397
470.542
259.125
87.3494
86.8509
424.791
55.8415
83.8384
321.676
66.127
55.9059
75.7261
170.95
69.3625
48.9632
723.641
474.761
196.662
248.764
163.532
90.9638
79.5129
79.6586
108.67
79.5631
56.382
84.5359
64.1897
250.662
259.028
121.19
53.8885
105.597
83.1847
128.975
103.775
95.9715
77.7239
253.304
58.121
68.3066
241.24
130.148
604.391
208.333
96.5478
634.024
136.106
111.363
382.988
132.894
127.238
49.1207
485.61
40.9723
55.337
49.8702
84.1657
66.9835
97.4463
259.809
104.63
119.666
78.0845
110.52
99.1867
41.621
355.763
165.032
563.219
985.06
106.386
385.924
159.397
67.7379
378.242
66.1369
60.0645
111.988
132.556
692.841
505.844
53.5214
316.381
353.574
95.8585
1909.02
394.021
167.1
336.747
61.2649
88.3852
239.887
333.406
145.657
716.284
52.7566
51.2689
154.291
49.8149
47.6075
106.157
322.507
525.236
50.6672
136.552
42.5454
144.354
61.9825
143.754
336.049
93.2596
328.293
59.6362
63.3992
751.25
42.928
52.9495
102.485
53.1616
119.363
267.7
45.4898
921.465
543.743
838.333
500.452
119.396
66.0574
51.8916
60.9341
85.2213
45.142
82.5925
147.699
60.3423
68.7302
645.769
44.8048
170.043
43.1936
136.783
71.177
717.812
126.235
124.096
44.391
125.946
149.727
48.186
59.0984
95.066
44.4495
195.395
94.7832
102.347
54.6868
44.1795
99.71
45.4306
124.563
477.503
42.9725
74.2232
49.99
61.9608
248.456
213.226
121.894
460.032
859.726
245.042
82.8614
380.451
279.109
616.24
74.3951
213.339
253.625
338.216
325.562
765.81
53.5124
43.7965
213.893
606.638
52.824
406.771
124.958
423.244
80.1006
64.1908
674.872
627.748
251.62
56.4555
235.064
128.959
328.31
43.3015
195.95
62.4576
55.0416
93.7544
93.1871
286.23
98.1109
63.3224
159.047
77.7894
289.808
452.08
42.5667
85.4398
52.7546
834.89
101.723
129.494
239.841
136.493
70.2103
42.8937
89.4675
73.9987
537.449
41.9909
104.043
309.966
63.0274
49.1891
75.489
71.9927
660.866
135.191
209.922
92.8553
71.8747
886.74
500.952
58.8146
140.484
58.9514
46.0419
423.733
101.091
534.662
55.9756
48.7142
92.5211
61.1168
46.1846
59.7327
70.9628
133.897
280.267
210.217
334.198
68.0711
69.2174
46.1855
168.145
611.681
933.589
66.0773
354.091
175.879
687.68
75.2279
339.429
107.67
185.836
127.639
78.9065
250.649
78.7619
191.272
111.689
59.1613
997.007
107.579
397.431
107.394
77.7084
108.003
180.973
72.4359
66.3393
416.65
102.214
118.257
55.8844
121.618
439.938
122.854
78.9109
153.758
46.4687
62.4562
43.4211
74.2729
75.5749
145.629
67.7565
89.8254
94.8472
74.0222
73.3021
62.2983
71.6248
59.5352
429.499
48.3482
105.686
47.5243
66.024
118.323
70.9507
52.3183
76.7993
96.5687
84.1174
123.336
339.777
45.4326
188.077
395.791
158.581
156.246
49.7959
156.802
91.9248
359.542
63.268
43.2879
51.7007
182.174
53.759
64.3523
845.719
230.809
390.363
43.9926
49.5908
194.43
81.125
55.636
133.997
49.1072
76.6777
53.5665
391.13
43.6181
152.289
44.1665
42.4052
73.8799
65.8511
130.945
105.946
41.3042
318.988
62.3583
65.8199
87.0761
807.724
63.6087
61.7959
121.044
63.2267
56.43
118.191
58.6739
50.8902
107.57
210.255
122.97
80.2388
355.7
107.661
242.119
48.5037
182.4
62.5359
92.5503
247.912
48.8215
137.892
65.4338
82.1136
150.241
70.2375
552.944
115.573
42.6583
509.6
131.392
894.031
306.656
230.393
84.1482
90.9955
122.129
360.917
58.6653
417.449
91.3796
348.647
64.5856
440.178
61.1733
249.033
215.399
118.013
322.968
493.158
340.144
1060.06
544.881
318.263
403.219
421.965
321.76
41.5568
93.8368
339.623
67.9107
667.509
57.2335
520.678
606.117
113.708
98.306
73.4869
43.3734
112.323
46.0215
247.234
129.013
81.4903
184.775
83.6042
151.113
70.7063
53.4754
108.691
47.9433
214.599
46.9512
67.3756
689.471
64.7009
42.0671
99.6319
63.2921
853.573
283.982
73.1559
77.0806
169.89
48.3864
84.4595
48.8418
49.4414
101.963
73.6027
54.0885
60.4858
345.203
87.1565
53.3229
42.3004
43.359
44.9683
201.307
69.4684
92.4329
53.1549
85.2592
97.4219
54.0843
214.317
71.0192
47.1381
58.3795
82.1461
131.412
110.44
97.5916
49.2559
117.85
83.0714
50.5898
50.5685
74.5149
88.7126
100.631
65.968
119.284
64.736
93.1516
113.321
322.284
777.872
1104.89
118.055
58.7864
511.732
166.368
240.381
44.1716
49.7883
42.1786
88.0407
69.9544
42.1856
42.1327
43.7894
107.465
41.3498
46.6405
41.5582
58.1384
191.269
51.005
109.043
50.8009
95.0904
231.476
57.7643
52.6199
67.5536
1087.11
817.49
99.8161
67.118
67.858
58.6675
116.801
489.916
61.5799
65.5511
89.2023
41.7619
92.6337
48.6957
86.6409
109.034
89.572
60.8958
198.511
283.534
62.0139
2024.32
285.332
194.283
61.917
83.0296
96.1012
111.758
53.2503
72.9925
292.677
44.5712
185.668
658.932
102.468
120.943
566.835
62.8588
77.7799
88.9271
41.3725
113.776
398.474
89.8494
91.4188
430.319
223.948
1000.66
617.97
97.8464
47.0411
136.727
66.0804
184.405
150.901
564.363
49.8488
45.1674
631.53
52.3796
187.012
78.8819
100.793
656.527
609.863
48.7694
42.0742
910.355
48.3995
51.9839
64.5781
46.7541
80.8327
168.543
276.336
60.2098
568.704
101.548
50.957
83.3294
714.704
76.3401
597.236
63.8047
60.8419
83.8344
82.7916
59.8838
117.672
63.3471
548.515
116.729
121.833
530.177
118.973
52.6824
757.18
120.117
102.076
86.9197
187.677
103.776
82.5064
44.3947
264.238
72.0527
70.097
62.5771
132.855
83.5444
58.87
44.5091
67.7458
140.561
72.1935
64.759
79.7221
503.784
71.7091
71.2921
69.4308
90.0615
45.8859
63.9772
63.3651
129.89
107.019
139.624
146.115
87.7583
409.231
63.1505
55.7506
395.015
339.357
473.903
86.5368
348.146
51.4445
511.164
93.0663
275.196
93.9634
43.391
111.635
193.934
91.9368
69.5852
42.2526
62.5821
407.583
62.7623
48.7978
53.0489
1362.08
243.797
43.742
1420.35
543.407
320.256
265.108
567.575
247.547
78.6038
231.335
86.4231
104.478
376.802
814.056
61.688
43.8062
53.1899
480.538
44.0696
811.522
159.865
125.374
159.521
121.302
328.7
41.7121
113.349
120.902
55.7538
102.171
53.013
116.083
1947.08
1735.96
824.42
95.9115
729.642
42.0014
48.3998
60.3136
97.9346
43.818
54.612
41.3595
73.1794
88.1491
46.665
53.6698
74.7329
46.1278
98.2619
117.924
43.0732
112.303
117.532
42.6073
51.7282
850.832
55.3335
840.003
586.751
122.437
129.426
82.6189
121.198
67.8317
50.6741
649.109
57.4869
56.045
46.7777
49.1622
76.7229
134.145
143.41
172.034
112.831
45.7721
580.031
60.3793
328.432
418.464
63.679
315.42
87.9589
52.7644
60.5159
57.4085
61.3543
45.3409
125.756
50.7783
298.598
216.197
335.502
56.4263
56.2532
81.345
263.23
508.45
93.912
145.182
63.5463
249.18
63.2544
199.266
376.731
82.1962
56.0731
91.6058
883.715
61.1735
58.7592
118.074
46.6108
136.684
121.092
162.271
84.2537
262.783
169.916
342.762
71.3635
252.438
446.923
315.371
52.8747
170.078
86.7685
101.835
53.3384
65.4269
62.0105
484.87
84.1828
96.557
347.954
81.1615
61.7786
94.556
45.108
138.965
48.248
63.5522
161.596
103.559
77.1981
162.769
94.6968
96.7547
78.9439
123.892
42.8273
268.086
231.368
102.518
106.037
43.7002
231.988
58.5759
42.4675
83.4191
45.3195
105.389
87.5678
49.8638
54.9631
98.1681
293.938
206.749
49.6423
791.661
42.529
97.5306
93.2343
48.1617
741.909
144.254
651.154
49.9993
66.7615
529.247
665.744
84.0897
99.1428
184.443
127.983
48.3078
106.409
63.2509
141.662
81.851
130.638
49.8638
132.317
98.9886
104.333
59.3191
86.4415
41.6582
59.5169
611.411
446.183
102.615
107.052
97.1903
84.607
83.5885
161.353
43.0124
48.6244
59.1449
84.4986
78.8948
66.639
109.218
50.8179
57.0838
51.7914
70.4557
57.2565
68.1727
210.977
92.3948
67.6885
885.263
75.7237
63.1278
76.9003
42.443
81.6403
203.078
44.9854
73.622
80.1485
313.613
64.207
63.0416
93.5026
1401.24
94.0247
154.647
115.45
64.0931
94.6876
80.1358
62.0412
848.764
92.1768
68.3205
61.8341
41.8283
288.203
45.4199
283.496
414.565
112.119
71.5942
59.3161
118.656
85.8386
55.0432
446.021
117.442
286.819
42.5518
136.095
412.758
117.634
47.7821
97.3744
52.733
390.267
54.5573
55.867
87.2467
40.7816
59.2147
86.5908
50.1932
416.726
41.7722
402.451
44.5253
71.2521
66.0669
144.955
84.064
121.913
110.07
571.953
110.781
115.488
72.9919
43.7794
103.741
57.648
51.7144
78.0202
73.8817
61.7883
118.339
45.9312
65.4965
46.6853
306.807
85.9648
493.54
549.036
331.395
152.696
67.1816
69.9031
59.5676
188.089
86.9068
42.4222
41.2581
110.928
156.102
45.4199
69.7042
999.63
139.727
64.3831
73.2098
334.423
819.429
58.7363
548.05
537.26
198.323
368.224
157.909
554.454
71.1222
213.027
735.947
72.7921
41.2074
60.3282
109.225
311.05
42.255
43.7881
69.9519
137.322
152.166
799.257
106.207
1055.41
118.078
68.0376
81.2611
74.8751
76.4185
444.537
197.949
433.2
489.922
66.3889
315.341
1016.59
65.5031
195.807
127.752
400.414
150.041
130.404
680.801
992.809
108.64
641.617
122.297
450.629
79.2441
42.799
148.775
819.074
700.059
61.7894
98.6601
142.324
98.652
260.068
48.3754
72.0803
963.917
328.789
322.651
89.4829
294.134
65.0183
317.162
54.8426
119.197
181.828
263.528
85.9257
122.477
256.481
104.891
753.128
70.2362
58.7963
414.135
45.7944
141.469
44.0897
53.9911
41.6665
79.5734
414.678
424.705
324.99
57.2602
62.8673
319.192
56.2203
477.53
71.7767
52.3152
78.3565
196.555
153.844
579.197
49.0804
70.9062
62.0828
268.706
97.634
567.899
904.294
415.472
104.578
59.0309
431.446
318.706
145.931
45.5579
61.1407
41.3063
666.523
285.276
382.807
1064.34
237.771
91.7499
77.5304
752.288
406.092
62.2399
87.4826
99.2468
422.561
60.0491
46.5724
88.2122
79.1497
764.686
237.562
220.418
214.926
306.233
304.569
158.676
87.7091
809.331
361.55
698.681
199.646
393.593
669.113
149.087
57.1212
108.089
58.1489
58.5532
77.9276
79.8926
133.173
261.723
83.0731
176.536
180.257
144.683
114.855
188.818
114.781
104.238
127.271
772.235
1101.03
378.044
68.6059
115.1
81.5536
235.567
606.138
155.367
519.001
78.5872
464.263
362.231
171.844
46.5744
42.3352
67.8231
62.9997
709.86
94.9131
57.3945
430.87
69.9911
855.764
478.036
107.299
476.136
62.7456
43.4536
45.6334
41.6932
96.3375
59.2913
87.5381
125.639
70.9784
43.54
138.251
558.356
544.981
42.9648
103.928
46.6527
61.105
56.0054
580.101
47.2411
53.2868
52.7061
102.177
44.2234
54.5479
98.946
54.2952
57.4706
51.9595
236.748
43.023
54.9348
133.724
402.925
372.48
63.605
420.274
621.498
53.2245
51.6687
163.066
77.0423
341.533
70.4135
87.9674
83.2631
205.282
66.6526
88.8183
984.664
494.418
81.5978
610.785
45.4379
45.7878
60.4646
43.678
46.2168
69.9269
52.2076
78.3138
216.466
86.6916
289.786
244.766
179.761
78.8037
41.6989
484.874
125.02
80.0647
524.154
98.9245
672.47
59.8061
418.707
43.1802
182.412
84.1592
220.45
45.242
83.4318
74.5244
475.269
49.0445
41.5216
197.319
79.819
140.849
59.8237
73.2344
91.5374
46.4162
139.273
47.5256
61.929
142.714
92.731
407.206
67.1692
44.5676
59.8578
42.2025
50.3784
325.164
41.3468
95.454
42.1143
215.762
110.91
47.9284
106.46
109.498
54.8521
69.3576
74.5887
123.448
142.513
50.4014
47.6392
89.2987
65.3077
308.13
635.118
497.637
58.6037
43.3197
58.5269
63.3483
86.9013
925.612
233.234
61.9118
51.8632
76.4845
44.6621
47.0227
73.9473
150.813
208.177
506.476
324.041
55.9449
78.9159
69.8248
41.4541
218.862
71.5079
123.508
111.386
48.2662
973.583
76.7233
56.0773
68.9765
72.6757
155.257
582.564
43.8511
409.347
53.45
709.162
124.462
528.413
67.3847
42.4964
59.8473
104.677
47.5771
48.5081
121.611
42.9876
41.8922
53.7121
60.9062
233.383
51.5955
734.773
69.2802
59.8673
154.554
171.477
48.3928
367.342
931.87
725.72
440.546
405.833
54.1409
385.768
292.636
71.0319
56.3006
52.081
622.161
88.2088
94.2575
46.8565
77.5548
238.862
789.449
157.578
84.6567
46.5076
64.1915
184.446
44.3109
54.5808
618.381
458.858
205.692
746.843
72.3759
45.2593
69.4933
79.2539
1107.72
49.955
44.7017
41.8606
261.553
45.0568
49.1018
88.7289
98.8934
43.4903
109.324
44.8843
139.021
84.0729
138.497
48.3272
233.656
86.0299
109.619
157.489
108.293
169.893
47.1661
614.567
92.4743
248.611
289.242
259.93
84.1945
129.17
206.101
64.4235
43.2389
50.6658
52.299
84.2993
563.193
114.225
44.8863
80.77
64.0876
47.6132
118.147
61.4136
131.827
101.882
45.9638
94.5524
47.796
77.3463
297.625
602.778
71.086
97.604
78.3924
101.31
508.081
232.018
420.967
810.566
138.767
45.8138
47.4077
43.7221
102.658
798.556
78.0072
732.274
108.97
43.675
116.456
397.475
45.18
45.5904
54.3213
72.5297
59.6221
190.852
73.9097
88.2482
319.537
53.8272
95.2706
65.0969
127.575
220.602
50.2394
691.485
80.5445
105.957
54.3328
142.536
44.7904
140.893
123.23
93.6685
87.8705
78.8598
65.5725
69.1845
49.3258
221.157
61.2057
49.5048
112.512
202.009
225.237
178.157
96.6402
106.907
192.151
69.1394
240.467
140.057
129.722
97.6228
105.007
132.31
70.9415
183.351
262.821
95.9744
51.891
48.3254
241.572
86.413
98.2411
48.352
97.2796
86.829
47.5054
90.7233
406.651
100.121
69.416
83.9696
652.779
76.9019
86.0392
144.581
57.9299
150.603
45.7955
789.936
84.2811
75.7308
79.4762
53.2546
109.092
53.3105
404.023
41.5534
73.9685
658.062
59.0285
105.244
192.108
96.4504
48.9903
603.432
58.3451
42.6965
101.485
126.07
60.6419
339.352
43.2337
341.764
95.4976
42.1213
68.6148
113.636
709.62
179.746
70.683
42.8488
128.543
404.695
444.581
114.831
121.803
946.096
209.28
214.726
125.456
78.3568
100.612
59.7946
505.014
1032.46
152.996
158.094
100.194
1235
429.146
522.727
380.646
182.343
64.5188
49.0484
152.802
73.749
539.433
302.476
71.097
980.655
104.145
134.702
69.7366
50.2592
102.817
85.3441
88.7186
79.3475
146.888
184.326
853.126
57.3926
119.103
628.648
602.755
182.268
174.904
60.152
601.801
46.7186
65.8868
336.32
148.443
42.0043
323.7
419.383
72.0941
120.486
47.5472
91.4784
53.4328
80.9267
172.112
79.8272
593.744
47.4363
49.5733
84.0491
463.68
171.782
120.691
158.31
230.862
119.119
77.0734
429.886
105.734
66.8452
186.687
782.771
212.868
59.0694
320.767
160.407
93.2913
64.7885
125.602
46.3034
103.068
78.5693
72.6921
62.2224
60.0817
84.5271
42.6484
41.8207
49.4743
100.245
49.2206
160.565
387.518
715.631
92.8044
91.5498
58.7457
47.2622
101.163
634.286
51.3255
140.683
71.7518
246.881
65.8147
156.693
210.592
447.94
48.1502
56.8003
279.608
52.5092
67.8146
158.979
98.9835
410.771
85.9695
202.446
487.091
173.3
624.351
194.615
378.668
105.605
188.042
144.037
53.2757
504.478
155.466
82.1856
179.667
111.067
99.0442
42.2634
50.3807
48.6299
42.9869
87.2283
354.164
40.8104
946.273
106.654
352.325
111.087
385.382
973.426
54.5988
243.501
767.159
176.863
354.731
75.6732
69.1495
739.698
972.581
290.361
165.474
50.6652
486.767
100.88
649.653
52.2615
52.1878
239.869
989.462
60.9799
85.1882
50.1284
252.897
502.121
47.4912
409.908
201.883
523.133
708.623
49.3991
325.972
73.3072
597.534
272.355
199.728
448.223
249.641
475.255
335.428
227.495
81.1839
78.0648
72.2468
48.0883
53.4153
1423.14
74.6819
112.359
80.1303
77.6477
155.66
1209.46
166.818
184.937
284.269
170.753
207.826
123.215
41.8572
77.4736
1083.16
658.468
272.448
187.956
261.409
88.7829
491.591
59.2808
270.789
400.164
58.3216
556.164
87.8686
341.639
304.319
201.75
297.09
300.265
184.579
48.3438
131.295
59.2543
576.8
71.0742
192.092
84.3071
271.466
53.9088
67.0121
319.144
116.548
263.481
44.3465
1427.71
46.1329
58.9025
56.7159
53.3339
107.941
516.731
208.593
111.704
653.67
72.1089
49.4156
55.4932
866.658
100.754
101.17
830.413
350.553
905.929
540.045
202.674
291.513
156.046
182.858
706.075
65.5626
425.014
154.706
65.5644
178.294
63.5678
176.58
84.0663
625.506
479.489
591.828