/*--------------------------------*- C++ -*----------------------------------*\
| =========                 |                                                 |
| \\      /  F ield         | OpenFOAM: The Open Source CFD Toolbox           |
|  \\    /   O peration     | Version:  2506                                  |
|   \\  /    A nd           | Website:  www.openfoam.com                      |
|    \\/     M anipulation  |                                                 |
\*---------------------------------------------------------------------------*/
FoamFile
{
    version     2.0;
    format      ascii;
    arch        "LSB;label=32;scalar=64";
    class       volScalarField;
    location    "0.0949388";
    object      p;
}
// * * * * * * * * * * * * * * * * * * * * * * * * * * * * * * * * * * * * * //

dimensions      [0 2 -2 0 0 0 0];

internalField   nonuniform List<scalar> 
47425
(
-0.25084
0.102009
0.0854096
-8.63533
-26.0586
0.0388184
-23.9819
0.0321713
10.5724
-41.4629
0.00779668
11.0264
-19.147
0.0225543
-4.9886
9.87693
0.0622603
21.9724
-117.883
-40.8824
0.349797
13.2188
-0.0399412
0.373173
12.0125
0.282928
-0.00816753
-49.0405
0.0343314
0.147106
13.3406
9.96026
11.2208
0.21188
0.133973
0.0149804
14.0109
11.0022
4.31453
0.0701129
0.355942
-4.49461
-2.41794
10.9168
-43.745
0.377532
0.0148243
10.8213
0.118741
0.16932
42.4283
-3.72085
0.135322
-38.841
-0.00312292
6.14973
-0.0111329
0.0993971
-11.5238
0.045441
-40.7029
-38.1622
-51.3869
18.6597
10.4105
0.556879
11.3118
-5.8445
-45.3632
20.3928
1.19155
0.27034
-1.5911
0.988042
-47.1025
10.2481
-51.3699
0.0841634
-55.0565
-26.4421
-48.7537
7.98956
18.519
10.1293
0.738565
-0.606541
-1.82022
0.0659684
-7.65415
-31.8479
12.5317
-0.637784
0.249149
-0.563302
-0.564767
-0.327075
0.103061
-0.657615
-0.302482
9.07168
10.0168
19.542
6.79045
43.4331
6.83221
-2.30145
0.313447
-0.337355
-0.254503
11.2989
-33.1642
10.9329
-2.68579
-0.821988
-4.07434
31.1553
-3.64316
44.0024
5.6981
-6.95944
-0.889103
11.2457
10.8004
-12.0659
8.80585
-4.49053
-0.598822
10.3089
0.0461517
0.373293
19.0981
-1.98144
52.2366
5.64139
-5.68135
-14.6517
0.332979
-4.37672
8.76991
-3.56757
11.2923
-6.75579
3.51021
-4.37675
8.79281
10.3699
-24.6018
10.567
3.52761
11.1688
-3.7909
35.9067
10.6056
-8.19507
19.0202
0.44179
-0.896773
-123.358
-0.158064
0.00199909
-5.58416
0.479339
0.202404
8.49438
-51.2222
-94.3336
10.6029
-47.868
0.37115
-48.0709
-47.9984
0.31383
10.3681
16.1929
-0.322831
11.7336
24.6936
-0.0270142
0.108627
0.131215
18.1467
0.37177
0.00104028
0.168225
0.204444
9.97578
7.73797
46.9655
0.100814
0.0930485
11.1307
0.0888565
-15.0838
11.3482
0.235988
-4.70796
11.3291
0.157428
-5.4378
-0.4771
0.102287
-1.46981
0.717003
-4.43917
6.68371
-0.681942
0.0221122
-3.94779
9.8852
10.2494
-0.368263
-4.74998
10.3264
0.299037
-1.36318
-5.87636
-0.770122
-30.7811
19.1528
11.1284
-29.0655
-7.68748
0.644085
-1.09634
-0.274795
-26.9007
0.215027
-5.57742
-8.19955
-12.5338
-0.414072
0.0619276
-1.35223
10.9541
0.0472858
10.1241
-31.4304
0.28169
-28.5552
0.0496063
-0.0521338
0.191579
0.192775
-8.81675
5.90101
10.2604
-0.428621
10.1448
0.331091
0.0600204
0.381786
-24.925
-0.0231555
11.3124
0.175952
-0.0435531
12.5756
0.042712
5.23348
10.1853
0.107663
10.8439
7.49383
7.38084
-15.4583
-1.36853
0.0766618
-15.0769
0.241765
7.44712
7.88388
-28.6506
-31.0599
7.84696
-26.4472
8.04562
-27.6163
32.0999
-29.7485
29.8996
-37.9765
-0.0919922
-41.7406
0.179693
0.094468
-6.34157
0.134986
0.0434612
0.541679
-3.83262
52.7193
17.4766
10.4456
0.115952
0.0539414
8.49062
-7.2685
8.3145
10.709
-12.6131
-0.0452372
0.280671
0.0253835
-0.0430547
-44.5597
-56.3772
32.1294
0.135752
0.121053
9.12191
8.62167
45.0224
0.0127324
-0.0303059
-23.0563
-0.255114
0.249026
0.0248934
0.066498
-33.0105
-21.4863
9.67484
9.21663
0.0118414
-0.358003
-0.0646667
9.50141
0.0234077
0.161456
0.0581434
-9.72713
-51.6408
3.00879
0.0597483
11.1751
-0.0287834
-50.8219
10.9281
0.202958
0.417208
9.60119
9.38428
0.388644
11.192
0.224282
-0.00165674
0.122294
13.8227
0.0309837
0.136594
9.88652
5.18559
10.009
10.8509
10.2077
-3.9822
0.237984
17.838
10.7064
10.5534
15.5915
-7.34319
0.265895
0.0186099
6.27841
-1.87385
0.026575
10.5952
10.8941
7.73895
-0.0222514
-43.8036
-1.89597
8.88642
10.3839
8.72914
-5.64477
9.9187
10.2517
13.6112
10.1692
8.65678
0.396065
10.7474
0.384509
10.7706
0.00995154
7.95106
11.2441
0.022241
4.19368
5.6571
0.0704026
4.77962
0.269734
4.7662
11.2182
0.0199956
-15.7663
0.0406199
-33.2842
0.091203
-37.5509
0.123498
0.161085
0.109999
-0.024302
0.154854
-0.0817011
0.0116958
5.58084
-50.9195
54.8448
0.241855
5.23752
2.35199
0.800559
0.117676
0.0240014
0.165814
0.0876971
0.285687
0.252689
0.702523
0.0111442
-0.0151957
-11.5885
-7.54284
-4.0396
14.4808
-50.1584
-1.51203
24.5355
-49.6525
0.584477
-51.2059
-35.538
0.402201
-2.32646
-1.26192
-5.35327
-51.9196
-0.290923
0.333121
0.190189
-5.92266
-3.5443
0.0697217
0.230841
-30.8899
-50.4844
-27.8597
11.0722
17.0754
-6.48013
0.289509
-1.41626
-16.0614
-1.24181
11.043
11.2927
11.3159
4.94221
11.2267
0.337895
8.58314
0.0937531
-3.49507
0.311622
0.209389
11.1087
11.2249
10.1032
5.98821
9.2635
0.0161639
-2.50778
-31.0725
10.1822
-15.4012
11.257
-3.97801
-17.687
11.2463
0.284739
9.72373
10.5755
10.2041
7.54531
0.193843
-2.7946
9.82123
-0.100062
6.20255
19.6481
0.316874
12.3847
10.1145
13.8505
0.145787
0.105288
0.630253
-0.0490384
1.86404
-0.0147328
-0.0845009
0.220055
0.395397
-2.35502
0.0329317
0.0249986
21.8173
-0.0103281
0.779128
0.379655
0.257175
0.099538
0.127599
9.2442
5.92402
10.341
10.3433
42.4304
0.101691
0.00566641
10.5832
10.8023
-22.1103
-25.8216
0.123386
0.454525
0.490877
-13.9353
9.87195
-29.312
11.2148
-33.6597
24.9955
17.3737
-0.00175248
-23.3051
0.169722
0.0465904
0.0850165
1.13908
-0.0923586
0.273413
-50.8986
0.0758653
-0.0521578
0.147089
-20.2307
0.222896
0.0253419
-20.6709
-17.2147
0.10421
0.092641
-31.8805
0.18207
-2.81755
0.0216074
0.302152
0.266556
-12.5521
-15.851
17.4173
0.533552
0.300403
0.00630303
-29.2016
16.767
1.40144
-31.667
0.106618
0.109486
-31.8361
-42.9597
11.9015
-31.6522
-31.7002
-0.00981554
11.168
0.0803413
15.0865
10.1413
-0.0562508
-43.8269
9.64116
-0.0317047
0.17224
-18.2808
-11.6315
11.2159
4.74767
-47.6192
-27.3444
-0.00428645
0.045607
-1.28476
1.73815
0.115684
0.202599
10.1438
6.17981
11.2186
-4.59294
10.3499
-30.7472
4.29492
2.11642
-32.5367
8.85703
0.182126
5.50765
8.38432
0.228546
10.6188
-5.42645
27.6188
10.3808
-3.19715
0.54155
-73.9475
7.45184
-15.4681
-44.9783
-45.542
0.125957
-0.0501831
-48.041
-0.037888
2.36935
-31.5382
10.679
-41.5342
-0.0963083
0.152411
10.4974
-37.0753
11.3179
11.3865
0.410811
0.085981
0.276239
-0.0148837
0.215244
0.611295
-0.630779
-35.4392
-26.1194
0.115559
12.7169
0.0243981
16.3812
9.67409
11.2826
11.2971
11.3476
11.2734
17.9485
0.870914
11.2321
7.95906
-5.81196
-0.0184126
-53.7573
-31.649
-0.0101073
16.6702
2.82989
0.049859
-54.0315
0.0179069
-49.9685
0.179779
-17.3032
-16.8261
0.413002
11.7593
7.76736
24.4976
-0.0263355
0.204594
-0.919056
-21.226
11.1562
-19.7599
-1.10851
-51.0419
-15.1476
-1.04477
-17.8163
11.2363
0.303668
3.99192
-0.862698
-18.8433
11.1295
9.82789
-18.1986
0.0128181
-1.14115
-0.12009
0.136256
27.344
25.8849
13.7644
14.5035
-0.0309174
-0.0792744
0.585395
-0.706352
-5.12127
-0.0280352
0.132192
-8.8816e-05
0.298978
29.4693
-17.828
-0.0850054
10.0632
0.199066
0.306446
0.00125946
-0.0346593
-5.6307
-28.6864
0.0505522
0.0606804
-0.0621788
0.380781
13.2303
0.0607774
-1.56259
0.253516
0.24557
0.266556
16.7965
34.1811
0.395636
-31.6349
-15.7032
-36.2975
-31.5627
-0.925441
-14.5908
3.27739
-0.620285
41.0804
-31.8149
53.0296
-15.6646
-0.922705
-24.6718
0.152783
55.0986
1.15562
-1.60088
0.614202
0.0698268
-15.2542
0.462859
0.386804
0.208344
-31.5516
24.3824
10.5375
10.8109
43.2334
39.6101
-18.155
-42.5579
-32.9242
44.8183
41.9247
10.693
0.224606
16.1222
0.179771
4.69981
-31.8654
0.52079
3.92896
5.18276
0.24296
-32.3825
-32.3472
0.0425799
4.00992
0.383613
0.219262
5.24634
0.191502
14.3615
-0.0273468
0.281764
30.2027
-0.00877004
0.0561739
0.0511447
0.155489
0.154453
50.0519
-21.565
0.0396521
3.84271
0.345057
14.0273
14.4665
-17.5917
0.194913
-31.7815
-19.2369
4.3795
0.600299
22.8473
-42.2555
-0.0347402
-0.0703244
-7.6955
0.23601
10.8723
2.04245
0.000117237
11.3862
-35.4384
-20.1706
-42.7904
11.354
25.0569
0.0779949
-14.1989
15.6992
-18.698
-0.0722686
17.2312
-37.7614
-8.83378
-19.8723
-32.0719
-19.4049
-1.26439
-0.00121646
-15.5463
-0.0539477
-20.1822
-31.2522
-0.0213216
-20.6575
0.160227
0.260543
-38.8163
0.167813
-0.351081
15.3733
14.0169
10.3649
-26.7553
-10.6669
0.3225
-12.6487
45.6786
-2.32325
12.7189
0.423368
-1.94143
0.210443
0.080433
-30.6774
-51.9042
-11.5796
-2.74568
-21.9593
-24.9502
-30.5776
6.19325
0.00688938
10.9221
11.1216
0.430492
-14.1417
14.8433
21.6704
10.9876
-31.4045
-19.4567
0.743625
-0.143281
0.204362
-0.488911
31.0826
10.7006
-26.1609
-0.037242
1.96744
10.8079
10.7926
10.6922
10.5103
11.0346
-21.3182
-5.74339
22.0687
26.3086
15.8917
5.47961
-2.99252
33.8526
-1.40411
-8.9982
-2.63145
-18.291
-15.1935
-19.5231
-2.70255
11.0407
13.8655
10.8382
-0.544746
-34.5004
-33.6202
-43.2718
9.09516
-11.1978
4.19491
-24.8732
-0.328404
-38.3777
-0.401182
-0.680728
-15.0255
6.15511
-0.510348
8.36985
0.151554
3.82456
-15.9197
0.413405
-4.30164
-27.0406
-8.81634
-3.56972
15.1329
48.4902
-50.6352
39.0921
-30.0403
-57.9129
0.150962
0.248669
22.7371
0.0992612
49.7081
0.12804
0.102468
-50.3381
13.4979
0.524061
0.277901
10.6081
20.9149
9.19644
0.121444
11.7213
-21.4541
8.16461
11.532
11.7605
11.2421
0.133239
-16.2696
-9.43856
27.1451
12.861
0.117466
8.82648
0.243675
0.212521
6.59685
-12.4026
-7.56335
-14.1979
-12.9185
9.39939
-44.0759
0.162572
0.210801
0.143665
-44.5914
-45.3864
-31.6092
-31.5917
-1.29759
-1.9905
-40.8604
-32.3158
-7.80347
10.7213
0.0809856
-2.03125
-41.9859
2.20943
-4.09257
0.255406
7.79082
-1.24344
30.9429
-110.152
-18.3973
-34.3612
0.31887
52.63
-50.4139
0.741835
9.11564
0.509107
-34.7622
9.19326
-7.97962
16.366
-30.2137
-0.818784
-31.4059
0.474776
-13.4081
-0.719637
5.38878
-37.2167
-34.7822
8.54002
17.565
-15.3249
-46.0922
7.99826
-0.291111
-35.5309
-41.9069
9.85867
7.36415
-62.6755
-50.9484
-44.3227
8.69727
-13.6798
-28.6912
-43.5593
8.077
22.4318
-22.8799
-11.8596
-9.45082
-34.5599
-41.0354
-6.53531
6.96215
10.478
11.0942
12.5015
8.44071
-6.5451
11.2291
11.1848
12.1159
-2.4937
-32.1314
-39.0041
9.40463
40.2154
-22.8491
9.66682
-21.5404
4.01246
8.46303
-12.2925
-4.44353
8.60651
7.67793
-56.6309
11.6088
-36.6821
-51.0926
-36.9281
8.18845
-12.8674
10.1468
0.511852
1.16548
-20.5191
-41.3513
-0.998639
-34.4287
-20.2351
57.4075
-24.719
-45.9067
-33.6719
-0.0826421
-0.586941
-42.7835
-2.05494
13.4552
-0.0500093
-45.0914
-41.8708
-0.0176753
-1.18894
-36.5043
-14.6443
-43.0821
43.6855
0.0812922
-5.28964
-44.782
-3.01196
20.6988
-35.5938
13.4351
-53.901
-18.9652
9.36726
0.196592
0.0493109
-1.19825
0.117311
-1.16775
-2.24792
0.116943
5.55806
33.2929
13.4389
23.0571
-20.6862
-11.2415
28.1268
-6.82878
1.72646
-16.7389
11.6646
-68.0241
0.358504
-0.65036
0.435503
-41.4314
0.215109
-56.0912
0.240093
5.77877
4.87393
-51.3263
49.1219
-32.6623
-26.6728
33.1273
-5.21038
10.6917
-12.5783
-27.6232
-32.0723
-27.8857
43.3374
10.5399
-19.6613
-31.0103
-8.20069
-7.54526
-40.2354
-29.5091
0.955375
-18.8884
10.4261
10.6986
-27.1382
-44.8567
-3.71781
8.68552
10.586
-50.7223
10.7341
-10.7997
-14.5913
10.7216
10.9536
-25.2515
2.75899
48.5392
-25.3733
2.38711
28.6509
26.053
8.02012
-85.9341
-39.2684
-19.3965
-118.149
59.6532
11.0269
-24.0664
11.0259
22.0711
-52.6727
1.54614
-53.0955
-29.5671
-6.07187
19.4836
-11.384
10.881
10.9292
13.7967
-24.5421
0.651251
0.0598158
24.7159
0.0509174
-20.8173
12.2975
-15.0989
-3.4359
-27.899
13.8845
-57.037
-42.7728
4.84256
-38.7675
-32.3668
0.0503811
46.343
-38.9464
-7.31623
27.6564
-15.5477
-23.3828
-27.4495
-37.5974
5.62564
-47.7581
-24.3987
4.14319
-2.65026
0.279513
-27.5071
-6.53119
23.4706
-19.9699
-0.224275
21.5348
0.27791
-64.3714
-0.0494757
0.0542324
-9.20158
-27.177
19.8134
-13.1977
-17.4539
-10.4544
-53.1991
-0.00211215
-16.2688
-64.6935
0.343056
-9.47965
55.6802
-9.22219
-32.6655
-48.7519
0.0629535
8.00144
0.032394
-128.651
-31.1516
-25.4488
-30.8326
18.5555
-7.36716
-1.27328
-40.6807
-49.1249
-20.0456
0.218281
10.7624
0.610379
0.345296
0.33131
51.1913
11.1689
10.4669
-10.662
0.296899
14.3022
11.376
20.5052
10.9151
0.104603
19.1771
11.8469
8.59407
-22.6457
0.736054
10.2909
8.12697
-13.2185
10.2973
0.257082
0.287506
8.86135
11.3611
11.0492
-50.782
10.2548
16.5847
0.41434
0.172357
-27.4015
11.9928
11.4419
-49.0792
-47.4354
56.5209
13.1645
-49.9906
22.3736
-0.437138
-47.829
8.78322
-49.0462
-0.0511505
-0.116292
10.7934
17.4829
9.0262
-0.0176311
0.0696273
0.637507
4.86558
7.11119
0.401246
-21.3955
0.237736
-16.4229
56.3673
10.2987
-46.2004
-13.4996
-71.36
0.292173
9.10052
0.009102
11.7367
-0.0506235
10.351
0.493338
-42.7422
-28.2049
-39.9488
-7.449
-16.9236
0.651401
0.327283
-32.3662
0.692866
-52.7369
-4.15967
-47.4681
0.15381
-57.7569
-86.3065
-1.53943
-0.0100453
-30.3576
0.164538
-29.9099
10.0399
-0.701754
0.57182
-1.27584
-2.52861
-3.48198
-16.4266
-32.5902
-11.2431
10.0749
0.4903
10.1642
0.181861
10.0062
-30.1019
7.92428
-29.97
-1.43891
0.838513
7.53491
0.271332
7.89742
7.14079
0.0905743
0.254171
10.8599
0.0317118
-6.66445
0.022006
-0.107298
-31.0249
-29.6306
-4.90796
-0.98491
-27.0511
-0.0444104
0.126181
0.19033
0.213626
0.0372449
0.00619332
10.2045
9.92173
0.358369
0.238013
39.5366
-0.211946
0.121566
0.275314
-49.6999
-1.44803
-52.1414
-37.4988
-46.3705
7.70746
0.157334
-1.10974
0.0201734
0.294583
-43.3112
-14.1995
0.287777
0.174287
-1.21194
-1.2524
-30.8216
-1.31516
-0.00296424
-20.1394
0.366688
0.334799
0.0959612
0.250495
0.0460589
0.150577
0.253319
-14.4209
-21.6599
0.0525756
10.1149
-6.09188
-12.5046
-11.2495
0.225084
0.321051
-14.5405
-0.320927
-0.0752121
0.317125
0.142543
-13.6951
0.0455069
0.432333
0.291865
0.212113
0.323153
-9.55
-0.0514153
-43.8266
0.205505
-18.2242
-0.817662
0.0500178
-45.226
-0.0425172
-1.53702
0.0785581
0.326021
0.405373
-1.45642
48.9339
-1.43069
-29.8303
0.189167
0.0545472
0.474242
0.24853
0.0703343
-1.08918
0.135034
0.23604
0.0485653
-26.3845
-11.6947
-42.168
8.73421
-18.5971
-1.14334
0.0220554
-1.06492
-37.0384
0.0285191
0.0019197
-0.0443902
-59.8056
-0.0103059
-0.453703
-0.00950284
0.183859
-0.183399
-149.202
-0.00706212
0.628134
10.2408
-0.00607665
-9.0112
29.0724
23.4153
0.018768
5.29049
-0.0409654
0.310993
0.234341
0.113157
-58.5234
-47.5537
-0.0284346
0.146921
-44.1448
0.0617363
-6.34968
-25.4638
0.0462337
0.350287
3.28545
0.0705336
-14.6878
-0.0480581
-0.880945
17.6384
1.39178
0.0349354
10.2254
-30.1028
10.28
-30.5755
-27.2271
-32.1553
-28.5848
0.334476
10.2145
-21.6258
10.3597
-2.26792
14.662
-35.3274
-30.1021
10.67
-11.7009
10.6636
0.12756
0.0508532
-31.5774
0.265371
0.338534
10.4854
10.5205
39.053
41.8435
60.1536
-21.8437
25.9593
10.688
12.989
20.7926
10.5465
0.256824
-0.0531876
0.170685
0.18428
-31.6033
-31.5358
0.305735
1.47121
-9.14143
-50.2799
-3.51388
0.109447
-3.36248
-24.3702
-59.5756
0.24427
-36.6337
-17.0941
-32.8514
-42.5912
-14.9913
0.232372
0.194962
11.1583
-61.3498
0.0371464
11.2628
0.15623
0.133426
-47.4766
-47.6183
-49.2525
-1.71928
-29.7236
14.3517
8.02773
-0.0868388
-17.1967
-50.978
-49.9911
-31.895
58.0057
-31.9484
31.9954
10.1354
-45.4735
10.8188
-64.3886
10.197
-60.3093
10.1003
-29.7296
-0.109128
-22.5394
10.7161
10.642
-1.12293
10.5088
10.3906
31.7993
1.46983
10.6185
10.386
-71.7775
-43.9741
-16.8864
-29.1021
-44.4763
-29.1756
0.283218
12.9116
-39.8113
-33.9431
-39.7829
11.7567
-48.5086
4.17096
-50.0044
-51.3832
-40.0274
-27.4813
13.1547
1.60751
7.37647
10.5523
0.52212
-34.8721
-4.95854
-2.27898
0.485765
-0.0126969
0.0765409
0.457801
0.200832
-28.7328
0.240949
0.114139
0.343975
-0.94317
-23.5999
0.480392
-0.0613543
0.0909813
0.419765
-10.8461
-8.36909
0.311394
11.4031
-34.2422
-50.9244
-4.01247
-46.2364
-13.122
-2.74214
-28.557
34.6657
7.02457
6.58536
-11.3184
-0.0280746
-0.0260149
-6.77845
-0.0626991
0.0401498
-2.87226
0.0519591
0.449239
1.02095
9.51216
-7.84271
-0.645456
41.3447
0.0447181
10.6182
0.000679037
-0.0525035
40.8521
-44.3432
22.3878
0.0776482
-1.33966
-30.0776
-31.4614
-4.35566
-0.279859
9.88257
-15.0761
0.0594776
0.0652284
-15.2064
10.4057
0.0624702
11.608
52.6538
-1.05834
-1.52666
-23.2245
-4.56693
0.165947
0.111274
-1.82128
10.3868
10.3527
8.37635
10.4658
11.004
2.6974
0.985403
-9.01443
-51.0033
3.23494
-7.97772
10.4139
10.3273
58.0293
1.65131
-0.266089
-1.39361
-20.9443
-40.5385
3.38542
14.1108
-1.53563
27.7043
-7.83604
13.0731
-34.8637
45.3907
28.0479
-26.5569
3.33063
2.5251
-21.9621
-49.6621
-81.0363
-4.81582
-15.0886
-50.301
-0.401733
-20.715
-11.9425
-40.4436
-31.973
1.42983
13.4484
-51.0816
8.47881
-11.5825
-0.63359
8.7694
-2.78622
15.1573
2.60094
12.9202
7.88758
-38.8326
2.09797
55.0897
-22.7233
52.9394
30.0287
-76.7219
11.37
11.4107
-63.1147
-18.7492
-6.26686
-34.4429
-29.4464
0.0951348
1.66439
1.29035
-35.0154
-6.5485
4.91512
56.1415
-12.0047
10.061
-9.95797
-23.7265
5.68601
5.93371
-37.8883
-33.3518
-30.0787
-31.505
0.0526455
-19.4019
-0.887583
-20.4038
-11.6751
0.583177
-1.33331
-18.4962
-8.69563
-31.4477
-31.2977
-7.57725
5.38939
-2.41059
-15.8497
-25.7728
7.14509
6.97368
-18.9742
-31.0525
7.87198
-11.8781
-30.9468
-0.826687
-39.9902
-3.71848
-10.0673
-46.185
-0.650591
50.1049
-16.399
-1.47738
-1.55032
-2.89503
-50.8162
0.257238
0.365214
-5.25137
0.209019
9.97892
0.254575
-31.7932
9.47532
33.1637
10.0234
9.64132
9.36974
0.231494
-24.6516
-17.0959
-17.1156
-49.0168
-4.80016
-40.256
-16.5208
0.0393646
-54.4609
-0.00416673
0.259467
-2.6824
-13.0498
-55.7481
-32.5826
9.58316
36.0265
-20.8899
0.404777
-36.662
-42.53
-10.7591
-44.1784
31.8502
10.2111
-13.2396
40.8435
10.2485
-71.5943
18.5279
9.19405
46.5642
32.2459
10.3597
10.4111
57.9741
-40.6819
0.359717
51.7033
5.6367
10.3733
-12.795
10.2642
-34.0276
6.48001
57.4863
10.483
10.6152
35.3071
8.77107
15.5219
-5.547
-5.00905
13.2742
-30.2386
22.3021
-23.6727
-55.9703
-72.6127
-30.7689
10.7098
34.6226
12.321
2.73352
5.91068
9.9301
10.3666
-0.443719
-0.257457
38.7322
-46.2717
11.0177
-30.9645
-0.206973
5.44789
-20.5148
-72.3935
-0.257678
-19.6797
11.805
3.81559
-0.420429
8.73635
-10.8797
-0.253228
0.434521
-24.2948
0.362625
0.241504
-10.3861
8.98238
0.219685
20.6698
0.275945
-26.8127
25.4201
0.379091
14.3548
34.9046
-30.6058
54.6688
39.4023
-34.1287
-65.5375
-30.8253
-29.3676
-30.6267
-30.6925
-34.1672
-25.8023
-36.0767
-30.8992
56.5499
-7.65344
-47.7996
9.55217
-1.74677
-40.405
-45.0668
-6.13171
-31.8145
-20.2861
-31.245
-17.2719
39.2075
-49.0783
-35.6563
-30.6151
22.3222
-30.571
0.0995424
-48.4071
21.4944
4.53098
-0.179021
-4.39955
43.4553
7.00187
-19.2382
-10.4348
11.1154
-0.337311
-9.7485
-29.5956
-34.4917
-3.66474
-8.76995
17.3394
-32.6623
-12.2128
-0.13176
-27.2177
44.2576
-4.98469
3.74945
-0.026424
0.624468
-40.0455
8.68436
7.08604
1.71547
-0.166551
3.53719
-4.41968
-4.998
60.5298
1.21988
-16.4138
-9.37026
-0.0451075
-50.1244
-49.3506
7.27472
7.40313
6.58569
9.58155
-27.9561
-13.9714
54.1313
-10.3277
9.33058
-18.3718
-6.93276
-7.51334
7.08296
-15.8105
7.03569
-25.2091
-31.1084
-35.4724
30.0633
-15.0474
15.8156
7.2817
-55.803
-70.9115
31.1754
-48.4791
7.79241
-61.1056
31.2817
-6.1664
18.2555
-24.4305
-1.67931
0.172835
-8.70232
-16.8877
-40.7288
-1.79961
8.08976
-91.4361
11.2111
-30.3022
11.0699
-4.29354
8.65872
-1.43159
-3.38392
0.0991366
-14.346
6.17568
-0.476662
13.6233
-2.08222
-46.3067
33.3416
9.57764
39.4263
10.4974
-1.27395
9.5194
11.285
29.4413
-2.25551
29.3167
-0.183227
-2.37259
-21.0377
0.288003
0.0465684
-16.4846
-10.4098
-24.8421
-7.26099
31.6427
5.79408
25.8981
0.117156
16.1542
13.2389
0.13734
0.168949
0.207123
0.432797
55.7001
0.203871
-11.7541
-32.5751
10.5675
10.9211
13.5098
10.7713
-23.2936
-28.1716
-2.70239
-6.93573
-6.93911
-19.2016
32.393
0.197054
-61.3895
-14.1354
-37.8009
-2.22497
7.10994
-25.6539
10.6688
10.8172
-21.8272
10.9068
-0.615814
5.62545
-42.1881
15.6249
53.0395
-1.90629
-2.66986
32.505
5.28217
-1.23665
32.6436
6.33772
-19.5654
35.4865
-12.0239
37.3685
-43.6549
0.184186
11.2865
-2.63576
-11.0065
-2.25673
0.322879
-3.64028
0.110094
11.294
-35.2089
2.79484
-0.216759
-33.2984
-1.37685
3.84187
10.754
10.8766
23.5335
2.2767
-2.90592
-7.75537
-3.82566
-15.1369
10.5498
-0.217718
-22.057
57.7798
-24.2628
-1.17725
56.4648
10.7791
-48.4509
52.4549
-5.51401
3.51305
34.4202
10.9124
-31.4684
35.8458
-31.5825
-6.16497
-31.4183
-16.049
-33.4092
32.5651
-6.61429
58.5072
0.204019
-31.5443
-31.536
-52.7525
-46.5096
-37.9077
-54.1917
-38.7758
-33.6045
55.3947
8.1971
8.76886
48.5667
22.4619
-49.1391
5.86166
-50.9128
42.8512
0.391676
9.08712
0.0262362
0.271758
0.259441
0.296795
56.7712
0.0701538
0.224226
10.4198
0.343809
0.43656
9.29639
-7.99108
0.273702
-9.94835
0.0699404
5.43363
25.0289
-48.2377
-2.18831
0.278291
-8.66798
-2.29464
-39.3775
-26.6433
-24.5698
-3.22028
36.3293
12.1291
-4.57638
-7.24568
7.05507
2.31418
0.309666
10.0364
9.561
-32.933
0.410741
15.8982
-5.32987
0.99994
10.2522
-6.35914
6.38186
10.096
9.84933
-16.2549
9.61614
7.29236
50.2355
23.5784
11.9411
21.1976
9.26739
-3.68011
9.67247
-0.0734099
-5.79985
-0.0801856
3.55789
0.0801002
20.3898
9.19456
-19.9377
21.9768
-0.00872364
8.08948
26.4753
-17.5504
32.1784
-29.5946
-54.8982
-37.3765
-2.02169
0.0903694
-32.4572
34.44
-14.1911
-4.57123
7.48484
0.280855
-1.38583
0.039918
7.94577
11.1683
27.3314
7.14789
-0.244739
9.95048
10.0454
0.00449719
-35.1889
33.3361
0.0529341
6.17867
-14.8873
41.0704
11.1613
8.63002
-12.8944
-50.4368
-47.4234
10.2266
10.1584
-5.81507
-9.48915
-12.5998
-33.395
30.3328
-0.0472579
-1.15789
-2.99881
0.193382
17.7736
-18.0506
0.306901
0.252354
28.7401
0.211032
-13.862
24.9446
-37.8949
-28.5932
0.149523
-14.1841
12.1923
-0.0851414
0.159661
10.823
7.66843
-1.98752
19.2327
2.25318
-45.0926
0.251321
0.234905
-37.1832
-3.90529
11.924
0.243746
6.42363
10.4365
58.4127
0.223646
-12.4084
-37.2739
-41.7848
-97.3479
-62.3099
0.23797
14.9968
44.7152
0.0098788
6.11083
8.19703
-40.3532
11.4089
4.59461
-39.889
11.3939
23.5416
-19.1657
7.6162
-40.8943
-51.1153
12.9683
17.2246
-42.9454
13.2703
9.20624
0.783426
12.5067
10.6764
-1.21231
-37.9863
-9.39672
6.02367
12.3455
10.3959
11.0635
-0.377051
-0.0560697
33.2856
-0.0131207
-10.0991
-1.71942
34.702
10.7925
-14.8181
2.81373
55.793
-26.2512
-31.4471
-41.5132
1.35333
-7.61929
-58.6821
-21.8893
12.6919
-18.206
-9.89682
-0.0432071
-12.9713
10.078
3.28444
1.50014
-0.0286373
0.104239
-22.364
-7.90012
-13.8594
-0.230277
-1.89017
0.155158
-2.07846
-8.40195
11.3835
-46.9785
11.7617
-2.50887
-2.4425
9.79846
9.52297
10.4974
-0.0776384
-2.27313
-14.8396
2.12827
-2.14481
-2.42828
-31.8065
2.08629
-9.13292
-40.2079
-32.4247
-28.0601
12.5502
-34.9258
16.8359
-33.2704
0.059812
-31.5387
0.122935
1.11515
-1.93345
-7.47236
-0.00830682
2.05877
-3.92342
10.6253
9.79455
12.1275
-7.24325
-7.19592
-46.5392
-30.8279
21.7989
35.7761
-34.3396
-26.1618
-31.1513
-49.5441
-30.6852
-12.0556
-30.8711
-0.698043
-0.987482
-49.3513
-52.1684
-6.47805
-2.36746
10.2662
51.0714
-4.79696
-51.7226
-4.80005
2.99974
-5.97844
-2.32867
-28.7529
-1.14627
-0.819267
-0.572331
0.299486
5.16262
-1.63875
0.350558
-43.3834
-44.1523
-42.5339
20.927
-36.702
11.2208
0.327986
12.5993
4.62825
2.45349
19.9977
10.2686
21.2444
-0.414245
1.88573
3.45811
-1.01766
0.149536
-14.9653
7.05065
11.6695
7.07717
40.5343
0.139127
22.2631
-59.2579
-7.84892
-49.6153
39.9042
8.69556
7.58455
4.68316
-15.5253
-11.1678
11.0305
-36.0231
5.80703
7.8099
-7.35724
16.7208
7.88187
-7.64479
-20.0747
-14.796
11.2967
-2.87462
-61.8114
-1.15695
-44.3111
-30.6357
11.178
-52.8905
-10.8872
31.4182
-2.66078
11.1583
13.6181
15.8575
-8.94864
10.4106
-31.353
-15.0475
-31.3138
-6.41935
-9.40433
15.5486
-30.7772
-29.2579
-0.834542
-1.30079
14.5112
-31.1122
5.86401
-7.51192
-45.4145
0.0885572
-0.905111
9.84114
-50.1334
-8.10973
-2.68596
-0.538337
-3.36956
9.51937
9.24299
-5.19856
9.59011
-31.3978
9.56143
-51.853
9.8354
-32.8181
-33.8484
-12.1046
8.97085
-10.6647
-1.78821
9.1761
-4.10471
-1.76255
-10.513
50.0275
0.0921902
32.4606
-14.406
0.189381
-5.42563
0.131114
10.7622
9.40044
10.5008
-9.37487
0.132652
10.0552
-3.44454
0.161784
0.34041
-27.0182
-0.399877
-0.00612477
10.8773
-28.9507
-33.7421
0.0871603
-9.24063
0.308892
-28.9159
0.204425
0.0985348
-0.791141
0.263083
-0.604615
-0.781403
0.043134
0.416794
9.48352
-24.1666
-20.5788
10.8051
43.5689
14.2334
10.5699
0.0689397
11.2396
36.1448
0.0133565
32.1057
-1.65746
0.0624353
-0.874948
24.1492
0.312634
-0.125057
52.8152
11.3279
26.0329
-12.7405
-16.1537
-0.0646015
-4.48244
-0.0471874
0.222277
0.0450812
0.254881
47.6803
0.294591
0.197799
0.142501
10.1759
-41.2092
-28.3395
-7.00181
1.99234
-1.23478
0.208549
12.7862
-30.6746
23.426
15.1239
1.56854
0.188045
40.7714
-15.9596
38.8307
29.1961
10.1764
10.6956
0.171431
-7.17082
-0.400403
-18.4516
-16.1521
10.6921
-47.5462
-0.675404
-0.236881
0.301194
8.97957
0.0989574
46.4257
-6.76945
43.4879
0.0900548
-52.6483
-10.8029
-16.5732
0.120205
-43.9857
0.253518
27.5804
10.367
30.6568
-0.561849
-20.4707
3.23083
-49.0541
29.0413
10.1932
9.88935
-3.0692
-27.5599
10.2896
-53.2136
-38.3967
10.261
32.2176
10.1185
-24.5978
41.291
6.29779
-11.0487
41.2413
36.3567
-0.661441
0.897715
-51.1467
41.2312
8.63443
38.147
-7.81926
-51.5467
27.902
-5.20796
0.0450192
0.117964
0.111465
-1.28916
12.0551
-32.394
-2.61956
-37.3649
14.5577
36.6649
-12.9331
34.7408
0.0618373
-0.0387258
-17.772
55.7586
-20.397
46.0604
14.1021
2.47737
22.8172
2.89781
15.2016
-0.0035269
0.0674101
0.00418467
-0.0218022
7.03519
-17.0887
11.6183
-33.9685
2.77266
-43.4354
7.75507
-26.806
43.2847
-4.48051
-3.70599
0.0577891
37.1733
0.0145046
20.9948
-3.98869
7.75224
-12.9219
-1.37175
29.9933
33.6369
-18.3981
0.15786
-1.81795
-31.734
-63.3594
-9.09175
49.6336
24.9789
52.7962
56.2566
42.5074
-37.1449
-2.58953
42.4414
-43.6866
-0.00113331
3.7713
0.030075
-29.8146
-13.8982
-3.27639
-0.328543
-10.6385
-0.0761021
9.58335
-37.9673
39.8517
-46.9689
9.55093
-3.75857
8.21958
-0.544181
-9.32192
-53.1573
-1.87275
-30.805
-21.3978
9.90149
-52.0054
-43.6909
9.88272
-16.9332
-17.5217
21.8229
9.89947
-15.6724
25.2826
-53.8061
-33.1497
-45.2633
38.0237
-33.2789
2.94608
23.6496
2.46692
-57.1372
-48.6872
-1.35048
-2.29365
47.6832
-4.54519
-39.7078
-4.79732
-19.3498
-66.0236
-31.5949
-31.5832
1.0754
-31.5657
0.134215
-31.5178
12.8322
-24.4322
48.0936
-31.1132
18.8881
-32.9572
-30.564
-20.2342
-45.3108
31.5022
29.3149
-30.8617
9.33006
24.7051
15.3026
4.31469
11.9972
-4.12269
-32.3388
-89.0791
-32.6641
14.4099
18.1378
-40.9208
22.4289
-33.2992
-16.808
4.77501
3.82901
-30.3634
10.8917
-32.2195
12.5933
29.0143
30.9398
58.0729
27.7985
-29.1664
-61.0734
41.956
10.8806
34.9711
-48.962
-31.6714
49.0606
28.1987
-5.03278
20.2108
23.6409
-42.7139
-33.8727
-44.6957
14.6152
9.19948
34.0221
-59.516
42.3341
26.9659
11.2319
35.2246
-33.8068
1.20659
0.668701
11.1751
-14.6064
-49.0906
-32.0911
42.8743
-14.9698
-22.3385
-47.5105
40.6101
44.1183
36.4994
-33.4344
-98.2975
42.5931
-32.7994
-55.3755
44.0332
-2.8879
-11.2245
10.7259
-0.827544
-1.25631
-11.574
41.6558
-30.8738
0.668741
-1.01076
-1.16224
-0.766754
-2.72242
3.28934
-33.1917
-10.4615
-1.34044
-53.0362
-68.9428
-30.632
-20.811
-2.81299
-18.3752
-29.2738
-42.1804
-1.18877
-36.7365
-3.00455
-36.8498
-32.3354
40.8109
17.7841
24.6236
0.0824403
3.9667
-71.5615
-25.372
-11.5382
-45.4314
0.00338932
-62.7645
-45.194
-27.0591
-45.3084
-6.43351
14.3044
10.2302
13.7413
9.37653
40.8405
0.00689867
-0.0145519
-0.0318218
13.1712
-9.87165
-47.4302
-57.3266
14.7302
35.7004
23.0333
28.2248
-1.47848
-47.7311
-7.20295
11.1871
2.47624
-3.26055
17.577
5.88305
-16.1405
13.1922
-13.2783
-11.1353
-8.45347
15.9234
34.516
-32.0306
51.1112
-31.5643
17.7546
-53.4356
-45.2522
-12.0238
12.276
32.5183
-11.028
-32.0674
4.05031
13.0173
-18.7162
-31.0742
15.292
44.9083
57.1711
-29.1651
-4.4321
-55.65
13.3161
-0.81917
-10.7861
9.38192
5.61319
-16.5808
1.89086
7.10239
-44.4698
-11.8689
-30.9542
-15.0936
-32.3645
-0.0770472
10.5291
-53.0898
-19.5499
-0.0484025
57.665
10.5142
44.2027
8.3247
-29.0512
15.4695
-1.30843
32.0634
53.5443
14.0566
32.2887
0.0635417
-45.2072
10.9418
10.8482
-7.10238
5.69625
-39.3827
-5.57978
-12.1157
11.1082
2.2665
-23.1622
3.58149
8.07945
-9.51134
-13.2795
-28.4829
0.0339949
12.5895
0.00796859
12.7793
0.0754363
-21.2639
10.9358
-24.1417
10.3065
-28.0372
0.00992895
31.6541
-10.1656
33.7561
0.0528961
5.58275
0.118018
0.00914593
-6.10379
6.20908
15.39
32.2625
27.8917
-33.8149
-50.6627
40.8567
22.8881
19.9995
3.9652
0.0120977
0.0246923
-75.5619
41.6109
17.19
13.2366
0.0508512
17.1627
0.102492
0.000945683
-22.7927
-26.2427
-38.808
-34.6917
5.63591
-0.557922
-7.60057
10.7591
40.167
9.17953
-21.2742
9.05823
-8.55119
-76.4782
-17.3007
0.0671811
2.37577
-11.0478
-9.71931
-37.1233
11.2965
-36.3962
22.0422
-76.6116
-31.5913
-29.6169
0.103076
20.1551
1.74434
11.021
32.6842
11.0817
-12.9826
9.1169
10.1483
7.15539
10.9799
-40.6945
15.3551
3.33915
40.8972
10.3786
-23.7054
11.1695
11.0856
-31.9001
-78.389
-29.1509
-31.4573
-31.9352
8.07661
55.8655
-34.1515
-4.81078
10.6311
18.1165
-31.9089
0.220099
-0.0192782
9.1575
-23.8155
-31.4193
-50.609
29.6011
-3.35594
0.249747
1.50779
-31.4298
26.0464
8.02634
-54.9818
-32.9335
-31.9713
57.5983
12.334
8.84722
1.37161
12.4353
-50.6233
15.248
9.47796
17.2774
-6.12918
15.3348
21.2391
42.2465
34.0177
8.88574
-19.8058
20.5796
-11.0898
0.191081
0.254936
29.2013
-32.2635
-13.4748
0.171965
53.0571
0.252231
-31.566
28.0357
18.5049
37.1261
-31.08
-20.9451
-30.8565
29.7643
-15.0661
-34.0661
-6.51717
9.57672
0.119022
12.2719
-0.939917
12.8572
-1.30339
9.70067
-1.39365
-13.6646
0.0197776
32.8764
1.53425
2.43821
-26.043
7.61383
-0.561874
9.24226
-7.11966
-33.3724
-44.935
-21.5428
2.65365
34.6473
0.118405
56.1356
-31.7725
55.9337
50.147
0.270089
3.0733
5.13038
0.216219
0.0999572
-90.0272
9.82261
-24.2753
-14.7651
3.01727
-0.94395
-31.9282
5.35199
5.29152
7.81389
4.95261
0.250664
-30.966
-6.43821
-0.439003
-27.9353
-0.256069
-1.29246
-0.573784
-0.4359
-9.96372
6.53924
-55.6346
-1.19624
-0.551826
-14.0732
-18.637
20.7099
-20.553
10.3534
10.2361
-0.0244637
0.0369646
-12.7609
-17.4803
8.39156
0.00787385
-3.62959
9.21146
-0.00959848
54.2403
-0.05118
-1.82602
0.0450101
-0.0408522