/*--------------------------------*- C++ -*----------------------------------*\
| =========                 |                                                 |
| \\      /  F ield         | OpenFOAM: The Open Source CFD Toolbox           |
|  \\    /   O peration     | Version:  2506                                  |
|   \\  /    A nd           | Website:  www.openfoam.com                      |
|    \\/     M anipulation  |                                                 |
\*---------------------------------------------------------------------------*/
FoamFile
{
    version     2.0;
    format      ascii;
    arch        "LSB;label=32;scalar=64";
    class       surfaceScalarField;
    location    "0.0949388";
    object      phi;
}
// * * * * * * * * * * * * * * * * * * * * * * * * * * * * * * * * * * * * * //

dimensions      [0 3 -1 0 0 0 0];

oriented        oriented;

internalField   nonuniform List<scalar> 
92401
(
0.150746
-0.0997634
-0.00667535
-0.0443077
-0.0647065
0.0615752
0.0414566
-0.0383253
0.0221318
-0.0395672
0.0429122
-0.0254767
0.0066109
-0.0132187
0.0130439
-0.00643615
0.0014457
-0.000577133
-0.0060444
0.00517584
0.0193878
0.00968347
-0.025285
-0.00378625
0.0059269
-0.00479955
0.000318348
0.0321943
-0.0255118
0.0127053
0.0480789
-0.038643
0.0324574
-0.0418933
0.000326827
-0.000521159
0.000273733
-7.94013e-05
0.00468298
-0.0414516
0.0385942
0.0243236
0.0243139
-0.0872318
-0.0177347
0.0112237
-4.31029e-05
0.00655419
-0.034343
-0.0399179
-0.0157169
-0.0215522
0.0598382
-0.0225691
0.00208053
-0.0664508
0.0643703
-0.00252779
-0.00776978
0.00204871
0.00349801
0.00222307
-0.000945985
0.00154203
0.000210651
-0.000806697
-0.00500052
0.0109656
-0.000124224
-0.00584081
0.0165368
-0.00576781
-0.00503591
-0.00573311
-0.0406827
0.008329
0.0369391
-0.00458539
-0.0394971
0.0110323
-0.0547803
-0.0540147
-0.00258329
0.0547954
0.00180253
0.0906746
-0.0892107
0.0219942
-0.0234581
0.0502725
0.0601431
-0.0719889
-0.0384267
-0.0325992
0.051147
-0.0580448
-0.00275304
-0.000988237
0.00401043
-0.00026915
0.031415
-0.0636456
-0.000368659
0.0609511
-0.0602003
-0.032233
0.0314822
0.0124733
-0.0172694
0.00137768
0.00341842
-0.0362582
0.106873
0.0618448
-0.132459
-0.0846923
0.107517
0.00897477
-0.0317997
-0.131151
0.0325591
0.0294806
0.0691113
0.0148136
-0.0621489
0.0375342
0.00980097
0.0602669
0.00925764
-0.0547109
-0.0441115
0.0100994
0.0024059
0.0316062
-0.050416
-0.0411775
0.0654818
0.0261118
-0.033191
0.0406795
-0.0137009
0.00621236
-0.0204588
-0.103563
0.0666415
0.0573807
-0.0857177
0.087405
-0.00168732
0.0286068
0.00271619
-0.0676897
0.0363667
-0.00528944
0.0306673
-0.0183596
-0.00701835
0.0268854
-0.0503977
0.0235123
0.000135319
2.97159e-05
-0.000136229
-2.8806e-05
0.00130876
-0.0588103
0.0575015
-0.0683768
0.0428723
0.0621429
-0.0366384
0.090124
-0.0254208
-0.0128086
-0.0518946
-0.000571414
0.0713648
0.00112163
-0.071915
-0.0474893
0.0733769
0.0395558
-0.0654434
0.000568004
0.00109714
-0.000400453
-0.00126469
-0.00197652
-0.00363815
-2.48109e-05
0.00563949
-0.0383103
0.0840355
-0.0462369
0.000511743
0.000312161
-0.000662278
-0.000413149
0.000763265
-0.0553127
0.0543908
0.000921911
0.0752601
-0.00771851
-0.018729
-0.0488126
-0.100786
0.0930235
0.00441844
0.00334424
-0.0547789
0.0273778
0.0109569
0.0164442
-0.00266741
-0.0148719
0.00752458
0.0100147
-0.0124521
0.0257292
0.0374263
-0.0507035
0.000738404
-0.000306998
-0.000119244
7.42273e-05
-0.000109395
0.000801266
-0.000766098
0.000246145
0.000101552
-0.000144284
-0.000203413
0.00413493
-0.00916506
0.00502536
4.7686e-06
0.0679124
0.00506082
-0.0172013
-0.0557719
-0.0149763
-0.00481247
0.0107985
0.00899034
-0.0409775
-0.0528729
-0.0547668
0.148617
0.00366087
-0.0356566
-0.00268426
0.03468
-0.000223481
0.000427715
0.000295625
-0.00049986
0.00424894
0.00449752
-0.0278526
0.0191062
0.0189297
-0.00638965
-0.00968249
-0.0028576
0.0419157
-0.0765717
-0.027867
0.062523
-0.0293824
-0.0030041
0.0102414
0.0221451
0.01218
0.00836974
0.0129874
-0.0335371
-0.000232056
-0.000258392
9.11472e-05
0.000399301
0.0252297
-0.00973263
0.0365655
-0.000227783
0.000182749
-0.000305651
0.000350684
0.044367
-0.0330314
-0.0681332
0.0567976
0.000257488
-0.0001683
-8.91884e-05
-0.00113729
4.14308e-05
0.000544098
0.00055176
0.000561535
-0.000242503
0.000167954
-0.000486985
0.0225901
-0.0230833
-0.0622552
0.0627483
0.00107842
-0.0126934
0.00290632
0.00870866
0.0430099
0.0585869
0.0185246
-0.120121
-0.105271
0.0210851
0.120017
-0.0358314
-0.00544438
-0.045063
0.00374015
0.0467672
0.0556905
-0.0310615
0.0266558
-0.0512847
0.0277476
-0.0031175
-0.155858
0.131228
0.00960068
0.0146574
-0.0286084
0.00435028
0.000685548
-0.000165877
-0.000767468
0.000247796
0.0381281
0.0123193
-0.00129195
-0.0491555
-0.00255946
0.0853308
-0.0868483
0.00407688
-0.0180356
0.0494664
-0.116179
0.0847481
0.0427098
0.00541343
-0.0535676
0.0428261
-0.00011633
-0.00232891
-0.0295463
0.0421084
-0.0102333
0.0708668
0.0170127
-0.031591
-0.0562886
0.133687
-0.148085
-0.0304397
0.0448383
-0.015207
-0.0462445
0.0591226
-0.082435
-0.000807013
0.083242
0.00106372
-0.0978536
0.163138
-0.0663485
-0.00254877
0.0033653
-0.000615327
-0.000201198
0.0899246
-0.1493
0.0303556
0.0290203
0.00155496
-0.00046075
0.000913086
-0.0020073
-0.0872233
0.142888
-0.104236
0.0485713
0.0310743
0.00262075
-0.0419765
0.00828146
0.086027
-0.0147495
-0.0847433
0.0134657
0.00580129
0.0321572
-0.0531654
0.0212959
0.0250216
-0.108138
0.0618205
0.0871052
0.113392
-0.0799613
-0.120536
0.000327243
-0.00025712
-8.99653e-05
1.98422e-05
-0.0936138
-0.0284449
0.110586
0.011473
0.00154252
-0.00573411
0.0159671
-0.0117756
-0.0141616
-0.0343686
0.058956
-0.0104258
-0.00560197
0.017782
-0.0148242
0.00264424
0.00041544
-0.000681104
-0.00061341
0.000879074
0.022761
-0.0266974
-0.00166558
-0.00186192
-0.000701419
0.00153241
0.00103092
-0.0576398
0.0604615
-0.00282177
-0.00259654
-0.00644136
-0.00228029
0.0113182
-0.0371766
0.028794
-0.00577895
0.0183404
-0.047236
-0.0557967
-0.0512991
0.0415541
0.0983288
-0.0885838
-0.00766117
-0.00185092
0.0052219
0.00429019
0.0467547
0.0111893
0.00210574
-0.0600497
0.000622125
-0.00968276
0.00722673
0.0018339
-0.0406762
-0.0546245
0.0115796
0.0837211
0.0647101
-0.0388775
0.0266247
-0.0524573
-0.00961091
0.0599111
-0.0589632
0.00866303
-0.0591673
-0.0340866
0.00786145
0.0853925
0.0162601
0.0048171
-0.0328998
0.0118226
0.0649028
-0.0634832
-0.00141956
0.0018817
0.00178291
-0.00156817
-0.00209643
0.040768
-0.0443206
0.00355258
-0.0538598
-0.0405354
0.105065
-0.0106701
0.000823937
-0.00998685
0.00993573
-0.000772813
0.00267685
0.00584554
0.0028234
-0.0113458
0.00161372
0.00694757
-0.00793916
-0.0246857
-0.0578423
-0.00911198
0.09164
0.0255737
-0.00821894
0.0191097
-0.0364645
-0.0840069
0.0925767
-0.101288
0.0927184
0.0758002
-0.0489312
-0.026869
0.00163757
-0.0346764
-0.0101407
0.0431794
0.00800708
-0.00560232
-0.00966773
0.00726297
0.0461337
-0.069861
-0.0618567
0.085584
0.0740277
-0.06471
0.0293632
-0.038681
-0.0135763
-0.0100486
0.034115
-0.0104901
-0.0581764
-0.086752
0.0572962
0.0876322
-0.0416171
0.0543456
-0.0110909
0.097701
-0.0482749
-0.0494261
-0.00489254
0.0156991
-0.00279953
0.000988552
0.000677352
-0.000704058
-0.000961845
0.0473399
-0.0157959
-0.00524744
-0.0262966
0.00358694
-0.00187064
-0.000429415
-0.00128689
0.00535213
-0.0101676
0.00869499
-0.00387952
0.0724431
-0.0428093
0.0262554
-0.0558892
0.00899214
-0.000519934
-0.00682554
-0.00164667
0.00164214
-0.000599526
-0.00104261
-0.0664477
0.0658008
0.000646911
0.0117982
0.00588187
-0.0965642
0.0788841
-0.0121495
0.0144507
-0.0102646
0.00796333
-0.0734397
0.016798
0.0834374
-0.0267956
0.0187782
-0.0979559
0.0759128
0.00326486
-0.0526916
0.0429609
-0.00843296
0.0181637
0.00856827
-0.00183039
-0.00293038
-0.00380751
7.81477e-05
-0.000635023
0.000556876
0.0282589
0.170919
-0.245671
0.0464929
0.000231748
9.77304e-05
-0.0247821
0.0600924
-0.0524422
0.017132
2.51987e-05
0.00514499
-0.00444412
-0.000726069
-0.000209358
0.00112567
-0.00115882
-0.0707529
0.000563161
0.0701898
-0.0323861
0.113782
-0.0477411
-0.0336546
0.000547303
0.000471717
0.00944445
-0.0104635
0.000389209
0.0928888
-0.093278
0.00240137
-0.00161695
-0.00123567
0.000451251
0.00136937
0.000698188
-0.000708869
-0.00135869
-0.0366891
-0.0016391
0.0325196
0.018686
-0.0636577
-0.0723571
-0.0163828
0.00639686
0.082343
-0.000624037
0.00199341
-0.101885
-0.0413005
0.112573
0.0306128
0.0272455
0.171053
-0.085474
-0.0578622
-0.0277169
-0.0183684
0.11936
-0.0435636
-0.0574284
0.0397218
0.0299355
0.0386249
-0.108282
0.104787
-0.249158
0.109595
0.0347761
0.00164031
-0.00145429
-0.00138149
0.00119547
-0.0123484
-0.0353084
0.0553485
-0.0076916
0.026795
0.0406865
-0.0269505
-0.040531
-0.0353563
-0.0258019
-0.0197627
0.0809208
-0.0533702
-0.0139088
0.0549305
0.00122996
-0.0119426
0.00924432
0.00146833
0.0553756
-0.0284481
-0.0508475
0.02392
-0.0897679
0.105637
-0.0503215
0.0344525
0.0170293
-0.0234526
0.00674957
-0.000326259
0.0517959
-0.0600585
0.0636382
-0.0574696
-0.00351796
-0.0136268
0.0746145
-0.00527529
-0.0134186
0.00260245
0.0160914
0.000417065
0.0595418
-0.0589321
-0.00102676
0.135397
-0.0538567
-0.00241543
-0.0791253
0.0606656
-0.00782
-0.049573
-0.00327255
0.0489995
-0.0234659
-0.063643
0.0381093
-0.0101074
-0.00163784
0.0151941
-0.00344883
0.00542745
-0.00171019
-0.00474067
0.00102341
0.00254143
-0.0442543
0.0409223
0.00079065
-0.000733239
-0.0863603
0.0034482
0.0197664
-0.0128445
-0.0631138
0.0465025
0.0166113
-0.0595533
-0.0170395
0.0109745
0.0656183
-0.102512
-0.000930462
0.105783
-0.00234138
0.00373268
0.0241302
-0.0129468
-0.0149161
-0.0713349
0.149754
-0.065987
-0.0124324
-0.00475099
0.0135459
0.0223301
-0.0311251
-0.0528753
0.101126
0.0396711
-0.0879217
0.0294474
0.00111952
-0.014176
-0.016391
-0.0364973
0.0382059
0.000832897
-0.00463928
0.007526
-0.0102413
0.00735455
-0.000239095
-0.00456683
0.0101581
0.0360693
0.0377737
-0.0738431
0.00107388
-0.00189137
8.87449e-06
0.000808617
0.0204393
0.00839082
-0.0194781
-0.009352
0.0226568
0.00888283
-0.000743668
-0.030796
-0.0528698
-0.00245872
0.00729346
0.0480351
-0.000204407
-0.0440499
-0.000983874
0.000497231
0.00156052
-0.051828
0.0373128
0.0517986
-0.0372834
-0.0444637
0.0300503
0.0169537
-0.00254026
0.00141098
-0.0037694
-0.00996384
0.0123223
-0.010107
-0.00508945
-0.0027536
0.0179501
-0.0437525
-0.00492793
0.0121831
0.0722312
0.0393962
-0.0719761
-0.0396512
-0.0462863
-8.18486e-05
0.0463682
0.0861925
-0.0486818
0.0595895
0.00368881
-0.00766134
-0.0373252
0.0412977
0.0358248
0.0113072
-0.00532307
-0.0418089
-0.00045563
0.000339962
0.00101727
-0.000901601
-0.0168794
-0.0448893
0.0617687
-0.000200372
-0.00139255
-0.00416519
0.0308908
-0.0230368
0.00618662
0.0279099
-0.0417579
0.0978686
-0.0907152
-0.00216185
-0.00499156
-0.0214134
0.101607
-0.0184897
-0.0617034
-0.0316247
0.00676282
0.0132453
0.0116167
-0.0390232
0.0358947
0.0136765
-0.010548
0.0325683
-0.0251267
0.00134343
-0.00878509
0.0193359
0.073564
-0.124499
0.0315991
0.0762909
-0.0752767
-0.0243102
0.0232961
-0.143232
0.00195802
0.00380809
0.137466
0.0304827
0.0123532
-0.0411142
-0.0017217
0.0400457
-0.0571579
0.0204304
-0.00331825
0.0021643
-0.00119413
0.000220975
-0.00119114
-0.0146639
-0.00111412
0.0734008
-0.0416421
0.0188067
-0.0505654
-0.0120919
0.0477236
0.000341517
-0.0359733
0.00511477
0.0964431
-0.0935855
-0.00797232
0.049534
-0.0989963
0.0579368
-0.00847446
-0.0483802
-0.000475862
0.0367642
0.0151179
-0.00324678
0.00869002
-0.0205612
-0.0234256
0.0477888
-0.0133067
-0.0110564
-0.0482931
-8.71123e-05
-0.00559709
-0.122878
0.175914
-0.0474383
0.010054
0.00976966
-0.0633617
0.043538
0.0493813
0.00542444
-0.0447517
-0.0132607
0.00693096
-0.00382266
0.0101524
-0.0610387
0.000954744
0.060084
0.110834
0.0441619
-0.136992
-0.0180038
-0.00959609
0.000336486
-0.00400114
0.0184378
-0.116222
-0.0226842
0.120468
0.0126894
0.0660433
-0.068963
0.00278403
-0.0556718
-0.0104739
0.000524668
0.00196118
-0.00268622
0.00208012
-0.00178526
0.000229808
-0.0510234
0.026255
0.0741509
-0.0493825
-0.00193826
0.00102275
0.000956942
-0.0341059
-0.0077295
0.0446195
0.000279336
-0.000256421
0.000357637
-0.000890444
0.000123019
0.000409787
0.00026059
0.00209887
-0.0018233
0.0014623
0.000148507
0.000212496
0.000255239
-3.86363e-05
0.000521801
0.107738
0.124673
-0.081664
0.0002133
-0.000538549
0.000580488
-0.0528762
0.0527462
0.000130007
-0.0104466
0.0762311
-0.0720393
0.00625472
0.00162813
-0.0198089
0.00538233
0.0127985
-0.0602877
-0.00303516
-0.0172191
0.0040288
0.0472826
-0.0340923
-0.0628376
-0.00362749
0.0664651
-0.0073791
-0.0164949
-0.0128081
0.0366821
0.000342078
-0.000392791
-0.000547483
0.000598195
-0.00388899
-0.00736435
0.00912741
0.00212593
0.0549849
0.043905
-0.0175069
0.0483276
0.0897096
-0.0381561
-0.0998812
-0.0126316
-0.0441547
-0.01887
0.0186319
-0.0537207
0.0539588
-0.0112263
0.0283026
-0.00549298
-0.0115834
-0.0150694
-0.0134994
0.0133795
0.0151893
0.096324
-0.0946039
0.0186511
-0.0203712
0.00131204
-0.00443579
-0.000538457
0.0036622
0.00121728
-0.0676556
0.0664384
-0.0727589
0.00341964
0.067114
0.00222519
0.0390205
0.0382796
-0.0773001
0.0190846
-0.0599252
0.028209
0.00191597
-0.00106933
0.000406582
-0.00125323
0.000281941
-8.03794e-05
0.000899418
-0.00110098
-9.20639e-05
0.000445166
-0.00103075
0.000677644
0.0643969
0.0567208
-0.0396974
-0.0814203
0.00583124
-0.087342
0.0826769
-0.00116614
-0.0138035
0.000730494
0.0264776
-0.0134047
0.0536016
-0.0527284
0.0191342
-0.0200074
-0.000555897
0.0013876
-0.000695299
-0.000136407
0.0201829
0.0478706
-0.0489688
-0.0468571
-0.0016351
0.00105917
0.00143433
-0.000858406
0.00151415
0.0817282
-0.0832423
-0.0498554
-0.0149857
-0.0222395
0.0870806
-0.0499428
8.73584e-05
0.0116077
0.0167442
0.0166711
-0.045023
0.000575983
-0.00269045
0.000489946
0.00162452
-0.00181952
-0.000412309
0.000596727
-0.106584
-0.0094022
-0.04339
0.159376
-0.00977896
0.00737878
0.136808
-0.134408
-0.03856
0.0418797
-0.0648923
0.0615725
-0.0808083
0.0803034
0.000504891
0.00120682
-0.0499511
-0.0304848
0.066901
0.0193389
-0.00595925
-0.0802806
0.050577
0.0959608
-0.158913
0.0123754
0.0416555
0.0157083
0.0334927
-0.0908565
0.103847
-0.108342
0.043515
-0.00374313
0.0135506
-0.0122531
0.00244564
-0.00117078
-0.000210081
-0.000487822
0.00186868
-0.00289739
-0.00567658
0.0017427
0.00683126
0.0609039
-0.00623726
-0.018501
-0.0361656
-0.0567443
0.028218
0.0285263
-0.0930545
-0.00750822
0.0117609
0.000763704
-0.000573353
-0.00136113
-0.118222
0.0265024
0.00512203
0.0865977
0.00120081
-0.0531535
-0.0102955
0.0622483
0.0458107
0.028574
-0.102045
0.0276601
0.0385884
-0.0435757
-0.0191419
0.0241292
0.0485886
-0.0602673
0.0502671
0.0324529
-0.0569487
0.0496523
-0.0251565
0.0347155
-0.0360414
0.000320907
0.00100504
0.0162192
-0.142345
0.0914902
0.0346357
0.00138284
-0.0617664
-0.00392458
0.0520052
0.000436695
-0.107221
-0.0339745
-0.00863119
0.00685887
0.0357469
-0.0484996
0.0444154
0.0499883
-0.0459041
-0.0423169
0.0818063
-0.0394895
0.0105118
-0.102426
0.0483384
-0.0170784
0.0073684
0.024768
-0.015058
-0.0877189
0.0933178
0.0360823
-0.0416812
0.0588043
0.0329545
-0.0829816
-0.00877715
-0.0463166
0.14208
0.00426595
-0.100029
-0.000550831
0.00285309
0.00370877
-0.00601102
0.0537712
-0.0721167
0.0830754
-0.0647299
0.00776895
-0.0390472
-0.00821483
0.0394931
-0.043513
0.0315236
0.10342
-0.0914307
-0.0499877
-0.0264453
0.0528806
0.0235524
-0.00954535
-0.000541126
0.0062157
0.00387077
-0.011488
0.0246179
-0.0182869
0.00515705
-0.000258641
0.0749575
-0.0746989
0.0148677
-0.0439008
-0.0194665
0.048118
-0.034328
-0.000575776
-0.0132142
0.00221195
-0.0269341
-0.0217693
0.0464914
0.0344498
-0.0343789
-7.08925e-05
0.0611718
-0.0417171
0.0643204
-0.0837751
-0.0988572
0.096806
0.0983751
-5.01762e-05
-0.0107502
-0.00178756
0.0125879
0.0493175
-0.000283379
0.000115983
0.00033328
-0.000165884
-0.000634384
0.0491931
-0.113307
0.0647485
-0.00850454
-0.000742898
0.00502946
0.00421797
0.0268864
0.00996033
-0.0368468
0.0012861
-0.000906125
-0.00888452
-0.0293203
-0.0435882
0.0190487
0.0572489
0.000977951
-0.0582268
0.0728504
-0.0441378
-0.0511904
0.0224778
0.00173963
-0.0251083
-0.0207428
0.0693843
0.0430354
-0.0395693
-0.00800372
0.00923965
0.133348
-0.119539
0.0378305
-0.0516387
-0.0450173
0.0364894
0.0218835
-0.0133556
-0.052986
0.0524508
0.000535176
-0.0477766
0.0296447
0.0106814
-0.0465944
-0.0108253
0.0467383
-0.00217636
0.161173
-0.161094
0.00209748
0.107652
0.0159362
-0.0160707
0.050788
0.00859403
-0.0511918
-0.0081902
-0.0145385
0.0047445
0.010787
-0.000993012
-0.00952034
-0.00546851
0.00467698
0.0103119
0.0661456
-0.0377896
-0.0526583
0.0243023
0.0295768
-0.0152678
0.0241509
-0.0384599
0.0268295
-0.0938281
0.0897116
-0.0227131
-0.00600323
0.000523522
-0.0090588
-0.0943441
0.106876
-0.0227994
0.0102676
-0.0114805
0.0482271
0.0140388
-0.0507854
-0.00395152
-0.000860936
0.003172
0.00164045
0.0838524
-0.00453482
0.0510934
-0.130411
2.52758e-05
-0.000657927
-5.9623e-05
0.000692274
-0.0671961
0.0589327
0.0742534
-0.06599
0.00300913
0.000583633
-0.00205457
-0.00153819
-0.0774542
0.0753161
0.00213813
0.0640141
-0.0604167
-0.00359736
0.0603298
-0.000762312
-0.0595675
-0.0111121
0.123459
-0.00039564
-0.111951
0.00984597
-0.0310261
0.0327878
-0.0237297
-9.22803e-05
-0.0562225
-0.0675423
0.0114832
0.0663268
-0.0102677
-0.0133724
-0.00215112
1.69864e-05
-0.000330954
3.23714e-05
0.000281596
0.00121412
-0.000100296
-0.000230719
-0.000883103
-0.0634805
0.00806709
-0.0016386
0.057052
0.000322072
-0.00551517
0.0020158
0.0031773
0.012376
-0.0147846
-0.000101592
0.00251015
0.00828006
-0.00671783
0.0108138
0.0554259
-0.00943027
-0.0225428
-0.0234529
0.0362529
-0.00535662
-0.0364352
0.00553892
8.28704e-05
0.0666992
-0.000195432
-0.0665866
0.00758644
-0.0709343
0.0190868
0.0442611
-0.0428071
-0.031825
0.0416511
0.032981
-0.0364094
0.0226676
-0.0921998
0.105942
-0.0010607
0.0154273
-0.00786663
-0.00649994
0.0489919
-0.0588193
0.047358
-0.0375306
-0.0626862
-0.006859
-0.00794203
0.00107951
-0.000428209
0.00442202
-0.00507331
-0.0123223
-0.00275358
0.0018454
0.0132305
-0.00829478
-0.00949743
0.0109405
0.0068517
-0.000150943
-0.00222581
0.00146605
0.000910707
-0.000246662
0.000296893
-5.02319e-05
0.00117703
-0.074993
-0.0279118
0.101728
-0.000150415
-1.56656e-06
-0.00146588
0.00161786
7.54535e-05
-0.000260737
-6.13776e-05
0.0037367
-0.0665743
-5.17711e-05
-5.96283e-05
0.000408293
0.000573271
0.000215965
-0.000351478
-0.000437758
-0.0280961
0.0627957
0.0787787
-0.113478
-0.0093376
-0.00214937
0.00732255
0.00416441
-0.0147115
-0.000403982
0.00577787
-0.00549741
0.00554251
0.0134568
-0.0135019
-0.000294721
0.0004398
-0.00019685
-0.067597
0.0685594
-0.00096237
0.0301366
0.0474889
-0.0601993
-0.0174262
0.011916
-0.075508
-0.0215602
0.0851522
-0.0137367
0.00270033
0.00553898
-0.00450821
-0.0065407
-0.00268782
-0.0165455
0.0591454
0.0127385
-0.0553384
0.0699572
0.00502142
-0.054892
-0.0200866
0.000272608
0.000392167
-0.000639609
-2.51664e-05
-6.68102e-05
-0.000152457
-0.00265587
-0.00116015
-0.00141776
0.00523379
0.0650873
-0.0459257
0.0120499
-0.0312114
-0.000850382
-0.00268477
0.00138342
0.00215174
-0.0181394
0.0110216
-0.00244434
0.00956211
0.000817813
-0.101701
0.101828
-0.00094464
0.00321068
0.000854452
-0.0106965
0.00663135
0.0104922
-0.0110603
0.00157998
-0.00101186
0.00987399
0.00415239
-0.0108157
0.0367792
0.0562647
-0.0279566
-0.0272798
0.0548045
0.0281953
-0.0557199
0.0277504
-0.0550303
-0.00107146
0.000739225
-0.0328588
0.012473
-0.010048
0.0792179
0.0232215
0.00742233
0.0696418
-0.0540921
0.0976688
-0.113218
0.00470511
0.0924374
-0.0971425
-0.00699863
-0.00737304
0.0137217
0.000650011
-0.0339704
-0.08716
0.0274315
0.093699
0.0218267
0.0613493
-0.0244181
-0.058758
-0.0235278
0.113235
-0.052928
-0.0418442
0.0448941
0.0517546
-0.0558444
0.0558002
4.41842e-05
-0.0391596
0.0366632
0.00249644
0.0397182
-0.0779416
0.0724057
-0.0341823
0.0683031
-0.0848486
-0.01016
-0.00808342
0.0112448
0.000607928
0.000577646
-0.000413963
-0.00077161
-0.00583908
-0.0426469
-0.00735836
0.00122437
0.00149963
-0.00265763
-6.63643e-05
-0.0574151
0.0518804
0.0855356
-0.0800009
0.037427
-0.0336227
-0.00380424
0.0118011
0.0234056
-0.0147775
-0.0204292
0.00421839
-0.000362906
0.00215359
-0.00600907
-0.0644654
-0.000808911
0.0199369
0.0453375
-0.00295882
0.00663705
0.000540152
0.0389754
-0.109392
0.104743
-0.0343259
0.0460714
0.0133222
-0.0593656
-2.80261e-05
-0.00363415
0.00695854
0.00174824
-0.00507263
0.000221246
0.0607281
-0.0609494
0.0384424
0.00698654
0.0152059
-0.0606348
0.00436845
-0.00732344
0.00259208
-0.186341
0.028771
0.165098
-0.00752827
0.0398506
-0.010948
-0.0289026
-0.0012498
-0.00149563
-0.00119653
0.00394196
-0.0426735
0.0470812
0.125867
-0.130275
-0.00194064
0.000686494
-0.00187696
0.0031311
0.091367
-0.00203732
-0.0432583
0.000519892
-0.0012698
0.00204045
-0.00129054
-0.0194724
-0.117464
0.0157666
0.12117
0.0037077
0.0525067
-0.00406918
-0.0521452
0.048366
-0.0694677
0.0600474
-0.0389458
0.0319196
-0.0365505
0.0486936
-0.0440627
0.00828268
-0.00142961
0.00552723
-0.0123803
0.00124441
-0.0443232
0.0533177
-0.0536854
-0.0361828
0.0969023
0.0176021
-0.0240342
-0.0904702
0.0463903
0.0192735
-0.132436
0.0667723
-0.00197203
-0.00858645
0.00628189
0.0042766
0.0277628
-0.0498099
-0.00323795
0.0287733
-0.0265223
0.00737261
-0.00588438
-1.4966e-05
-0.00147327
-0.0867039
0.00261428
0.000814437
0.0693968
-0.147867
0.0776559
-0.0281908
-0.0877006
0.0405071
0.0753843
-0.0731459
0.020297
0.00333309
0.0495158
-0.0430378
0.029011
0.0102406
-0.0825573
0.0956096
-0.0130523
-0.0208248
-0.00939754
0.117615
-0.0873922
-0.00367652
-0.00377132
0.00612301
0.00132483
-0.0258034
0.0591851
0.0406461
-0.0721681
0.0280303
-0.000830259
-0.000387519
-0.00103205
0.00224983
0.046503
-0.0489207
0.0544229
-0.0374737
-0.00720668
-0.0447216
-0.123324
0.0475861
0.0757379
-0.0429203
-0.0325218
0.0276656
0.00302052
-0.00222389
0.000913903
-0.00171054
0.00298292
-0.000482454
0.000520051
-0.0864295
0.00364655
0.0827829
0.0609803
0.0117923
-0.121264
0.0484915
-0.0714847
0.000751301
0.0707334
0.00124734
-0.00166984
0.00883511
-0.00841261
0.0488624
0.156568
-0.226581
0.0211498
0.00192734
-0.00231798
0.00132383
-0.000933197
-0.0916441
0.0649489
0.0265251
0.000170067
-0.000190498
-7.80467e-05
0.0017799
-0.00151136
-0.000662127
0.00833247
-0.00849532
0.000824982
0.0075377
0.00787998
-0.0147252
-0.000692509
0.040704
0.0124031
0.00305407
-0.00279876
0.00167204
-0.098629
0.105643
0.00666878
-0.0136828
0.0127214
-0.0682422
-0.0238812
0.0794021
0.00181438
-0.00418268
0.0874104
-0.0850421
-0.0353478
-0.0331825
0.0804302
-0.0118999
-0.0407488
0.0245503
0.0405911
-0.0243926
0.0537323
0.0206414
-0.0721274
-0.00224636
-0.00108595
0.000170324
0.00130065
-0.000385014
-0.123541
-0.0432158
0.0398734
0.126884
0.0482366
-0.0375552
-0.0319211
-0.0376946
-0.0311248
0.10074
-0.00180434
0.00422949
0.000513038
-0.00293819
-0.0310676
-0.0808651
0.0289211
0.0830117
-0.0296484
-0.0283972
0.0205719
-0.000675019
-0.0033532
-0.00163714
0.00300304
-0.00381946
0.00245355
-0.00571158
0.00562016
0.0253211
-0.0775219
-0.0856748
0.137876
-0.000471659
-8.87415e-05
0.000269816
0.000290585
0.0571326
-0.0601343
0.0479821
-0.0449804
-0.0149249
0.045268
-0.00805666
-0.0222864
0.0870012
-0.0865177
-0.0187234
0.0182399
0.02664
0.0218748
-0.0633735
0.0148587
-0.127415
0.0739489
0.0183755
0.0350901
-0.00534866
0.00333217
9.9869e-05
0.00191662
-0.00845662
0.00990079
-0.000196833
-0.0134402
-0.0037219
0.0178781
-0.000715995
-0.0599919
-0.00381939
0.012772
0.0510393
-0.00760288
0.103395
-0.00497611
-0.090816
0.00874394
-0.0476063
0.0810079
-0.0421456
-0.00138226
0.0041395
-0.00141647
-0.00134077
-0.0152703
0.000297381
-0.00200122
0.0169741
-0.107257
0.00744906
0.012794
0.0870139
-5.78372e-05
-0.000265449
0.000469908
-0.000146622
0.0371822
0.00811164
0.0269373
-0.00513542
0.0463781
0.0529434
-0.0941861
-0.000218328
0.000329351
-0.00016886
-0.000492371
0.00218675
-0.00150587
-0.000188509
0.0171098
0.111424
-0.0477823
-0.0807514
-0.000228342
-3.71073e-05
0.000106374
-0.000334715
0.0618734
0.0170934
-0.0923581
0.0133912
-0.15717
0.0860141
0.0772049
-0.00604862
-0.0181701
0.00019573
-0.0515062
0.0694806
0.0248639
-0.0144898
0.0167432
-0.0271173
-0.0664627
-0.0230888
0.0895515
-0.077878
0.0386853
0.0391927
-0.0016569
-0.000417222
0.000853147
0.00122098
-0.0380162
0.0411869
0.00780301
-0.0109737
0.0465227
-0.0545479
0.00802521
-0.0602719
0.0335275
0.045038
-0.0182935
0.00452672
-0.00289132
-0.00146696
-0.000168439
-0.00326852
-0.00242957
0.000349431
-0.0422102
-0.0417967
0.047285
0.014232
0.00251737
-0.0640343
0.00154354
0.000134846
-0.00135182
-0.000326572
0.00395488
0.0063273
0.00206878
-0.012351
0.00720883
0.023103
-0.0412893
0.0109775
-0.0190662
-0.0154237
-0.00914442
0.0436343
-0.0758538
-0.0118339
0.0314496
0.0562381
-0.0018603
0.0152079
-0.008275
-0.00507262
-0.0529658
0.000654406
0.0332453
-0.000219611
0.0253555
-0.135675
0.126385
-0.016066
0.0285664
-0.0344418
-0.0517644
-0.0271148
0.0548652
-0.000659325
0.0415318
0.00387175
-0.0447442
-0.0551247
-0.0599579
0.115083
-0.00326509
-0.00107689
-0.00173002
0.00607199
0.00314393
-0.00480609
0.00172876
-6.66028e-05
0.0371156
-0.00636943
-0.0282141
-0.002532
-0.00325381
-0.00236453
0.00235326
0.00352677
-0.0107759
0.0659011
-0.058652
0.0764059
-0.000394378
0.0270331
0.00984751
-0.00686393
-0.0300167
0.0584808
-0.00076472
-0.0577161
-0.0528705
0.113853
-0.0284228
0.0596883
0.0200889
-0.0513544
-0.0173827
-0.0250714
0.0181514
0.0243027
0.003067
0.00375965
0.000865671
-0.00769232
-0.0342084
-0.03796
0.0993256
-0.0271572
0.0459071
-0.0371107
-0.00077237
-0.00802407
-0.0472955
0.117481
-0.0534604
-0.0167251
-0.0012764
0.00153856
-5.24735e-05
-0.000209691
-0.000541313
0.0213465
-0.00484205
-0.0159631
0.00308899
0.00394556
0.000265596
-0.00730015
-0.000302107
-4.08332e-05
4.50436e-05
0.000297897
4.24209e-05
-2.90592e-05
-0.000315469
-0.00910773
0.0229601
0.0702235
-0.0840759
0.0814704
-0.0837829
0.00231254
0.000281294
-0.000257552
-2.37419e-05
-0.0126784
0.000964645
0.00230822
-0.00130996
-0.00196291
-0.00716776
-0.00689835
0.00463876
0.00942735
-0.0557559
0.027333
0.000318034
0.000190069
-0.000776491
0.000268388
0.0334707
0.0552524
-0.035264
-0.0534591
0.0118999
0.159678
-0.180036
0.00845813
0.0582866
0.0632951
-0.0618933
0.00177589
-0.013615
-0.00194217
0.0137813
-0.0333978
-0.0301138
0.0635117
0.0311241
-0.0645219
-0.0544722
-0.0452017
-0.0657176
0.165392
0.0495653
-0.0553603
0.00579504
-0.0729207
0.135193
-0.071703
0.0329385
-0.0299442
0.0862079
-0.00339399
-0.0691384
-0.0136754
0.0694057
-0.0695317
0.0117536
-0.0116276
0.000153195
-0.00622817
0.00711065
-0.00103568
0.000228927
-0.00418978
0.00665244
-0.00269158
-0.000249843
0.000242949
0.000623282
-0.000616388
0.0221712
0.0235176
-0.0337748
-0.011914
-0.00542317
-0.00483394
0.00617738
0.00407972
-0.0108999
0.031988
-0.0425735
0.0214853
0.00113382
-0.00854009
0.0106605
-0.00325426
0.0484688
-0.00414108
-0.0443278
0.0380473
0.0357517
-0.126571
0.0527715
-0.0979043
0.0599808
0.0759708
0.0329849
-0.0997651
-0.0469236
0.107873
-0.0370618
-0.0238874
0.00161303
0.00926717
-0.0124675
0.00158733
0.0270039
-0.00223974
-0.0247642
-0.0305217
0.0435789
-0.00387899
0.0203473
-0.0315377
0.000910938
-0.000205429
0.00111231
-0.00181782
0.0117333
-0.0382556
-0.000308492
0.000139883
0.000228984
-6.03751e-05
0.00278926
-0.000445616
0.00110966
-0.0034533
-0.000731551
-0.00263144
-0.0780061
-0.0128286
0.0016031
-0.0118737
0.0230991
0.0202975
-0.0907762
0.0207335
0.0497452
-0.0033994
0.0582907
-0.0819647
0.0270733
0.000536307
-0.000310172
0.000165784
-0.000391919
0.079056
0.0125581
0.00226269
-0.0938768
-0.000191679
-0.000709422
0.000862729
3.83714e-05
0.00501321
-0.000911268
-0.0689384
0.0648365
0.00695419
-0.0012108
-0.0051312
-0.000612189
0.00660719
0.00460103
-0.00372185
-0.00748637
-0.110375
0.0964918
-0.0876492
0.101533
-0.0540609
0.108977
-0.0549157
0.00228308
-0.0438118
0.0085868
0.0329419
0.0037333
-0.00351971
0.000689213
-0.00090281
0.049194
-0.00259849
0.00112808
-0.129722
0.00251101
0.0743409
-0.0345826
0.000213926
0.00248347
0.0326661
-0.0275527
-0.00759686
0.0781811
-0.0307714
0.0342072
0.00428736
-0.00517026
0.000103823
0.00077907
0.0346301
0.0241611
-0.0765037
0.0177125
1.77743e-05
0.000119476
-0.000183092
4.58413e-05
-0.000468016
0.00160139
0.00547382
4.7524e-05
-0.00817328
0.00661725
0.00584339
0.0746299
0.0407463
-0.037057
-0.0783192
-0.131053
0.14292
-0.00973451
-0.00213205
0.03151
-0.0327956
0.00128569
-0.0372798
0.000317079
0.000426689
-0.00325898
-0.00233797
0.0146349
0.206832
-0.158953
-0.062514
0.0292031
-0.0608462
-0.0180344
0.0496774
-0.00314556
0.0389664
-0.00086053
-0.0852837
0.0471778
-0.0231734
0.0100547
-0.0379279
0.0476433
0.0461822
-0.0558977
-0.0670063
0.0899981
-0.152752
0.12976
-0.000207794
6.37011e-05
-0.00145008
0.00159418
0.000199366
0.00228249
-0.000610433
-0.00187143
0.0431594
-0.0142959
0.0381203
-0.0669837
-0.00355903
0.000363842
0.00342385
-0.00022866
-0.0118341
0.0106265
-0.0367203
0.012202
-0.0461431
0.0059589
-0.00331581
0.0186613
-0.0213044
-0.139687
0.0194989
0.131239
-0.0110508
0.031642
-0.0220174
-0.0113452
0.00172065
0.0343336
-0.0529968
0.00682906
0.00427406
0.00779065
0.0525844
-0.0646491
0.0247402
-0.00720191
-0.0251563
0.00761797
-0.0797678
-0.00807266
0.0144007
0.00124153
-0.0011051
6.29359e-05
-0.000606988
0.0031227
0.00253416
-0.00504986
0.0183691
-0.032138
0.0385092
0.0179684
-0.143343
-0.0230061
0.14838
-0.11435
-0.014867
0.0267297
0.102488
0.057009
-0.0341748
0.0278408
-0.050675
0.11333
-0.00615417
0.00299733
-0.110173
-0.0170298
-0.0370608
-0.00430929
-0.0165017
0.00844448
0.0123665
-0.00127326
0.000438456
-4.43204e-05
0.000879127
0.0155788
-0.0785009
0.0629221
0.108539
-0.00700161
-0.11265
-0.0262885
0.0555614
-0.0463026
0.0392668
-0.122172
0.0153373
0.0675678
-0.00401169
-0.0121567
-0.0268892
0.0430577
0.00369175
0.0510024
0.0867163
-0.13632
-0.00139909
0.049271
-0.0830209
0.0891627
-0.0554129
-0.0959155
0.0961227
-0.00752247
0.00731532
0.00326091
0.00423363
-0.0957803
0.0882858
-0.00176837
0.00361639
0.0061163
-0.00796432
0.000247336
-0.0009544
-0.000297005
0.00100407
0.0891426
0.000456635
-0.0170029
-0.0725963
-0.000604058
0.000635554
1.07857e-05
-4.22809e-05
0.000621209
0.00321778
-0.00221549
-0.0016235
-0.0018138
-0.000670419