/*--------------------------------*- C++ -*----------------------------------*\
| =========                 |                                                 |
| \\      /  F ield         | OpenFOAM: The Open Source CFD Toolbox           |
|  \\    /   O peration     | Version:  2506                                  |
|   \\  /    A nd           | Website:  www.openfoam.com                      |
|    \\/     M anipulation  |                                                 |
\*---------------------------------------------------------------------------*/
FoamFile
{
    version     2.0;
    format      ascii;
    arch        "LSB;label=32;scalar=64";
    class       volVectorField;
    location    "0.0949388";
    object      U;
}
// * * * * * * * * * * * * * * * * * * * * * * * * * * * * * * * * * * * * * //

dimensions      [0 1 -1 0 0 0 0];

internalField   nonuniform List<vector> 
47425
(
(10.4305 0.251122 -0.00110051)
(10.2418 -0.310981 -0.00447708)
(9.97858 0.00962967 -0.00422527)
(11.656 -0.536021 -0.253342)
(12.7845 0.398979 0.561367)
(10.0185 0.00410574 -0.000522339)
(12.7067 0.230946 0.569057)
(10.006 0.00298612 -0.00146453)
(10.0047 0.00869367 0.00588036)
(0.323107 2.66254 -2.66912)
(9.97738 0.00664342 -0.00428699)
(9.99122 0.0738277 -0.00950977)
(12.4934 0.377747 0.13676)
(9.98354 0.00704441 -0.0066804)
(11.2693 -0.109261 -0.16995)
(10.061 -0.215116 0.0051544)
(10.0014 0.002949 -0.00189441)
(8.79776 -0.526263 -1.53131)
(8.64793 1.29634 -5.15315)
(13.7232 -0.578532 -1.21481)
(10.9714 -0.687185 -0.635393)
(9.78764 -0.038092 -0.0131744)
(9.96127 0.00742375 -0.00489634)
(9.93086 0.028618 0.0191736)
(9.89782 -0.080787 -0.00130845)
(10.0225 0.0761719 0.0231585)
(10.0085 0.0091198 -0.00220552)
(11.4746 -0.476068 -8.93628)
(10.0149 0.00587314 -0.000741214)
(9.99769 0.0210411 0.00990865)
(9.65798 0.766293 0.00358297)
(10.0441 0.0821108 -0.001853)
(10.0006 0.0059751 0.00583645)
(9.98045 0.0215465 0.0100563)
(10.0142 0.00243096 0.0112994)
(9.97446 0.00587281 0.00291409)
(9.71634 -0.0390548 -0.0865558)
(10.0011 0.0166854 0.00813526)
(10.5509 0.478483 -0.0322152)
(10.1988 0.0846163 0.0157742)
(9.91236 0.310638 -0.0365141)
(8.48417 -0.075372 -0.0803603)
(5.48103 -2.44041 0.773984)
(9.98341 0.0133124 0.00537682)
(0.189185 -1.79315 -0.413408)
(9.98208 0.153332 -0.0181244)
(9.93579 -0.00128744 -0.0119464)
(9.9947 0.0294945 0.00517366)
(10.1976 -0.125227 0.000320024)
(10.0722 -0.0275773 -0.0107995)
(2.13495 -0.734358 -5.82982)
(9.09208 1.54715 1.20657)
(10.0539 -0.00574315 0.00505846)
(5.25441 -3.83247 0.766161)
(10.0608 0.0899587 -0.00203971)
(10.1944 0.018578 -0.00518434)
(10.4071 -0.226333 0.0242798)
(9.99091 -0.00703733 0.0231018)
(11.8974 1.30184 1.47888)
(9.99483 0.0130287 0.00592026)
(4.42505 -3.75045 0.316104)
(5.47635 -0.840124 1.8957)
(1.52497 -1.29719 -0.420308)
(9.00417 -1.18611 -0.0940899)
(10.0076 0.0106362 -0.0065096)
(10.8393 -0.41533 -0.0471865)
(9.98571 -0.0112103 -0.00638988)
(11.0455 0.439239 0.693874)
(6.14988 -2.62239 1.2997)
(8.96069 0.575418 0.290174)
(10.8556 -0.732133 0.118566)
(10.0765 0.038246 -0.00809589)
(11.0588 -0.221844 -0.0500853)
(10.8424 0.337069 -0.658126)
(2.3384 0.551543 -0.478766)
(9.99887 -0.00387703 0.0010062)
(1.55055 -1.09361 0.0861943)
(9.95855 -0.00588393 0.00654678)
(4.04183 -1.25169 0.836187)
(12.0563 -0.139118 1.31719)
(2.93368 0.299254 -0.426283)
(10.2157 0.35123 0.000238529)
(9.17233 0.139075 -0.357455)
(10.0132 0.0137841 -0.00700917)
(9.08188 -0.0198014 -0.11415)
(10.4187 -0.0691093 0.0191928)
(10.9787 -0.0694945 -0.0554688)
(10.2751 0.176481 0.0116156)
(11.0211 -0.448268 -1.54048)
(11.0546 -0.800423 1.73678)
(9.76434 0.440291 -0.0519351)
(10.8149 -0.000313918 -0.0362518)
(10.0399 -0.0106339 -0.000463569)
(10.2366 -0.0577974 0.0147586)
(10.1868 -0.0493168 0.0214031)
(10.1915 -0.0119162 -0.00429751)
(10.039 0.0041199 -0.00457218)
(10.5754 -0.316418 -0.0231791)
(10.3353 -0.06072 0.000736159)
(10.0469 0.0172973 0.0137782)
(10.0197 0.0384031 0.00300578)
(8.67735 0.160147 -4.14224)
(10.3042 0.185957 -0.00979964)
(5.30529 1.94582 -0.843292)
(10.3149 0.169744 -0.0235384)
(10.926 -0.72623 -0.0767807)
(10.2799 0.390861 0.0864356)
(10.3114 -0.0944704 -0.00825202)
(8.0527 -0.184442 -0.443162)
(9.96719 0.0912251 -0.00695239)
(-0.209318 -0.236523 -0.559464)
(9.99209 -0.079385 -0.00772323)
(10.8045 -0.936059 -0.0949651)
(10.4712 -0.017485 -0.0358675)
(11.1788 -0.396198 -0.0086349)
(1.78051 -4.12976 -5.94686)
(11.1674 -0.34322 -0.0132386)
(4.03943 0.0580832 -4.35172)
(10.3671 0.175965 0.00711939)
(11.3856 0.422522 0.341215)
(10.5593 -0.0576687 -0.0298213)
(10.0001 0.00366482 0.00547087)
(9.99647 0.0524796 -0.00457827)
(11.9211 0.818855 -0.822012)
(10.038 -0.0315424 -0.00386334)
(11.1311 -0.753022 -0.0508359)
(10.398 -0.103866 -0.00437653)
(10.0072 0.00361951 -0.00679187)
(9.98871 0.0225576 0.0113655)
(10.0275 0.0327909 0.00294276)
(9.18826 -0.284738 0.274399)
(10.8664 0.220318 -0.0674224)
(4.32048 0.0646491 0.51773)
(10.4486 -0.580367 0.0262669)
(9.57296 0.351056 -0.299782)
(12.231 -0.546592 -0.976114)
(10.835 0.969982 0.229007)
(11.16 -0.83371 0.0707363)
(10.1548 -0.0723747 -0.00421409)
(11.1996 -0.133534 -0.0740075)
(9.98129 0.00597202 0.00180792)
(11.7408 0.312775 0.249638)
(10.5232 0.0402486 -0.0254189)
(10.7866 -1.21001 -0.0501624)
(10.1496 0.235598 -0.0169302)
(10.0048 0.00521847 0.00559161)
(12.6628 0.339107 0.341661)
(10.0106 -0.0305896 0.00732427)
(10.4677 0.0218371 -0.0100005)
(9.97666 -0.0171565 0.00613904)
(10.6674 -1.19741 -0.204112)
(2.8935 -0.408182 -6.77285)
(10.0071 0.0149766 -0.00986087)
(5.49144 0.140864 -11.2994)
(8.93366 -1.17887 -0.772261)
(10.0075 0.131185 0.0218497)
(11.0429 0.535777 -1.73702)
(7.26932 -3.90048 -2.67386)
(10.2409 -0.0693919 0.0125933)
(9.96954 0.0112458 -0.00308493)
(11.4101 -0.188771 -0.0315848)
(10.0333 0.105174 0.0226813)
(10.0408 0.0190431 -0.00459363)
(10.1675 0.322458 -0.0323422)
(11.7838 0.254399 -0.672728)
(-1.34736 -1.53169 -2.00133)
(10.0161 -0.0300455 -0.00192326)
(2.8823 0.406828 -0.485913)
(9.90614 -0.00519754 0.0163633)
(12.0464 0.801177 -4.36476)
(3.65374 0.219421 -0.702518)
(9.96306 -0.0063633 0.00169632)
(10.0013 0.0243772 -0.00329106)
(9.42153 -0.99106 -0.679449)
(10.4168 -0.0298944 0.0164388)
(9.23153 -3.06088 -1.45836)
(2.7463 0.974254 -7.6434)
(10.0135 0.00829658 -0.00124268)
(10.0352 -0.00275879 0.0057119)
(10.057 -0.00358665 0.00664234)
(2.59531 0.436261 -10.9466)
(10.1033 -0.212297 0.0384826)
(10.0301 0.000249137 0.00493629)
(10.0351 0.00449476 0.0126018)
(10.0417 -0.00322444 0.00573861)
(10.0271 0.0237521 0.00533862)
(10.2151 0.0829343 0.00833713)
(5.63527 -0.531884 -0.66452)
(9.81411 0.0074631 -0.00628724)
(10.2649 0.240277 0.0966449)
(10.0004 -0.00999386 -0.00267422)
(9.98361 0.00142761 -0.00234007)
(12.1928 -0.882133 -0.576246)
(9.99718 0.00188201 0.00413313)
(10.0253 0.000871034 0.0134849)
(11.2698 0.0839341 -0.0696096)
(10.0016 0.00112153 0.00759733)
(10.0626 -0.0293955 0.019676)
(11.4374 0.179216 -0.076228)
(10.4724 -0.283013 0.0666656)
(9.99652 0.0144964 0.00231122)
(10.5592 -0.0514073 0.00213054)
(8.49117 0.541814 -0.452292)
(11.28 -0.0852424 -0.0572431)
(10.3092 -1.48675 -1.02679)
(10.7102 -0.0121243 -0.0383051)
(10.0042 -0.0121552 0.00568024)
(11.2305 0.017102 -0.0614527)
(9.99447 0.0863447 -0.0138746)
(10.0029 0.0133831 -0.00269672)
(10.4888 -0.174834 -0.00880977)
(11.2791 0.156702 -0.0127876)
(10.007 0.024005 -0.000159177)
(9.97433 -0.0527328 0.0147009)
(10.834 -0.0510948 -0.00467548)
(11.3848 0.296548 -0.16244)
(10.8683 0.0417628 -0.0625502)
(11.3321 0.287939 1.52374)
(8.65723 -1.29166 -0.698401)
(9.94486 -0.0448031 0.0103739)
(11.8451 -0.513544 1.21223)
(11.3933 0.223023 0.164338)
(9.72082 -0.525737 -1.19317)
(10.963 0.215948 -0.0401997)
(10.679 -0.00401278 -0.0220436)
(11.9702 -0.73591 1.11463)
(10.0292 -0.00836049 0.00534859)
(11.2938 0.325029 -0.0572187)
(11.6143 0.1386 -0.0435292)
(12.0624 -0.279014 -0.335412)
(10.8575 0.0392506 -0.0559449)
(9.97784 0.0125313 -0.00377718)
(10.6895 -0.0696688 -0.0079659)
(10.0005 -0.00438379 -0.00060631)
(9.80475 -0.00786822 -0.00965329)
(9.98302 0.260648 0.00751332)
(11.8085 -0.136963 1.35066)
(9.9599 0.021912 0.0046789)
(12.1639 -0.0299344 1.19028)
(9.79159 0.000526083 -0.0373562)
(9.88165 -0.0143138 -0.0140009)
(10.0074 0.00759082 0.00702817)
(10.096 -0.0372386 -0.00778361)
(11.6561 0.900919 0.067681)
(10.3886 0.498961 -0.0108878)
(10.0078 -0.0030081 0.0119918)
(10.5136 -0.0771913 -0.0244455)
(10.0108 -0.000666948 0.00277663)
(10.0003 -0.0316556 0.0167712)
(9.94075 -0.00126009 -0.00603988)
(9.97428 0.127308 0.0353535)
(12.0689 -0.446308 1.32733)
(9.97235 0.0122163 0.00404952)
(10.0033 0.00416445 0.00562733)
(9.91764 0.0136552 4.01084e-06)
(10.0501 7.08689e-06 -0.00387147)
(9.85154 0.0652838 -0.0293189)
(9.74652 0.0170213 0.0132366)
(10.4857 -0.746282 0.124915)
(10.0099 -8.14911e-05 -0.00670971)
(9.74206 0.0242822 0.0117721)
(9.99944 0.0258289 -0.000666396)
(10.2006 0.0496169 -0.00974114)
(10.1088 0.0107001 0.00157112)
(12.1502 0.0532102 0.741966)
(10.7194 -0.312671 -0.149795)
(10.0409 -0.000509705 0.000704614)
(12.2165 0.0882747 0.567152)
(10.0143 -0.00137893 0.00547863)
(10.1889 0.0965234 -0.00308904)
(10.1719 0.0493644 -0.00485248)
(12.2693 0.119993 0.987158)
(11.7043 0.0887506 1.2251)
(10.2236 -0.161457 -0.0153052)
(12.1511 -0.177327 1.34407)
(10.0408 0.00292543 -0.00767312)
(12.2188 -0.0195585 1.17979)
(6.55058 3.33192 2.10009)
(11.6938 -0.0338775 1.29831)
(5.92012 1.30337 -5.2795)
(3.88629 -3.94126 0.196877)
(10.3982 0.207051 0.00571906)
(2.70015 -3.51741 -0.525695)
(9.8786 -0.0106992 0.00906628)
(10.0163 -0.0121375 0.0208171)
(11.41 -0.170773 -0.0197842)
(9.90122 -0.00688321 0.0110973)
(9.92508 0.00801475 -0.00337911)
(9.87215 -0.291109 -0.0345301)
(11.1904 -0.438818 -0.17635)
(1.39088 1.71745 -3.70753)
(9.19707 0.841626 -0.0269466)
(10.0028 -0.00175042 -0.0022938)
(10.0176 -0.00406434 -0.0124722)
(9.98033 0.0074012 0.000430418)
(10.1552 0.381114 0.411928)
(11.5722 0.956064 0.231448)
(10.2138 -0.719561 0.0948397)
(9.98963 -0.13138 -0.00583437)
(12.0444 -0.189907 -0.0463455)
(10.2401 0.171684 0.0480085)
(10.1066 0.0560114 0.00152849)
(9.95957 -0.0210212 0.00574448)
(10.0103 0.0032143 -0.00481275)
(9.75865 4.16543 -0.610781)
(5.38914 1.77759 -0.698622)
(1.50122 1.21654 -6.40029)
(10.0589 -0.0182853 0.00213936)
(10.1232 -0.044772 0.0101599)
(10.0454 -0.635816 -0.071515)
(10.1776 -0.508176 -0.157394)
(1.25275 -0.836027 -5.83856)
(9.96432 0.00112003 -0.0095957)
(9.93538 0.00320664 -0.00762057)
(10.7048 2.03876 0.399522)
(10.3737 -0.152504 0.0231993)
(9.8455 0.0133696 -0.00825362)
(9.80763 0.014019 -0.00173627)
(9.89496 0.000936619 -0.00281242)
(12.0666 2.7464 -1.15238)
(11.2142 1.75113 0.32539)
(10.0739 0.195161 -0.00742417)
(10.0985 0.123525 -0.00837926)
(10.0301 -0.0140232 0.00725135)
(10.4078 -0.0398737 0.00108911)
(10.0542 -0.00505454 0.00595398)
(10.0583 0.226309 -0.00541388)
(10.2226 0.0642457 0.0229379)
(10.0545 -0.0197878 0.000280438)
(9.97897 -0.0175477 -0.00225939)
(11.6636 -0.0535851 0.215355)
(8.18118 0.717329 -0.588389)
(10.6266 -0.734716 -1.40286)
(10.0104 0.0130531 0.00183018)
(9.96512 -0.00714646 0.00718808)
(10.0582 -0.00316977 -5.10548e-05)
(8.48248 1.02187 -0.6252)
(9.97919 0.104786 -0.00415477)
(10.0235 0.0230135 -0.00486861)
(10.0268 -0.0722514 -0.00149387)
(10.04 0.264646 -0.0463351)
(10.0344 0.289003 -0.0489323)
(10.2146 0.152341 0.0248893)
(9.94095 0.267553 -0.039562)
(10.0479 -0.0179152 -0.00572496)
(10.0511 -0.00237649 0.00493888)
(9.9841 -0.00782591 0.0224727)
(9.66785 0.450595 -0.214643)
(9.94738 0.00108945 -0.00195388)
(9.93399 -0.00840992 0.00396144)
(10.0251 0.237766 -0.0372678)
(10.4329 -0.477368 -0.102817)
(10.044 0.260056 -0.0242541)
(9.9675 0.205358 -0.0200393)
(10.0264 0.197011 -0.0266732)
(11.1612 -1.46402 -0.317479)
(9.94465 0.00436815 -0.0065752)
(9.20328 0.233854 0.0432862)
(9.98147 0.15768 -0.0101014)
(9.99526 0.0236602 -0.00770747)
(9.51408 0.308929 1.90122)
(11.553 0.214384 -0.465774)
(10.1693 -0.0529885 0.00826182)
(9.92094 0.00338576 -0.00182425)
(10.3739 -0.443063 -0.00497581)
(10.9501 0.35873 -0.149804)
(9.76664 0.00461489 -0.00747627)
(10.0104 -0.00628438 -0.008552)
(9.97009 -0.132083 -0.00215415)
(10.2275 0.778675 -0.169617)
(9.8045 0.002338 -0.00643039)
(-0.446239 -2.5472 -0.66266)
(10.8582 -0.104884 0.0098319)
(10.0173 1.01648 -0.150296)
(9.97935 -0.00177354 0.00732929)
(10.0131 0.897379 -0.124484)
(10.8718 0.618624 -0.0837905)
(10.0096 -0.000236708 0.00177595)
(10.0035 0.0057777 0.00455043)
(9.74833 -0.0362745 -0.0686836)
(10.0109 0.00324779 0.00503092)
(10.0351 0.910212 -0.177399)
(10.1399 -0.148785 0.0196219)
(10.0051 0.0235378 0.00731125)
(10.0113 -0.0631627 -0.0044829)
(10.0017 0.0181548 0.00614805)
(9.95461 -0.012614 0.00606248)
(10.2276 0.181864 -0.00804683)
(9.99935 0.00593555 0.00773541)
(9.97216 0.00982093 0.00761176)
(10.5725 0.970361 -0.387213)
(10.349 1.17707 -0.445406)
(9.96639 -0.00845274 -0.0027113)
(10.5278 -0.560696 0.00295118)
(9.97792 -0.00546426 0.00436558)
(10.495 0.909769 -0.34411)
(9.95543 -0.0724351 0.000292547)
(9.98913 -0.000310992 -0.000863092)
(12.1991 0.767031 -0.416605)
(10.0637 0.007989 -0.00926293)
(10.6679 0.128599 1.03008)
(10.086 -0.00825162 -0.00163725)
(9.18789 1.57008 -1.96419)
(9.92254 0.00685928 -0.00708108)
(10.7879 0.158939 -0.000568465)
(9.92318 0.00216161 -0.0154874)
(10.0349 0.00915132 0.0082398)
(9.80362 0.00663731 -0.00522082)
(10.0462 -0.000961123 -0.00103252)
(9.9765 -0.0044094 -0.0198768)
(10.3488 1.05538 -0.351028)
(0.823055 -1.70124 0.568443)
(2.04944 -0.761986 -2.58535)
(10.1244 0.110529 0.0124191)
(10.3645 1.58108 -1.00519)
(10.7902 0.798627 -0.369526)
(10.8965 0.754714 -0.356135)
(9.97431 -0.0115384 0.00926342)
(9.99572 0.00182246 0.0100932)
(9.95754 0.0277055 0.00966088)
(9.83211 0.00565906 0.0124936)
(9.93932 -0.0231528 -0.0027533)
(10.263 -0.314715 0.0126087)
(10.9171 0.695843 -0.248891)
(9.94009 -0.0142528 0.00243133)
(10.0474 0.00751575 0.00492216)
(11.7087 -1.01549 -0.0503996)
(11.6741 0.571209 -0.280367)
(11.2907 0.65107 -0.224684)
(8.04733 -1.33563 -5.20533)
(-0.00987135 3.11349 0.445645)
(10.8234 -0.312115 -0.0189909)
(7.38959 -0.982817 -5.74245)
(-0.0621835 2.9972 0.603833)
(9.91877 -0.309942 -0.0479879)
(-0.126242 2.98924 0.579303)
(9.41198 -0.240672 0.812937)
(9.99214 -0.088871 0.0216068)
(11.1622 0.709816 -0.39198)
(11.102 0.767452 -0.418705)
(11.4146 0.669403 -0.387411)
(-0.791954 2.12226 0.852094)
(10.3634 0.157101 0.00227867)
(10.026 0.0678861 0.00539227)
(10.0126 -0.0316273 -0.00282833)
(11.4874 0.704745 -0.506031)
(11.3493 0.749355 -0.569722)
(10.1775 0.0292732 0.0287372)
(10.2293 0.163439 0.0441443)
(9.23545 2.76996 1.40884)
(-0.656621 2.17885 0.849201)
(13.015 -0.579319 -3.24031)
(10.006 -0.0138706 0.00840132)
(8.82183 -0.758961 -3.3694)
(10.6413 0.755365 1.21751)
(10.0243 -0.121821 0.0139975)
(11.055 0.542745 -0.0913337)
(12.2875 0.267315 0.158794)
(11.0302 0.454735 -0.0806808)
(9.99421 -0.0174875 0.00484573)
(9.99839 -0.00459556 0.00728419)
(9.98284 -0.00630939 0.0010101)
(10.4643 0.449817 -0.023924)
(9.99918 0.00194025 -0.000464173)
(9.96899 -0.012053 0.00390937)
(10.1449 0.0792537 -0.0092219)
(9.93551 0.00731666 -0.0152558)
(11.2456 0.330478 -0.104279)
(10.0039 -0.041632 -0.0123487)
(9.96088 0.0112509 -0.00417552)
(9.99561 -0.0192341 0.00269743)
(10.0047 -0.00695422 0.00946949)
(9.96329 -0.00335901 0.0039433)
(10.3812 0.360246 -0.0147221)
(10.0865 0.049744 -0.00779961)
(10.1732 0.0238196 0.0415187)
(11.1482 0.330854 -0.0924659)
(7.84739 2.9618 1.0444)
(9.97211 -0.00579955 -0.00208492)
(12.0651 1.5715 -1.64159)
(9.99702 -0.00878758 -0.00263204)
(11.0769 0.106262 -0.0408447)
(7.8998 -0.170022 2.23198)
(9.75101 1.48973 -0.687134)
(10.0255 0.0567746 0.00602377)
(9.81786 1.57503 -0.766029)
(10.0081 0.0251953 0.00720141)
(10.0307 -0.0161447 -0.00870104)
(10.0878 1.36059 -0.992256)
(10.0016 -0.00603148 0.0245557)
(10.8904 -0.262989 0.00302587)
(9.95166 1.2532 -0.708836)
(10.4164 -0.0956184 0.0107869)
(10.6379 0.0855055 -0.290631)
(8.23613 0.389821 -4.19538)
(10.139 -0.0689039 0.0139728)
(9.57435 1.95563 -0.721702)
(10.0492 -0.0228398 -0.00555335)
(9.00405 2.07986 -1.14216)
(10.2253 -0.202016 0.0447625)
(10.0228 -0.0054877 0.00554211)
(9.92731 0.0314419 0.0269924)
(9.98786 0.00676931 -0.01223)
(10.6411 1.13743 0.829716)
(9.95425 0.00278457 -0.0207506)
(9.99326 0.00301744 -0.0140019)
(9.9977 -0.0461376 0.00969239)
(9.84875 0.207576 -0.0146609)
(11.1195 0.802711 -0.0566282)
(10.0123 0.00415677 0.00402081)
(9.99085 -0.000351948 -0.000604871)
(8.62428 0.336642 -0.660065)
(10.0214 -0.00361202 -0.0130855)
(9.76312 0.196521 -0.133207)
(10.1606 -0.260745 0.0627178)
(10.1069 0.0619512 -0.00589594)
(10.0379 -0.0063027 -0.000989664)
(9.94671 0.00698427 0.00892884)
(10.087 0.0299016 -0.0154518)
(10.3771 1.40147 -1.15578)
(10.0035 0.00985876 0.00692849)
(9.9889 0.00468012 0.00290105)
(3.01526 -0.628024 -5.86728)
(9.95978 -0.0101181 0.0133986)
(9.97737 -0.0137957 0.00631958)
(9.96917 0.135215 -0.00959216)
(10.004 0.0111932 0.00706245)
(12.6159 1.52424 -1.08264)
(12.7331 1.24718 -0.876671)
(9.95975 -0.00726195 -0.00301692)
(9.83827 -0.164725 -0.0595174)
(9.91689 0.0526838 0.0296396)
(11.8864 0.187502 1.19016)
(10.0503 0.0602632 0.000884945)
(12.7849 1.28522 -0.911189)
(9.9994 0.0058192 -0.00297534)
(-1.93092 -0.262056 1.08201)
(8.14715 -0.52556 -0.764235)
(9.11312 -0.870646 1.74657)
(9.9997 0.00305463 0.0201)
(12.7087 1.24286 -0.861679)
(10.0664 -0.00680496 0.00491152)
(10.287 0.144061 0.0377264)
(9.96398 0.00238981 -0.0101951)
(8.87816 0.26321 -0.166913)
(10.054 -0.0054746 0.000535583)
(10.0128 0.0359593 -0.00119808)
(5.67461 -1.50744 -1.06682)
(9.98135 0.00152559 0.00163058)
(9.91113 0.00269998 0.00336753)
(10.0291 0.00471629 0.0219136)
(12.4751 1.69686 -0.970048)
(10.0842 0.0400246 0.00173759)
(9.98907 -0.0151819 0.0116125)
(12.3317 1.59046 -0.986276)
(12.2917 1.13445 -0.491098)
(9.95948 -0.012718 0.0128644)
(10.0695 -0.0105367 -0.00445422)
(-0.118682 1.68908 0.346613)
(10.0385 0.00251682 -0.00829561)
(10.9043 -0.430125 0.0720494)
(10.019 -0.0032021 -0.00728837)
(10.0277 0.00528618 0.0152516)
(10.0561 -0.0285999 -0.00331936)
(11.9155 1.2319 -0.510836)
(11.7384 0.343865 1.37088)
(9.17188 0.740682 0.742278)
(9.46602 0.188675 -0.0374931)
(10.1152 -0.133015 0.0242397)
(10.0434 0.00465031 0.00408133)
(12.5084 -0.610292 -0.526023)
(9.30551 0.239996 -0.475821)
(9.71 0.0739326 -0.220176)
(-0.0469567 1.60534 0.236333)
(9.9844 0.00740592 -0.00284833)
(10.0478 -0.0114166 -0.0123316)
(-0.20263 1.51655 0.326112)
(12.1112 1.70455 -1.36703)
(9.91041 0.0954402 -0.0199634)
(0.00427237 1.68783 0.253062)
(0.0118912 1.70601 0.32774)
(10.0209 0.000208112 -0.00145821)
(9.9976 0.0149385 0.00159555)
(10.0215 -0.00761902 -0.00389031)
(9.59901 -0.335708 -0.0174532)
(9.99788 0.00233723 -0.00657202)
(9.94996 -0.0144658 0.00374825)
(9.63281 -0.535344 -0.606256)
(10.0696 0.285218 -0.00266876)
(9.94299 0.00302935 0.00736228)
(10.0255 0.019824 -0.00488849)
(12.4917 1.58434 -0.502591)
(11.8163 1.48658 -0.508221)
(9.96922 0.00955067 -0.000386225)
(10.5254 0.389271 -0.0364484)
(-2.89159 -1.90418 -0.0177154)
(-2.35885 -3.04925 1.45616)
(10.9607 0.450326 -0.133056)
(9.93162 -0.00938886 -0.00210238)
(10.3843 -0.268986 0.288461)
(11.0524 -0.100188 -0.817256)
(9.86702 -0.0115395 0.000736175)
(9.86333 -0.0159907 0.0114593)
(10.0506 -0.0385371 -0.00398193)
(10.3199 0.154314 0.0175233)
(9.97934 -0.0128431 0.00699135)
(11.0895 0.367342 0.303576)
(10.0006 0.00330076 0.000650716)
(13.208 0.838855 -0.816089)
(10.3454 1.5844 -1.25699)
(10.8215 0.438419 -0.0905367)
(13.2179 1.01844 -1.1567)
(10.0608 0.0389374 0.0055333)
(10.0078 -0.00698393 0.012387)
(10.3405 0.807251 0.131992)
(10.148 -0.0929831 0.0305401)
(10.0222 -0.00831507 0.0134666)
(10.0039 0.00717969 -0.00295273)
(11.3136 0.269462 -0.639971)
(7.92902 -0.783914 -1.53387)
(10.0169 -0.00317049 -0.0065786)
(11.1298 0.1202 -0.0411696)
(9.98113 0.431837 -0.0819083)
(10.7674 -5.20604 -2.7685)
(10.3774 -0.90267 0.851779)
(12.1408 0.0503424 0.883231)
(6.62041 0.0111521 0.21656)
(6.39096 -0.00369332 0.0605134)
(10.0539 0.00687148 0.00811217)
(10.1957 0.390356 -0.137558)
(4.28138 -0.0852568 -0.185395)
(9.95067 0.00929202 -0.00359075)
(10.0049 -1.76215 -3.63376)
(8.00191 -0.458122 0.964135)
(9.98445 0.00174763 -0.00212089)
(9.97841 0.376394 0.180067)
(10.0259 0.0120628 -0.0111094)
(10.0382 0.00802947 0.0141449)
(10.0163 0.002405 -0.000507536)
(13.3835 0.691016 -0.338314)
(9.97604 0.00967915 -0.00413167)
(9.98476 0.0037735 -0.00162652)
(10.0626 -0.0431562 -0.0139005)
(9.7913 0.00440163 -0.0069262)
(10.0809 -0.0210765 0.0197396)
(9.95964 0.00846725 -0.00849118)
(10.0572 0.0255331 -0.000607417)
(9.804 -0.0887195 0.011012)
(10.9185 1.2298 0.687893)
(8.89104 -1.19161 -2.12429)
(12.0308 3.81578 2.09387)
(10.7786 0.624134 0.0163767)
(9.55419 1.50534 1.25606)
(9.9706 -0.00673769 0.00537796)
(9.25392 -0.998742 0.0598955)
(9.9723 0.0120343 -0.00126001)
(10.0005 0.0022669 -0.0110775)
(10.0028 0.00322421 -0.00885917)
(9.99976 0.00103031 -0.00782397)
(9.98401 0.0171958 -0.00640302)
(9.20106 0.455136 -0.927424)
(11.0318 0.813694 0.199286)
(9.98684 0.0126329 -0.00583876)
(10.2331 -0.587221 0.0687855)
(11.093 1.68222 2.01268)
(9.96253 -0.00676088 -0.000925491)
(1.11193 0.714362 0.00516548)
(13.2935 -1.02878 -3.2117)
(9.94355 -0.0184397 0.00644709)
(9.32126 -0.547317 8.39244e-05)
(10.4834 0.0253381 0.0234538)
(10.0421 -0.00420578 -0.00583445)
(1.88596 1.21769 0.207965)
(9.98631 -0.0194938 0.000214157)
(4.51175 -1.07867 -0.603788)
(9.96649 -0.0087956 0.00204191)
(12.1374 0.0263913 1.07291)
(12.2744 0.449935 -0.128089)
(9.94594 -0.0265922 0.00631336)
(9.89427 -0.00288626 -0.000229264)
(10.2024 0.648449 0.0461502)
(8.65442 -0.625234 -2.35697)
(9.92415 0.0146479 -0.00423401)
(10.0418 -0.0223068 0.00242007)
(10.4689 -0.0152364 -0.0225594)
(12.7685 -0.0509346 0.383895)
(10.0008 0.00362078 0.00175463)
(12.5408 0.369534 0.124314)
(10.6064 -0.0103745 -0.035914)
(-0.353898 0.145475 -0.984808)
(12.2317 0.369622 -0.0156138)
(10.5382 -0.0216613 -0.0291495)
(12.3796 0.368062 0.0780038)
(10.0007 -0.00368923 -0.00345969)
(10.1472 -0.202158 0.0132974)
(10.5332 0.458121 0.0205949)
(10.5951 -0.0557201 -0.0380564)
(12.5396 0.451763 -0.05459)
(9.99974 -0.0225301 0.000277987)
(10.0541 -0.2481 -0.0238307)
(12.3938 0.441145 -0.0745436)
(9.95424 -0.0255086 0.00401534)
(10.6282 -0.0494592 -0.0351397)
(9.98233 -0.0161789 -0.00463736)
(10.0635 -0.0202043 0.0160729)
(6.87504 0.432075 -5.19925)
(6.70252 -0.076367 -5.79205)
(9.6768 0.0769255 0.345124)
(8.83505 0.455961 -4.25853)
(9.99585 -0.013214 -0.00366528)
(9.94433 -0.017778 -0.00978814)
(10.8865 0.687255 -0.28915)
(10.6326 -0.178529 -0.00376676)
(8.16818 0.0912273 1.57649)
(10.012 -0.00944214 -0.0056641)
(10.1202 0.0806929 -0.00247123)
(9.99511 -0.00220912 -0.0022303)
(10.0322 0.11107 0.0289652)
(5.28141 0.274567 -6.43331)
(3.90899 -1.75802 1.64666)
(9.98485 -0.00544353 -0.00229608)
(10.0176 0.039414 -0.00630636)
(10.0537 -0.118603 0.00722736)
(9.84996 -0.0971709 0.00798136)
(10.3313 -0.18776 0.0491106)
(9.96603 -0.00573493 -0.00297261)
(11.4207 0.0648388 -0.0637304)
(11.6764 -1.11397 0.789561)
(10.2253 0.0385861 0.0349656)
(10.0433 -0.000829 0.00707552)
(9.9928 -0.00241441 -0.000525245)
(9.99777 0.100261 0.016913)
(9.69557 0.192432 0.0258876)
(9.99941 0.0019629 -0.00651191)
(10.8946 -0.12385 -0.0497181)
(9.95851 0.00845052 0.00397735)
(10.0218 0.0332788 -0.00195416)
(10.1307 0.11193 0.0303086)
(9.26184 -0.875229 -1.32114)
(5.14724 0.744283 -4.85184)
(10.0645 -0.107403 0.0112767)
(-0.136074 -1.65357 0.185157)
(9.71719 -2.34169 0.451707)
(13.2988 -1.20404 -1.26383)
(-0.135118 -1.60634 0.157716)
(10.5722 0.0479214 -0.0241813)
(6.28464 -0.293558 2.08788)
(10.6155 -0.514588 -2.68112)
(10.8453 -1.72727 0.325449)
(5.65804 0.34438 -3.85402)
(-0.114328 1.5824 0.548854)
(1.49313 0.640497 -3.64516)
(11.9989 -0.108458 0.637469)
(10.8956 -0.00726426 -0.0543732)
(11.8275 0.180314 0.845517)
(9.92472 0.00473867 -0.00394756)
(3.71294 -0.34136 -0.383788)
(10.8451 0.0783448 -0.362357)
(10.7959 -0.0154574 -0.032578)
(9.95711 -0.072422 0.0651011)
(9.99956 0.00727507 -0.0109839)
(11.9458 0.190721 1.18061)
(9.88061 0.165492 0.0137396)
(10.2514 -0.049419 0.0184234)
(9.98528 0.0283119 0.00333962)
(-0.358074 0.998398 0.087754)
(8.08584 0.346033 -2.56634)
(10.0155 -0.00826179 0.00807655)
(9.98464 -0.00477099 0.00447311)
(5.02348 0.329611 -2.48295)
(5.90852 0.183623 -3.14997)
(10.4744 -1.69647 -0.948921)
(-1.57591 -2.35801 -1.25611)
(5.75026 0.118894 1.68671)
(4.04898 0.0505341 -3.95386)
(3.76733 -0.00400445 -4.80491)
(10.0057 -0.00417688 0.00982464)
(9.81349 0.00450422 0.00124509)
(9.47061 -0.0275984 0.0229616)
(10.0241 -0.0163471 -0.00300447)
(10.4148 0.043822 -0.00927717)
(-0.214497 1.65472 0.328329)
(10.9942 -0.0168459 -0.276565)
(10.4704 0.0352105 -0.00893284)
(10.3326 0.0316077 -0.00369392)
(10.0512 -0.00663792 0.00650804)
(-0.200752 1.45904 0.706751)
(-0.37846 1.48629 0.694986)
(10.0636 0.00805967 -0.0069179)
(10.4113 -0.0028704 -0.0196591)
(9.93101 0.0404306 -0.00418849)
(10.0532 -0.0279046 -0.00368261)
(10.3586 0.0115282 -0.00514216)
(10.0505 -0.0287329 -0.00878755)
(9.67074 -0.0145761 -0.069937)
(10.0003 0.00277791 -0.0144426)
(9.97352 -0.0313423 -0.00169005)
(6.97981 -0.768091 -3.22231)
(10.0475 -0.00252987 0.00392278)
(10.0597 -0.00699825 -0.00263613)
(10.0073 0.00201908 -0.00470332)
(9.83677 0.00686455 -0.00980045)
(9.85654 0.00676913 0.00160174)
(4.25257 -0.623911 -2.52284)
(12.6736 -1.2513 -0.920416)
(10.0482 -0.00581069 -0.00102327)
(10.8724 0.470652 -0.217183)
(10.0135 0.0327282 -0.00154215)
(9.67136 -0.325493 0.0951839)
(9.624 -0.409266 0.148062)
(12.4483 -0.0441594 -0.0896299)
(9.83064 0.00574684 -0.00426846)
(-0.491138 -1.05147 0.824217)
(12.5473 -0.207166 -0.191026)
(10.5106 0.164128 -0.018413)
(10.8629 0.450361 -0.0768638)
(8.07966 0.382 -3.50358)
(10.1422 3.13829 1.69562)
(9.9911 0.0110324 0.0068934)
(9.98667 0.0121409 0.000210082)
(11.3806 1.72215 2.1431)
(10.0117 -0.116194 -0.01135)
(9.99903 0.0339764 0.00534716)
(10.7481 0.794656 0.333649)
(9.96901 0.00844528 0.000431321)
(9.98344 -0.00256181 0.00188201)
(-2.57572 0.850127 1.21957)
(12.5203 0.959357 -0.342639)
(10.0642 3.63654 -0.535998)
(10.0021 0.000804134 0.0050871)
(7.70992 0.643515 -2.71869)
(10.0109 0.00321144 0.0139169)
(12.1242 0.338765 -0.273717)
(9.4773 -0.385149 0.234081)
(12.5364 -0.0879561 -0.108224)
(9.93756 0.00381723 -0.00156474)
(9.28552 -0.412896 0.189548)
(-0.950227 -0.709252 0.583472)
(11.3436 1.84851 2.63322)
(12.6473 -0.472383 -0.963815)
(-1.12496 0.909331 0.450267)
(12.5292 0.350088 0.120129)
(10.7558 0.170367 -0.00928463)
(9.95898 0.0116161 0.0049226)
(12.2574 -0.479252 -0.281054)
(10.0035 0.00143203 0.00629318)
(12.7142 -0.0970218 -0.126097)
(-0.0428205 -1.42736 0.538454)
(10.0036 0.00200734 0.00521119)
(12.8447 0.155025 -1.45972)
(9.91655 -0.00728087 -0.00535634)
(9.91463 -0.0202599 -0.00185435)
(10.9582 -1.1875 -0.821567)
(9.96462 -0.0190785 -0.0120041)
(10.4094 0.134992 -0.0159706)
(7.95571 -5.74384 -0.0723785)
(9.51347 0.452087 0.0217192)
(10.0301 -0.244397 -0.0195389)
(12.8862 -0.576544 -0.170462)
(10.745 1.64456 0.861263)
(10.0747 -0.0354346 0.00744673)
(11.6783 -2.72157 -1.17895)
(5.25415 -0.89907 -0.231182)
(10.8094 0.0483039 -0.0126562)
(9.61637 -0.729448 -0.919953)
(10.1007 0.165808 0.0426371)
(10.7306 0.26873 -0.00172446)
(10.0222 -0.0196137 -0.0139919)
(10.0788 -0.0269746 0.011556)
(-1.45946 1.09762 0.298672)
(0.633548 -4.20687 1.92419)
(11.9466 -0.890947 0.271482)
(9.95423 -1.10001 -0.937703)
(12.4042 -0.476964 -0.497692)
(0.718738 4.75102 0.402829)
(-1.72483 -0.253304 -1.31971)
(9.03364 -3.59378 4.1849)
(10.0885 -0.0205427 0.0191394)
(10.0023 0.0124518 -0.0100276)
(9.98853 0.0138009 -0.00437594)
(9.89146 -0.0250784 0.00542646)
(0.149539 1.36601 0.551017)
(9.59587 -0.534041 0.163715)
(8.93002 -0.641519 0.997533)
(9.98689 0.0211726 -0.0100113)
(-0.234445 -1.37993 0.0479779)
(12.6246 -0.0690489 -0.193847)
(10.9857 -0.190932 -0.211864)
(10.2474 0.0436235 0.0072402)
(10.037 -0.0195126 -0.014574)
(10.257 0.0443012 0.0159943)
(6.20118 -1.87351 -3.3258)
(10.0048 -0.0029939 -0.00688565)
(2.54664 3.37944 -1.38665)
(10.0195 0.00409134 0.0019112)
(10.3416 -0.648919 -3.16007)
(9.9882 -0.00377442 -0.00293938)
(9.99894 -0.00630551 -0.00614646)
(10.0093 -0.01029 -0.00726182)
(10.0138 -0.00959362 -0.0104864)
(9.98811 -0.0115455 0.00326199)
(12.5115 1.68672 0.678159)
(11.485 0.361925 0.672573)
(8.86602 1.48345 2.31249)
(6.86093 4.0141 2.27615)
(9.29544 1.23404 0.397529)
(10.4315 0.594289 -0.106587)
(11.1204 1.36253 -0.022303)
(6.63376 -0.450201 -2.98931)
(10.8008 -0.145356 0.00279365)
(12.0623 -0.477964 0.0918981)
(10.8833 -0.712641 -0.0882965)
(12.4278 0.0896472 -0.0668122)
(8.39881 -0.250518 4.3903)
(6.17983 -1.04455 2.28651)
(10.8369 -0.422889 0.173648)
(9.99928 -0.00932305 0.00485152)
(9.55547 0.977271 -0.375928)
(10.0044 -0.00593576 0.00997222)
(10.347 -0.0234278 -0.0113436)
(12.4819 -2.41973 3.19106)
(12.5518 -0.390361 0.648427)
(-0.749037 3.49741 -0.526159)
(10.1068 -0.97406 0.188244)
(11.9459 -1.02496 -0.681196)
(10.5456 -1.06622 -1.22162)
(10.1698 -0.423404 0.865244)
(10.3927 -0.0543462 -0.00246436)
(-3.44127 -2.11474 0.787435)
(10.1883 -0.0142496 0.00709115)
(10.2697 -0.0202188 -0.000996857)
(11.3028 -0.156367 1.42369)
(9.80034 -0.130531 4.62046)
(10.4294 -0.0572177 0.00212954)
(10.3023 0.579536 -0.450917)
(9.96869 -0.000595467 4.02461e-05)
(10.4816 -1.46865 0.55622)
(11.6154 -0.179241 1.46295)
(9.94794 -0.0337958 0.00834607)
(11.163 -0.445614 -3.15221)
(9.46212 2.0967 -1.78855)
(11.7765 0.46161 1.25254)
(11.1287 0.21409 -0.213835)
(9.48297 0.106292 0.256215)
(3.10038 0.963668 -3.84026)
(0.210841 3.24764 2.7176)
(5.19964 3.18857 0.603379)
(13.3164 -0.866119 -3.04838)
(3.82836 -0.725924 -0.381464)
(9.74181 -0.00814879 0.00914129)
(9.89096 -0.0476169 -0.00303752)
(8.20605 1.72607 2.61193)
(9.93891 -0.00565862 0.00468928)
(4.52638 -0.832439 -0.309066)
(9.8059 -0.011785 0.00243166)
(9.77184 -0.0112834 0.00246003)
(-0.133828 -2.08679 1.10399)
(9.46941 -1.33057 0.814843)
(10.9015 -0.684508 0.0831711)
(9.97038 -0.00151671 0.0044878)
(10.0015 0.0188822 0.000157467)