/*--------------------------------*- C++ -*----------------------------------*\
| =========                 |                                                 |
| \\      /  F ield         | OpenFOAM: The Open Source CFD Toolbox           |
|  \\    /   O peration     | Version:  2506                                  |
|   \\  /    A nd           | Website:  www.openfoam.com                      |
|    \\/     M anipulation  |                                                 |
\*---------------------------------------------------------------------------*/
FoamFile
{
    version     2.0;
    format      ascii;
    arch        "LSB;label=32;scalar=64";
    class       volScalarField;
    location    "0.0948794";
    object      p;
}
// * * * * * * * * * * * * * * * * * * * * * * * * * * * * * * * * * * * * * //

dimensions      [0 2 -2 0 0 0 0];

internalField   nonuniform List<scalar> 
3918
(
-32.8078
-5.36365
-6.37512
-24.2573
-0.427262
25.2371
18.7047
16.045
-5.33517
-17.3152
20.1468
-33.3016
-27.0306
-36.6846
-20.9463
26.3787
29.9688
-31.2688
-31.1974
-14.2583
53.5698
-24.3335
4.32742
-31.4277
2.5247
-35.0595
25.5642
-19.0359
-30.8924
-30.258
-31.0394
-5.33766
-17.943
-19.1634
-24.5026
-38.0561
-14.6862
-8.42058
49.0392
-9.01217
-7.14864
-12.9786
22.9312
-21.1619
2.14306
6.27575
5.37167
49.6879
-32.3059
-26.2765
33.6688
-31.7258
-19.1593
-29.179
-18.5806
-26.778
-19.1064
-29.2568
1.04214
-20.5137
12.7815
-14.7148
-27.5759
-19.5364
22.0527
-9.15542
-32.3251
-30.8026
-25.0855
-30.4737
19.7043
-71.0752
-52.4457
-57.3955
-30.0108
-29.5877
-29.7702
-29.6263
-29.3001
-4.52027
-30.4693
49.5359
-29.4837
-26.0894
-11.3584
-29.3843
-31.5295
-31.5829
-71.4121
-16.4584
-27.1539
-10.5077
-45.8983
35.1981
-6.51097
9.98466
-31.1046
-8.68437
-31.623
56.6876
-19.0131
-20.0069
-11.3607
-18.0587
-18.5602
-30.5989
-31.5004
33.6891
-16.7841
-29.9185
-30.253
-30.4723
-30.2749
-30.3415
-30.5464
-30.2656
-30.2217
-30.7585
-55.4721
-60.7136
-24.0726
-29.9857
-24.5432
-32.209
-27.8466
-60.9603
-13.7752
-21.3268
53.5801
33.0544
5.76738
-32.9906
4.28169
-21.6432
58.3508
57.0471
-31.1028
-31.2154
-31.0514
-33.0772
59.0539
-31.1785
-38.4678
55.9693
-48.7688
-50.5474
43.4276
57.3274
-47.7759
-26.2717
-24.1795
-32.5646
-6.0117
-54.5306
-34.8344
-41.3556
-96.575
-61.738
10.9083
-9.58109
-14.499
-31.4382
-32.0595
-34.568
-32.8948
-31.1701
-30.4773
-33.9908
-30.3334
-30.521
41.0738
-30.9961
-30.954
-30.4228
-30.7632
-31.0513
-32.458
-1.39895
50.5715
33.0197
-3.00042
-28.6026
-33.395
-28.5702
-23.8202
-20.2108
53.3672
-30.2224
-38.0684
-32.0745
-17.3933
-31.4067
53.3468
56.8261
-29.3676
-30.48
-32.7556
-32.96
-56.7366
-0.824739
-65.6563
-31.2704
-30.7601
-32.5338
-30.2139
-30.5126
-31.8861
-88.9567
-32.3144
14.9163
-40.5368
-32.9304
-16.3724
-31.8598
29.5305
-28.6714
-48.5496
-42.3597
-33.5081
15.0909
-59.1515
-33.4409
-31.7283
-14.5907
-21.9959
-47.1831
44.65
-33.0868
-97.7396
-32.486
-54.9761
-30.5142
3.86281
-32.808
-10.127
-52.6764
-30.2805
-20.3452
-28.9261
-2.52108
-31.9722
-71.1251
-44.7652
-26.617
-5.92162
41.36
-0.948823
-15.7064
-7.86063
35.0682
-31.6373
-31.2054
12.7702
4.44759
-30.7187
45.4383
-28.8434
-4.03114
-55.2988
-44.0191
-30.6037
-14.7385
-32.0135
-19.1897
44.7735
8.76189
-28.6838
32.6132
54.1085
32.8056
-6.7889
-39.0541
-5.08542
-22.7578
-23.7188
6.02511
-33.4485
-50.3185
-75.109
17.671
-22.3383
-38.3191
-34.344
6.14886
-7.20504
40.697
-20.9168
-76.0604
2.91185
-10.592
-76.1311
-31.2169
-29.0243
7.64924
-40.3136
-23.2767
-77.924
-31.0975
-33.8018
-23.4234
-31.0681
-2.85483
2.02583
-31.0757
-54.6484
-31.6205
-5.8132
34.5724
-10.644
-31.8493
-31.2099
19.0465
-30.7293
-30.5042
-33.5743
13.3876
-13.1988
35.1547
56.4623
-89.6072
-14.3583
-31.5636
-30.6368
-27.6314
-9.6393
-55.2585
-18.3284
-30.3646
-30.9132
-8.24283
50.4295
-6.30442
-2.71912
-32.8384
-31.0678
39.7631
-39.1717
-25.1898
-56.8153
-9.36114
-11.8423
-30.4706
-42.9495
-26.835
39.4662
-38.7959
-32.7757
16.9519
-31.115
52.4473
-32.7402
-32.5403
-27.8822
-9.77242
-5.59164
-12.8179
-29.3785
-48.5698
-30.8369
-14.374
-27.4786
-31.8147
-31.8839
7.88416
-28.4059
-30.9109
-29.2884
-24.8695
-30.0536
-38.3735
-13.4159
-28.8628
-11.3268
-4.99298
-28.3829
-29.2368
-27.0046
-30.4276
-19.0938
-5.73263
2.09762
-29.9849
-30.7219
-16.4552
-31.3397
-29.4172
-30.7105
-31.9737
-29.2109
-25.0804
-30.64
-25.4826
-19.4344
-48.1736
-10.6179
-51.8227
-49.0393
-22.717
-47.458
-42.1753
-30.6951
-15.2099
-36.7498
7.37123
-22.821
-16.4873
-31.18
-30.8087
-29.2724
-74.9339
-33.4347
-34.2458
-17.1519
-22.2715
-35.9096
-23.9812
-23.3148
-17.942
-26.7476
-16.2456
-17.2068
-36.2272
-17.0019
-23.9874
-9.30892
-15.1714
-29.106
-13.2116
-29.8744
32.5181
3.92119
-19.3612
-30.9459
54.337
27.2583
46.7678
15.3936
-24.251
-26.6922
-24.443
-11.0464
-32.6005
-30.9735
-27.0491
-26.2617
-13.6803
-1.18063
-23.05
-21.9272
-15.5958
-29.5509
-43.4159
-30.1052
-33.5107
-38.478
-43.4354
-46.332
-14.1908
-81.0545
-25.613
-11.3809
60.467
-31.2107
-2.00566
-32.6644
-29.9508
-8.39418
-30.2968
-11.1276
-14.7114
-31.2106
3.19758
-110.478
-42.0547
-20.2044
32.1917
59.3966
-30.7275
-83.7973
0.440214
-31.7295
-39.4138
-31.1895
-2.47558
-30.7724
-21.252
-80.9773
-31.9854
40.6665
-30.4716
-31.6524
-20.9195
61.8186
56.9707
27.8188
59.7577
-30.658
-9.34063
-88.0225
-14.5642
-10.9595
-18.5481
-6.16086
-16.7136
-15.3274
-5.24729
-14.1376
-12.8638
-10.0633
-9.62782
-24.484
-12.8866
-6.02624
18.0318
-10.0652
4.76304
-20.3374
-12.0702
-18.3647
-20.7997
-11.6913
-11.8965
-6.42738
-34.304
2.32281
-22.9008
-35.859
-4.14575
-5.27978
-9.96637
-3.86491
-65.0743
40.1984
-18.6434
-12.5274
-23.5821
-12.1729
-15.3993
-5.23802
-15.9963
-4.72371
-22.2975
-10.8694
-8.00006
-37.0135
-59.5352
-39.2968
-4.386
-16.2969
-32.2273
-19.8187
-62.892
-28.3748
49.2056
56.2986
-32.7666
53.0424
-64.1661
-17.0229
55.5699
-31.9306
-33.4954
-30.3262
-31.8733
-23.336
-41.5248
-30.8861
-23.6104
-34.2768
-21.2
-27.6456
-60.7875
56.4088
-18.2018
-47.0092
-59.7382
47.8452
-24.2713
-24.2702
-23.9056
20.449
-61.8147
0.953508
-30.4519
-27.5078
-27.4788
-28.2721
-32.8892
-70.9138
-57.8028
-23.4483
-30.5117
-31.2169
-29.7508
-59.2673
-35.0091
-29.8343
-55.2512
-39.1314
-60.2087
-19.1494
-95.3904
-31.4605
-31.7936
-24.9896
-79.8363
-30.677
-33.3083
-30.9518
-41.1358
-33.2715
3.40142
-32.3883
47.3219
-5.85443
56.9821
57.7538
-30.6273
-30.74
-30.7355
-29.1161
-30.4561
-30.0689
42.6626
-30.5811
26.38
-32.6998
-32.915
-32.8192
-33.9849
20.0209
-12.6116
-30.3298
-30.4105
-30.3547
25.2675
-25.2823
29.2386
-18.7516
-30.5055
-24.6477
-24.0956
-26.4716
39.9965
-30.9724
-28.5054
-25.2325
-15.2267
-4.39492
-6.10747
-10.0516
-27.0328
4.37244
-10.2068
-11.6477
-9.46342
31.3919
-18.2133
-14.5847
-29.6492
-1.71926
-30.0401
-26.3491
-15.9043
-11.8359
-9.87513
-78.8002
8.78891
-31.0421
-30.6056
-30.372
31.164
-30.7794
1.02279
-30.5572
-30.4831
-33.3735
-33.4307
-30.6888
-32.8172
-12.2962
-9.73682
-21.5414
-4.71256
20.6309
-25.8818
-28.0034
-6.37361
-30.7336
-30.9784
-24.149
-30.8102
-84.334
-91.9157
-21.9799
-87.5792
-78.6715
-31.0957
-30.7654
-31.3507
-31.5072
-31.0195
-31.4576
-6.36413
-25.1769
-24.852
-30.9775
-5.99044
52.6535
57.8588
58.9362
56.0932
19.9982
17.7697
32.5649
35.7632
27.779
-20.3898
-16.6537
-17.7966
-2.34067
26.9343
-15.6242
-20.0914
-16.1736
-31.5168
-17.0453
-9.25144
-15.6029
-12.5579
-35.5832
-31.8952
-38.9404
-12.162
-34.7284
-9.39082
12.992
-32.155
-17.854
-1.54385
-10.3673
-4.48031
3.75918
-37.6341
-6.4232
-31.8273
-12.4032
-34.4158
-18.3083
22.6877
23.0243
-31.6811
-30.0525
-32.63
27.0676
-30.2359
-30.5382
-25.064
-28.9534
-28.4543
-20.0198
-101.013
-17.061
-15.8653
-6.33572
-33.3198
-10.873
-9.21913
-27.8146
-5.0066
11.9465
-23.2436
-36.0103
34.5578
30.6196
3.10197
28.6174
19.3538
-33.4875
-35.5507
52.9757
-174.481
13.3447
15.0935
-128.343
6.37838
-3.70876
32.8836
3.14115
43.488
-63.1226
-70.48
19.3953
-55.6537
-9.03543
-11.0506
-13.8399
-20.1816
-22.0126
-23.5328
-24.3359
-18.2653
-144.493
-102.196
-46.3399
-43.3827
-31.6839
-10.0354
-43.7878
-38.2756
-27.4188
-34.7507
-19.9711
51.9906
-12.8829
-58.0365
-22.3569
-14.6859
-4.07434
-2.8106
-52.7281
-67.0263
-43.5858
-55.5862
-65.1473
-55.895
-15.8194
-12.5609
-37.2057
-11.4916
35.4741
-25.7061
-33.6195
-6.45846
-14.6072
11.2841
-37.1415
-11.5579
6.03618
-26.5269
-22.215
-40.1216
-10.2964
20.7106
22.8057
-28.2023
-16.9235
-24.3672
-36.3498
-1.05255
-6.05709
-12.2028
-8.39693
-31.5673
-16.0478
-21.9534
-56.5539
-75.4698
-48.0078
-56.4466
-59.409
-49.8801
-21.3685
-17.6475
-56.6939
27.1705
-18.6988
-18.1441
42.4929
36.7474
-20.2688
-16.4477
-16.2648
47.7774
-32.5531
-34.5074
-19.6203
-42.6271
-19.7182
-3.23645
34.7204
-11.1324
-11.4352
-39.3758
-22.1033
-20.9963
-49.0593
-91.0581
48.8903
53.4393
-31.1737
36.4538
-35.0152
35.199
-23.0443
-108.753
51.8851
47.6583
49.999
-21.9792
-48.977
-10.8387
-22.0173
55.0069
-24.8472
49.7252
-79.8344
-88.6764
-70.2804
28.4285
-25.398
-16.4321
-12.8778
-16.1223
-24.3913
-39.005
40.5737
-15.3078
-2.97951
-34.9862
-11.921
-4.4787
57.6686
-30.445
-32.1085
30.4083
31.8299
-4.28195
18.0339
-10.56
-23.8403
-9.65871
25.5236
-31.8286
-50.3313
-64.838
-7.88728
38.3066
-70.0071
12.9712
-1.25796
-31.3736
50.3255
-22.3831
-34.0023
-30.9394
-31.9727
-18.2803
-32.6157
-12.6724
-35.2029
-47.1767
23.2728
0.19109
-5.44441
-10.0209
-15.2984
-34.1136
-46.6624
-31.8325
-13.2454
-9.6988
-15.27
-16.075
-6.67785
38.7716
-34.1181
-31.4269
20.8333
42.9065
-42.7042
-31.3128
-26.1102
-22.9411
50.7025
-28.5867
-96.1138
-33.0197
-18.6178
-69.6405
-64.8114
-59.0547
-30.4373
-32.5084
-12.6029
-31.47
-33.968
3.18427
1.43619
-1.24203
-40.1985
-22.0726
-102.49
-65.4368
-27.4684
-30.3745
-97.8961
58.4164
-26.6222
-31.023
-14.2197
-33.641
-27.9739
-13.6052
-14.1893
-30.824
-30.4381
-29.9683
-31.1234
-16.0271
-26.5242
-29.3148
-27.2267
-29.7399
-5.5351
-10.7891
-25.8505
-25.1466
-28.095
-11.1859
-28.1809
-31.582
-9.08629
11.3092
-30.3881
0.705441
-6.6625
1.71937
-6.05621
-30.9481
-1.27671
-30.8525
-22.5837
-22.9599
-84.8516
-31.6493
14.7347
11.0455
-25.894
-11.0517
-31.5324
51.5224
-21.3197
-34.6248
-20.1541
-32.0601
-27.1541
-20.4795
-18.2248
-8.57343
-32.0057
-57.2906
-27.8578
-31.4157
-17.6622
-28.5941
-9.71469
-8.75934
-23.5186
-16.278
-30.8808
-25.2078
-27.3144
-9.91927
-30.6225
-11.1022
-39.4824
-9.64088
-15.8716
-28.7731
-7.3994
-31.3695
-21.8738
-27.3001
-25.5852
-25.8833
-30.3648
-33.8687
-5.14043
-14.8679
-27.1577
-18.1991
-25.5117
-63.7346
-20.4
-18.2261
-28.4137
-19.7918
-28.3848
-34.4542
1.41846
14.5476
36.9712
-4.48961
-31.9144
-32.6004
-31.8303
-3.65758
-32.4048
-1.04804
-35.2901
-21.9816
-25.0732
-40.0428
-36.9352
-33.1879
-32.2169
-33.461
-19.8839
-17.8228
-12.2943
-19.9437
-18.5988
-20.615
-29.4505
-24.9064
-9.38345
-8.03688
-9.58715
11.1572
-31.3204
-29.5237
-22.8023
-26.1051
-15.515
-22.3174
-24.7061
-61.3211
-2.86475
-7.77643
-21.3564
-14.7846
-4.99866
-18.2081
-15.6012
-14.3253
32.5382
32.2313
-19.5969
-30.542
-47.5323
-23.4876
-26.3336
-9.26881
-35.928
-34.7284
-15.5469
-5.72767
-8.64503
-14.5722
-36.8958
-48.8033
-29.1619
-28.4008
-12.087
-16.271
36.9313
-109.942
-16.3723
-40.4826
-58.1007
-31.1699
-43.5603
-41.986
-26.5201
-38.4506
-5.49868
3.28823
-10.7045
-8.41264
-7.77795
-60.0682
-32.8037
-2.38241
2.9209
-32.0812
-9.60231
18.0104
12.9
43.9926
13.8287
-2.14214
-24.9325
-30.4954
-3.50259
36.6463
4.62526
8.5553
-31.2714
-43.4895
-31.2948
46.5317
-50.9329
2.89131
1.37453
59.0535
-83.756
-33.9339
-28.0994
57.3043
38.4172
60.8143
53.3832
-30.0125
-11.578
13.0626
-1.4024
-30.7998
-24.1006
20.8019
50.7705
-49.2954
-5.88002
-6.27731
-6.73949
4.8296
4.99955
-18.3992
-27.4636
-13.7902
1.96646
-8.73485
4.54251
29.6766
-45.5023
31.593
35.1475
-49.2391
25.1139
-3.66939
-10.0302
-8.07735
-5.97283
-9.33407
-12.6922
-30.8511
-22.2962
4.36945
-33.2964
-10.29
-12.201
-11.9961
-15.9108
-12.8893
-30.8915
-30.482
-29.3351
-30.3691
-37.4787
-35.3954
-32.2417
-14.5296
-62.0254
-25.2364
-17.8912
2.15379
-9.62626
-4.9736
-56.0531
-24.892
-37.6212
-10.4676
-44.4924
-31.6278
-26.7661
-10.1621
-19.9106
-3.06516
-21.2832
-16.9907
-12.9902
-18.3514
0.601921
3.25172
-44.5096
-26.3851
-11.4108
-30.2353
-66.5914
-30.3177
-30.2919
39.2257
-33.6344
-14.7127
58.8281
-30.261
-30.1918
-13.6115
-29.9165
7.7657
-31.0632
-31.3037
-31.2711
-31.6865
-18.6197
-74.5065
-47.9654
38.8423
-31.4911
-20.7648
-31.6922
-33.0316
-15.5185
-18.4138
-30.3819
52.0175
-20.4022
-63.1798
-62.681
-80.6172
35.1938
-50.6195
-62.9904
-25.5069
-25.0991
40.3603
-33.9214
-21.3962
39.69
-32.7363
-34.1214
-28.0449
-46.5899
-35.0675
-36.2604
-39.2609
-30.1282
-23.2544
-33.1446
56.6999
-31.0943
-31.2819
-31.0997
-30.5284
-28.4584
-9.12008
47.5858
16.4321
-11.5441
-9.88092
-26.457
-12.2975
-29.0291
49.4041
-30.4627
56.6291
59.2112
58.8306
42.05
-22.2701
-42.8111
-24.6103
32.8352
-37.1552
51.861
-8.93557
43.2848
-13.9699
-12.4241
7.21947
-14.3424
33.6376
16.9504
35.5069
-10.3056
58.9801
34.6287
23.0774
29.0076
-43.7784
-49.6551
-67.6628
-65.4828
-17.3041
-67.873
6.39076
-66.0316
-65.3189
-86.9161
-62.4872
-25.9133
-30.3431
-65.4777
10.9048
-63.863
-64.505
-30.4346
-27.3674
-32.375
-27.1974
-76.068
-5.54121
-56.4291
-11.7877
-15.4014
-15.7131
-35.4952
-37.9077
37.3221
-13.9592
-28.9846
-7.72542
-15.2421
-32.2589
-30.4926
-31.8719
-24.5837
-32.7435
-34.1825
-4.6319
-9.76706
22.7801
41.3287
-13.1851
-13.9434
-15.2323
0.86235
-14.4621
-32.3054
-32.5416
-32.8919
-14.4049
-18.0339
-31.222
-71.6605
-10.583
-39.6861
-15.7881
36.4223
-50.638
-4.42818
-9.62736
-3.82948
-7.02683
-29.5059
-2.06944
-12.4869
-12.3028
-67.957
41.1247
-31.9852
40.2767
-7.16631
17.7972
-17.8751
-23.6725
-22.6147
-27.483
-23.0755
-31.4096
-14.6338
-14.3521
-41.2593
-32.4206
-44.9363
-32.2441
0.174462
-14.1441
3.39515
-30.149
9.47725
-27.5912
6.19515
-48.2949
-14.907
-4.24546
-13.749
1.49568
11.6352
-7.23203
-34.1196
1.01817
34.7383
28.6198
-0.426349
-15.3892
5.88563
-43.0204
-46.8307
38.6057
-65.201
5.69373
-23.0014
54.7737
-16.5846
4.39446
-13.6443
-1.10706
-20.8836
-24.3384
1.37513
-31.7228
-38.7162
-28.2381
-62.1576
-50.373
-56.0922
-28.3993
-21.9558
-4.89235
-31.401
-26.6983
-25.6863
-32.157
-31.091
-12.3487
-35.3774
-4.36703
-30.7598
-30.6023
-30.8451
-147.311
23.1084
25.2067
39.0231
59.2567
21.9656
1.33116
-10.2954
-7.62534
46.2045
44.8927
-33.1316
52.9959
21.6188
-79.4979
-34.2322
7.60882
-51.7873
-33.2148
-20.7569
-23.8367
-6.9682
-10.147
-36.9503
29.3519
-32.429
11.7967
35.1934
-43.8969
-4.05369
-55.3676
10.0765
-27.4112
-33.1901
-30.63
-4.81702
-62.5309
-53.857
-30.9441
-30.7429
-30.8303
42.3335
15.963
28.7251
35.6713
15.5005
-9.60577
35.3854
57.5161
4.26891
54.9367
-73.4245
4.24393
-9.97412
-5.56542
-4.35108
-32.0816
-49.5845
-45.5219
-90.2699
-30.5883
-30.7842
-7.82863
-29.295
-30.5814
-31.0213
-25.6918
-47.7152
-35.7458
2.42192
-27.5766
-7.52589
12.0728
-3.27141
27.1845
21.9163
20.2922
-30.2971
-0.317327
-29.227
-30.4
-38.2418
-31.3556
-28.5374
-7.61807
-29.653
-24.1985
-3.63258
-21.9334
-24.007
-5.96327
-29.7725
-21.22
-28.5721
-32.4827
-30.4012
-30.9495
-31.42
-34.9923
-4.16549
-32.1078
-28.6319
-10.4802
-12.5225
-15.9621
-29.8279
-9.85142
-21.4818
-30.883
-32.9412
-26.6039
-26.9674
3.58863
-0.359999
-31.6749
-19.0422
-32.0041
-30.8306
-31.2387
-30.5416
-6.83017
-11.3003
-30.1701
-4.49321
-14.443
-22.5743
-26.8867
-31.8247
1.27189
-13.0769
-7.93906
-21.2494
3.93978
-14.0871
-31.5186
34.5266
-29.7068
-29.8114
-18.471
-26.3512
-33.5672
-28.1832
-30.5205
-31.8552
-32.0536
-16.7006
-50.6575
-54.1176
-28.2876
-32.3023
-28.8318
-16.2431
-14.9594
-30.8935
-31.1711
-30.8917
-30.6644
-30.69
-30.7096
-29.8647
-30.7981
-30.8906
-30.941
-30.9059
-31.1955
-50.5227
-60.0292
-48.8974
-45.5083
-61.2269
-29.0411
3.19875
-5.71846
0.00982995
-22.7993
-23.7062
46.7226
47.8729
40.3
40.1202
46.7779
44.2839
52.8687
-37.5893
-35.8892
2.88027
-37.1605
-23.2285
-25.223
-41.8529
-14.9747
-15.1875
-14.7518
-21.6354
4.45612
-8.32135
-74.2081
-56.1479
-0.467012
-51.2449
-35.3034
-30.6825
-34.1859
-24.3521
-30.9577
-10.0001
-17.0623
-18.7538
-30.8092
-30.5896
-30.4353
-30.354
-31.2332
-22.352
-8.11589
-19.9919
-26.4655
-21.1201
-24.0405
-28.2394
-97.1375
-38.226
-23.5048
-20.035
-47.5987
-36.0203
-35.3782
51.7702
22.4908
-4.4693
-37.6575
51.2663
-31.6805
55.8879
56.0901
53.982
-23.0237
-31.7751
-30.4309
-30.0996
-30.5995
-19.311
-31.2065
-16.9376
-19.3999
-18.9693
-54.1721
36.4189
-15.561
33.1172
-35.4881
-57.6868
38.4905
16.8465
1.68582
-26.1329
-26.5675
-30.7823
-30.408
-30.8566
-34.422
-16.7786
-9.42877
-31.9076
-15.4831
-17.838
-39.5015
-35.5869
-60.1059
-20.0977
-28.003
43.3379
47.0331
53.5739
37.1148
43.627
27.1714
5.87558
1.55129
5.76988
2.61687
31.4772
14.4924
22.9129
-9.14279
-15.6632
51.1242
37.3955
36.5847
41.9518
-7.20703
43.0106
53.3789
48.2367
46.146
-30.5475
-30.3736
-30.2862
18.6306
-9.03984
-7.45901
-10.4631
32.2287
34.1804
39.1382
-30.5954
-30.6613
35.2764
54.72
-46.3888
52.1612
56.4822
-31.04
34.7107
18.6358
-118.965
-163.171
-18.1501
-94.0821
18.5757
33.2865
-81.0276
-18.6181
-15.4882
-60.2544
-60.4066
-31.3281
56.0817
-31.1542
-44.1887
-8.34932
-29.9608
-30.1971
-33.0788
-29.4712
-24.781
-32.1686
-45.155
-84.4496
-31.5989
-69.1313
1.22477
31.3106
-35.977
-44.7135
46.73
44.4704
29.2611
-30.6218
-33.6385
-33.3024
-29.3104
-34.9873
11.6413
-27.4529
-22.6189
18.1088
-31.0946
55.0195
-34.3581
-30.7451
-31.77
-31.1437
-32.1604
-30.9474
38.694
-46.3053
-4.56951
16.9731
-0.38541
-22.7082
-101.841
-31.3867
-30.7152
-59.79
-64.526
-60.2598
-30.6099
-32.8385
-19.4656
-30.33
-83.6011
-31.0543
-31.6242
-32.7466
-34.7049
-31.1342
51.45
55.6364
29.4088
30.3624
52.1731
50.8385
-32.0706
-25.8927
-32.4542
43.9677
56.9364
-11.1202
-7.69842
-6.78634
-11.6494
-2.84433
-28.1907
-21.572
-24.3925
-15.2911
-29.4924
-21.4046
-22.1007
-27.3245
-28.7817
-29.2771
-9.45083
-20.6132
-25.255
2.35004
-5.53041
9.49197
-22.6676
-30.5296
-32.3584
-28.5221
-1.73898
-30.362
-26.9356
-29.0293
-26.1085
-30.699
-29.2589
-31.6372
45.0225
-15.0652
-15.1429
-16.5455
-17.5518
-28.35
-29.192
-37.9241
-23.6654
-22.8009
-12.3605
-28.7739
-23.1139
-29.9571
-26.1523
-24.254
-34.8544
-21.9469
-28.8528
-65.9247
56.4256
43.6745
-31.3106
45.5656
-31.3727
-29.9077
52.0444
-4.94052
-52.3642
-28.1487
-4.13879
37.1127
39.5008
47.6476
55.4421
51.1003
-26.5641
-41.402
-13.8075
-10.0537
6.68877
-0.331498
-27.8929
-44.0456
-57.6307
-45.7183
-41.8163
-27.4303
-19.667
-27.3331
-27.7267
-31.623
-30.6796
-30.9132
-31.1147
-8.89215
-13.071
-18.538
-11.8476
-6.82709
-14.857
-15.0542
-29.96
-25.185
-8.76195
-24.0799
-31.1501
-31.2386
2.8595
-21.1266
-44.2538
-21.1807
-18.6974
-37.5116
58.6499
48.547
-15.3501
30.2547
-7.08615
19.6675
20.8486
-20.1267
0.218378
-13.1343
-17.1043
-25.7067
-35.7987
-46.6775
-32.336
-27.2911
-26.679
-51.644
-20.5867
-7.62417
-30.4805
-68.2043
-74.22
17.7532
14.5576
21.379
-33.6539
-51.6581
-20.6148
-37.4314
43.5603
56.1146
43.7647
21.7777
18.7963
59.3602
-5.15805
-14.1133
10.0697
16.7481
25.6721
47.0744
-51.1688
-6.82997
-27.9805
-19.0363
-22.8345
-21.7559
-26.287
-23.6036
-19.1967
-18.28
-35.6171
-15.4822
-2.35887
-29.9236
-15.9588
-64.424
-62.2317
10.5764
45.9023
43.8014
-11.2737
-39.1601
43.7275
10.4965
-17.7294
14.2292
-21.0126
-17.6615
-44.2898
-17.5975
-13.878
-15.6866
49.5729
-43.364
-52.7691
-19.1163
-11.4434
-33.201
-27.792
-33.8959
-31.0036
-52.6781
-32.1611
33.9244
33.3984
46.3191
42.7438
45.2227
41.9168
-70.8637
-22.417
-31.1043
-20.5959
-32.7614
-35.9314
-28.9382
-32.3443
-19.5511
-34.411
-32.438
-19.4356
-5.21652
-19.4441
-18.1119
4.20221
2.58616
0.184752
-32.2774
36.6549
35.3954
-79.9751
33.139
-0.582846
23.3208
39.0956
-26.9477
-26.0458
-13.1982
-31.246
-36.8173
-9.55333
-12.575
-31.9708
-31.8439
-32.4365
-64.5567
-51.354
-71.3429
-23.2262
-44.453
-65.516
-11.5816
-9.9141
24.4182
54.8883
-31.5584
6.22131
-31.3444
5.30469
-4.41359
0.650958
41.3563
-62.9419
-25.305
-25.8566
-21.6791
-27.0408
-26.9418
-27.6076
-27.0096
-28.5272
-12.0018
-19.9666
-17.7753
-9.06946
-30.2034
-31.4763
-30.3953
-31.5957
-26.2099
-30.637
-29.4515
-30.5427
-30.6105
-30.5303
-26.6035
-15.7089
-18.9896
-21.2129
-28.6424
-20.2433
-32.4269
-5.68503
-14.9068
-14.0633
1.66239
-6.14174
-10.255
-3.44751
-2.88284
-0.594849
-29.0204
-4.50787
-26.7095
-30.3646
-10.9745
-7.2264
-11.5826
-16.0584
-26.3687
-23.6674
-17.2068
-30.0283
-27.2307
-31.0278
0.942104
-33.7432
-32.0265
-26.5252
-29.2475
-30.193
-20.6159
-30.0653
-24.5531
-29.0025
-16.4623
-18.6773
-29.6771
-29.6641
-10.4661
-29.266
-29.6959
-25.827
-23.0396
-32.252
-29.3208
-23.3115
-10.5484
-14.9629
-28.6071
-32.1641
3.08899
-30.444
-30.2676
-30.5454
-4.43564
-42.9627
-76.4366
-58.788
-8.97275
-16.9776
-28.3536
0.624212
-11.6018
2.46002
11.7442
-31.5909
-14.694
-89.3279
-65.7739
-17.3179
-31.1433
-31.1323
-29.0485
-27.0712
-30.6064
-24.2529
-25.5641
-30.3097
-34.4315
-31.1852
-24.6309
-30.11
-20.9137
-31.603
-11.958
-10.7773
-25.4872
-44.6282
-8.98071
48.0989
-59.3836
-123.473
-60.5889
-33.0553
-15.5965
62.576
9.19845
-30.4142
-32.1137
-30.4356
-30.4671
-35.9033
-30.6589
-30.665
-30.8808
-39.6696
-10.0579
-30.8502
-30.7024
-30.738
-4.17543
-0.703758
-5.24278
-47.9454
-31.9091
-173.316
-34.8798
31.3719
-30.4334
-32.9589
-32.3416
-40.4073
-28.521
55.2829
-32.522
-30.4806
-35.4722
-30.614
-31.3125
-28.4943
47.1252
-30.1681
-9.22784
-7.70681
-3.75082
-12.4601
-7.36928
-6.097
-6.72587
-20.0906
-10.7341
-4.59438
-30.0085
35.5689
-31.8063
-24.0292
-31.4183
-31.7407
-26.1331
59.3501
-6.07025
-38.0057
-2.58104
4.5926
-4.1298
-29.751
-18.4894
-67.1788
-42.8195
-63.5732
-43.4117
-81.0667
-26.3695
35.2179
-31.4922
-11.1746
-41.305
-29.0107
-43.5717
-37.7635
-28.3893
-30.3959
-30.5161
52.4806
-31.2104
-31.6824
-56.0322
39.0115
-58.88
-31.0946
-31.6617
22.5394
-31.1478
-35.7492
58.5753
-36.5723
58.5834
59.8096
-30.2924
-36.6425
34.8245
-30.0924
-30.578
-27.7434
-26.4933
-27.18
-24.1017
-31.63
-27.3103
-31.8963
-70.6004
-66.5154
56.9055
-58.5645
44.2739
-29.4951
-18.0532
-22.1819
-29.9852
-30.5898
-30.2492
7.29561
3.20492
-2.29857
3.38704
7.67431
4.90401
-25.9316
-62.7747
-66.7689
-33.8347
-121.833
-31.5151
-30.2119
-31.7163
-31.8199
-31.3592
-31.7077
-33.0097
-31.91
-31.503
-32.1883
-31.0923
-6.57185
-32.0441
-31.0954
-30.5243
-32.2825
-31.2983
-31.8056
-23.0021
-24.0254
-22.6875
-24.4352
-32.6319
-24.5453
-13.9318
-13.0667
-10.5416
-10.8185
-20.4232
-15.6647
-5.26976
-6.53212
-41.4914
-16.8838
-6.58739
-12.0313
-32.5658
-7.60361
-8.24669
-26.7389
-29.1158
-28.8039
-23.3586
-38.4028
-30.8167
-22.6631
5.54944
-3.44478
-28.8932
-31.6755
-25.8244
-28.1761
-16.5548
-16.7522
-13.1293
-59.836
-86.3641
-14.1674
-4.14494
-108.447
-132.457
-27.6119
-10.0819
-11.8602
-61.6887
-22.753
-30.3802
-27.8242
-30.349
-13.3331
-16.0111
-12.5246
-17.0865
-15.0606
-62.1574
-53.3124
-174.427
-37.227
-36.9099
-43.9851
-35.9615
10.0374
39.6129
38.648
10.3689
-31.3076
-1.53267
-22.5642
-20.7348
-33.4147
-33.0593
-32.0822
-36.7975
-32.6186
-22.7625
-8.15802
11.7897
-2.45971
-34.6438
-37.2372
-29.566
-14.4326
-16.1504
-9.07405
-31.5444
-33.3879
-35.2768
30.2675
-13.7186
-22.0148
0.933317
-20.121
-42.5568
-32.5486
-41.3621
-24.715
-44.7913
-28.4541
55.8774
51.2555
56.544
54.5083
57.0797
-21.2099
-5.93
-4.64927
-8.77765
-10.1385
-35.1468
-37.0185
-171.244
-112.006
-3.28883
-48.1472
-31.188
-22.4274
-21.9684
-0.308947
13.5143
-1.26733
-19.3975
38.7451
54.5076
-10.0217
-8.09523
28.3531
14.4219
-34.3156
-19.5375
-44.7933
-37.4939
-26.1532
-19.1564
-23.8016
-28.2511
-4.16441
-15.6937
-33.6944
-25.1464
-19.1468
-20.4367
-13.7054
-21.3836
-31.1509
-11.1751
-4.86932
-10.5209
-2.50812
-6.07832
-29.6142
-23.7629
-17.1174
-167.66
-10.783
-8.81016
-58.867
-3.3383
-14.6006
-13.2123
50.1836
48.4658
45.1154
39.6075
1.0812
6.57411
6.74909
-2.19115
-5.00161
3.98002
-1.6116
3.88251
-156.212
-16.5317
-56.9496
-32.0357
8.26425
-19.7475
15.3517
6.71587
-15.4088
-56.9485
-12.4434
-21.1113
7.93042
-11.777
-67.2142
25.5685
20.9707
38.6418
7.9111
30.3078
-6.85767
-9.92476
-6.83034
24.4354
28.8385
23.9185
43.738
20.7027
29.274
30.4196
-7.66081
-2.98241
-10.4979
-23.2115
-7.58241
-19.7181
-25.4844
-23.0097
-44.6523
-23.0229
-20.1019
-16.5328
-15.7049
-53.5731
-66.2028
-116.391
-30.6618
-10.034
-24.2865
-38.152
-7.16501
-120.816
-79.3447
-62.2635
-31.7911
-6.45903
-0.534686
-3.92104
-10.5487
-18.7517
-6.3204
43.7788
-10.7995
56.4742
-3.3731
-1.00714
57.5103
44.4916
46.2235
-6.92712
-59.8559
-4.23551
-21.1242
4.13886
11.9842
-6.47045
-29.0821
-17.6679
-16.8884
-31.1827
-31.5891
-31.6197
20.3304
43.7458
45.9135
11.9372
15.146
-1.67647
-1.45853
8.62981
24.0213
-16.1287
-24.5188
-45.8012
-30.1036
-31.5684
-33.0854
-35.029
-50.9474
-91.9305
15.456
25.8878
-17.3203
27.4866
-18.0169
-34.6681
-4.65919
47.0543
-61.5129
-20.2385
2.02344
-122.098
-31.1016
-34.0474
-35.0776
-34.5838
-34.0802
-31.7562
-30.2557
-9.88565
3.33114
-39.2857
-36.9175
-41.7561
-23.129
-14.6327
29.7941
-0.487002
57.5958
-38.2832
-35.9607
-30.318
-4.70004
-0.99163
27.4416
22.8323
10.5812
12.0165
38.767
-20.7002
-27.6787
11.6141
5.72321
3.07728
5.37581
30.37
-41.9581
-25.9362
-29.1992
-23.3105
-23.0204
-24.2022
3.98552
-30.2009
-30.0026
-30.7598
-33.4497
-30.3782
-24.194
-19.6475
-34.0627
-42.5597
-21.8124
-20.34
0.843327
-15.193
-20.4513
-30.3918
-32.884
-28.5729
-30.8613
-32.8026
-32.05
-30.8333
-31.3379
-30.6432
-29.3065
-31.131
-15.516
-21.5123
-24.7626
-21.3223
-23.3084
-8.47856
-10.0115
-26.1287
-19.0956
-17.1006
-23.9154
-30.4402
-30.6351
-31.5017
0.74851
-28.4345
-30.2843
-18.5503
-31.8619
-28.5306
-30.6368
-28.2204
-13.4771
-17.0778
-14.3519
-15.2479
-14.1505
-15.2352
-17.5471
-14.5335
-18.9749
-17.7079
-15.0004
-15.293
-27.3015
-31.0048
-26.2439
-28.1253
-21.0378
-18.5007
-10.29
-30.1726
-17.8666
-23.6048
-11.9694
-22.6196
-9.84115
-15.4133
-24.0755
-29.0161
-34.5703
41.3889
-41.8012
-42.7653
39.3977
49.1286
38.0534
-32.7792
10.7869
49.099
23.915
-19.5187
52.4176
-32.494
53.2012
-30.4931
-30.5584
-64.6186
-62.428
-32.1282
-47.4368
-57.7163
-33.3933
-30.3826
-31.6913
-25.8322
-30.6985
-28.5815
-30.2544
-9.26387
-21.941
-6.87994
-30.5542
-32.3526
-62.2832
-8.32508
-8.94279
-32.1982
-36.9517
-75.2428
-8.03003
-38.6376
-17.275
-16.288
-32.5697
-18.6639
-12.4442
-43.949
-72.1231
-17.4033
-33.7567
50.7805
-60.7926
-28.3441
-26.6209
-26.7141
37.2291
47.0425
38.8927
39.9432
51.7483
58.8249
22.0232
59.0395
48.4278
46.209
-32.5971
-31.9084
-31.9417
-32.9874
-30.6932
-26.8
-31.6398
-33.4122
-31.1624
-32.7628
33
33.5738
32.8123
-31.848
-30.5128
-32.4498
-28.4662
-32.476
-13.3816
-10.4283
-13.7396
-4.77919
-8.32035
-10.2843
-9.97004
-7.82239
-4.83283
-14.5098
-11.9494
-32.5598
-11.6044
-34.8174
-14.5213
-8.97129
-34.5573
-23.9386
-29.0425
-31.4338
-32.3214
-33.2157
-27.2994
-30.5435
-12.0718
-33.7509
-25.5265
36.6311
-26.4845
-26.8253
-30.5822
0.863106
-29.2913
-22.8225
-15.0847
-14.2925
-33.5034
-30.529
40.0429
-24.1527
-31.2442
-44.4878
-43.1043
-31.1759
-31.46
-35.139
-32.2849
-33.4632
50.523
-30.5546
-31.0542
-30.5532
-31.629
-30.8319
17.5732
-0.729517
-30.4532
-30.6548
-29.608
-7.62692
-31.2691
-31.0064
-31.098
-25.5081
-49.4333
-43.8948
-47.401
-54.2931
-34.5973
-32.7838
-67.4868
-23.8721
-15.7421
-34.412
-41.8932
0.97039
12.5173
14.9488
54.2591
12.2504
-15.4196
-20.2867
-24.0141
-6.67411
-19.9396
-7.69262
-8.67386
2.30562
13.5987
-31.3883
-32.9654
-34.9403
-38.2488
-34.9887
-28.0518
-27.8414
-15.6715
-12.5585
-10.0152
-7.72602
-12.8962
-13.6644
-19.175
-17.9376
-9.64845
-9.46759
-6.38876
-39.0199
-38.1376
-35.6302
-3.57751
-24.911
-11.3489
-14.6112
-19.7794
-13.6547
-14.9643
-18.1074
-16.9297
-22.0981
-7.99036
-22.7507
-34.8118
-32.5181
-53.4603
-20.6921
-11.1968
-37.6262
-26.0795
-10.6017
-10.8783
-32.5095
-22.3263
-35.5333
-23.3754
-22.6331
-28.6984
-35.0321
-13.4388
-16.7449
-33.6461
-18.4655
-20.4744
-21.802
-32.2272
-32.8129
-33.078
-27.2243
-14.9503
-19.1581
-16.2641
45.4276
40.4856
49.6974
44.2163
-33.6733
-32.9408
53.2221
43.236
53.4931
-12.346
-1.35579
-23.1285
-14.3341
-21.5156
-38.8014
-34.3398
-120.658
-98.4336
-39.1604
-37.1395
-44.0834
-36.8952
-40.5076
-48.4075
-31.0804
-77.3333
-78.7944
-76.1059
-93.7607
-88.8509
-93.4769
-88.2289
-93.4782
-101.998
-105.181
-12.6256
3.91738
-31.7673
32.1486
-30.902
-32.4807
-30.9295
-33.1959
-29.2371
-27.6894
-30.2956
-27.8032
44.0448
-123.174
-123.038
-31.1392
-30.525
-30.4329
-30.5334
-30.685
-30.1862
-31.05
-28.9881
-31.5573
-27.4543
-17.688
-60.4176
-30.2903
-68.2991
-121.362
39.5464
-32.2037
46.7636
54.9569
-31.0226
-30.5862
-30.4552
-18.2497
51.5681
-36.3181
-15.7607
-18.9036
-16.5779
-26.3976
-31.776
-22.1523
-31.4107
-4.99343
-32.4968
-30.6703
-31.1737
-31.4284
-31.3657
-102.099
-1.14599
-79.6608
2.017
0.807383
-8.18009
-16.7711
21.098
25.3919
-24.4984
-30.0611
-10.9698
-31.6309
-30.0963
-30.0906
-30.1715
-30.1682
-31.483
48.0829
44.8283
-32.8109
-17.6751
-22.1399
-14.537
-15.8926
-14.1645
-31.1675
-36.0089
-37.1013
-32.1523
-10.2373
-37.9421
-18.6451
-27.3438
-43.1852
-9.56343
-21.812
-11.2621
-25.1986
-30.2936
-30.2186
-30.9224
-33.3076
-48.4596
-6.61114
4.91376
-15.5381
-11.6283
-20.2415
-15.1402
-11.756
-8.36432
-11.2686
-20.6511
-51.7536
-40.2753
-38.947
59.5895
-20.7881
-31.2648
-35.8424
-27.0327
-30.6706
57.0402
52.752
53.2227
56.7983
41.0585
38.864
-30.5005
2.39127
50.6438
-30.5152
-11.3413
-38.0163
-27.2564
-19.6931
-10.6161
-25.5553
-19.4995
-47.5119
-34.9041
-51.6154
-35.2658
-43.1918
-35.3618
-48.369
5.9545
25.0598
11.215
-68.7157
10.4587
17.9665
-12.8177
-17.6209
-58.9542
-29.4213
-35.7155
-35.8906
-68.1977
-26.1673
-44.9422
-21.5008
-63.0823
4.26767
-60.8108
-47.5759
-183.926
-130.336
-26.4848
-7.4089
-89.6472
-22.9047
-25.9465
5.84476
4.64342
53.1638
48.2775
32.7605
-61.8658
-83.3488
-47.3165
-20.2219
-5.74515
-23.483
-16.7226
-28.8166
-13.4199
-31.0676
-41.7077
-37.1387
1.34831
-55.9219
-55.8162
-45.3577
-31.5673
-35.1792
-74.8812
-70.8661
-64.5887
-25.231
-41.9417
-14.3164
-25.447
-37.1886
-16.881
-12.3071
-6.85612
-9.05858
-10.3314
-20.9009
28.5607
41.7433
48.6622
-24.3639
-14.5424
11.6041
33.4996
42.894
15.3721
41.589
1.69819
-44.3776
-37.5806
-0.956875
2.33841
-20.135
33.0329
-29.3719
4.59206
-14.5951
-5.4951
-12.2
-65.1334
-102.767
23.3326
48.3345
44.1349
-8.3657
25.6879
38.6684
-33.6303
-23.1624
-26.468
-71.9697
-86.6971
30.1874
17.3644
30.6628
18.8763
-6.92459
-12.986
28.2778
14.2055
-13.6569
-26.7559
-19.9155
-12.0916
-24.5506