/*--------------------------------*- C++ -*----------------------------------*\
| =========                 |                                                 |
| \\      /  F ield         | OpenFOAM: The Open Source CFD Toolbox           |
|  \\    /   O peration     | Version:  2506                                  |
|   \\  /    A nd           | Website:  www.openfoam.com                      |
|    \\/     M anipulation  |                                                 |
\*---------------------------------------------------------------------------*/
FoamFile
{
    version     2.0;
    format      ascii;
    arch        "LSB;label=32;scalar=64";
    class       volVectorField;
    location    "0.0948794";
    object      U;
}
// * * * * * * * * * * * * * * * * * * * * * * * * * * * * * * * * * * * * * //

dimensions      [0 1 -1 0 0 0 0];

internalField   nonuniform List<vector> 
3918
(
(-0.214941 -0.247813 -0.561987)
(9.57328 0.349713 -0.304446)
(11.7423 0.312807 0.249387)
(12.6635 0.343826 0.343886)
(11.0426 0.535603 -1.73568)
(2.74609 0.974935 -7.63947)
(2.59453 0.437953 -10.9421)
(9.51555 0.309434 1.90201)
(10.8713 0.61725 -0.0885746)
(7.89404 -0.171838 2.23407)
(8.235 0.39281 -4.19384)
(-1.92648 -0.260458 1.08399)
(-2.35948 -3.05071 1.44917)
(13.3798 0.695761 -0.33951)
(12.7689 -0.0455726 0.386022)
(6.6989 -0.0736078 -5.79022)
(5.28178 0.27694 -6.43198)
(-0.136081 -1.64757 0.185671)
(-0.13474 -1.60045 0.157374)
(6.28907 -0.29587 2.08991)
(1.49363 0.639798 -3.64096)
(11.8277 0.183368 0.847494)
(10.8739 0.469436 -0.217545)
(-0.497953 -1.06059 0.822151)
(10.7503 0.791551 0.335328)
(-2.57093 0.856864 1.2222)
(7.70955 0.646272 -2.7191)
(12.5302 0.353078 0.119417)
(-0.04378 -1.43337 0.536286)
(-1.71566 -0.256661 -1.3179)
(-0.237253 -1.38646 0.0469047)
(11.4865 0.362452 0.672155)
(12.4291 0.0916915 -0.0656976)
(6.17637 -1.05141 2.28893)
(10.1734 -0.417749 0.862161)
(-3.44462 -2.11886 0.791025)
(11.2986 -0.152497 1.42104)
(11.7792 0.462863 1.25239)
(3.09928 0.963689 -3.83808)
(11.7221 0.916705 0.0855761)
(11.3533 -0.0549059 2.81336)
(12.0007 0.42228 -0.119555)
(7.74755 0.302218 3.30699)
(11.6617 -0.248889 1.61862)
(10.732 -0.108613 0.523824)
(9.21711 0.533389 -5.37301)
(10.4112 0.746838 1.7081)
(3.8896 0.940428 -3.38861)
(-0.560182 -1.06923 0.187651)
(13.1306 0.646816 -0.446234)
(5.81567 0.737479 -4.81228)
(0.0991393 -0.112852 1.27158)
(12.0772 0.489686 -3.65498)
(-1.69466 0.423397 -1.78269)
(12.502 0.0720916 0.0303413)
(6.53374 -0.0381356 0.00267266)
(12.5467 -0.0345223 0.257216)
(6.83785 1.82691 -0.272477)
(10.751 0.610381 2.44109)
(7.89257 0.0103002 1.96015)
(9.48397 0.64396 -3.34054)
(12.2347 0.285732 -0.0541909)
(10.7215 -0.112835 0.597462)
(11.0504 0.0635885 2.02078)
(8.26608 1.81211 4.71565)
(11.7569 0.0659997 0.154423)
(8.00318 0.383399 0.82932)
(-0.437965 -0.0997097 0.237964)
(6.56633 0.389895 0.15208)
(-1.0088 -0.392921 -0.157312)
(9.01759 0.457393 3.37747)
(12.4396 0.542288 -3.11879)
(12.4835 1.03672 -2.30737)
(7.88898 0.5257 -0.791362)
(-0.0739352 0.62585 -0.667909)
(0.15698 0.470387 -0.600877)
(0.157238 0.442701 -1.87639)
(-0.527529 0.486176 -1.94403)
(-0.0442983 0.192995 -1.15491)
(11.2049 -0.404749 0.897621)
(-0.894606 -0.362886 0.323208)
(1.00812 0.944401 -5.01592)
(0.254901 0.013474 -1.48467)
(5.49728 -0.0617022 1.9398)
(11.9503 -0.258081 0.205751)
(-0.293051 0.307341 -1.48626)
(-0.221588 -1.46855 0.199864)
(-0.216508 -1.49716 0.157685)
(9.96894 0.0602502 -1.71074)
(12.4418 0.416848 -0.468273)
(9.296 0.623986 1.818)
(10.9926 -0.0790923 0.166285)
(-1.40117 1.12934 1.99273)
(6.97456 0.720492 1.81919)
(11.7196 0.525604 -0.103514)
(10.0865 0.627514 0.189214)
(-0.129715 -1.35739 0.788025)
(11.2344 -0.161721 0.384936)
(-0.168059 -0.901271 1.36269)
(2.38211 1.06335 1.63287)
(12.6494 0.337429 -0.273473)
(12.7123 0.392234 -0.266705)
(12.1719 -0.525303 0.232523)
(12.5975 0.378785 -0.350437)
(12.6834 0.395324 -0.471344)
(0.0802459 0.579347 0.373364)
(11.2094 -0.307995 0.640897)
(6.9707 0.270854 3.86255)
(10.5239 -0.0105512 1.58831)
(2.76629 0.457227 -0.739524)
(-0.0269883 -0.336793 0.446514)
(-0.26436 -0.399101 0.588944)
(0.0523184 -0.201675 0.0607035)
(-0.216413 -0.214833 0.305882)
(-0.379912 -0.343955 0.526559)
(-0.221137 -0.381625 0.345049)
(-0.0600954 -0.420463 0.244655)
(-0.355506 -0.345035 0.825967)
(12.051 0.925345 -1.63172)
(8.7217 1.00734 0.237954)
(11.6056 0.47792 1.19132)
(1.76409 -0.457672 -0.922827)
(3.62724 2.10922 -0.564283)
(-0.571114 -1.25659 0.102545)
(10.1841 0.346283 0.171648)
(4.02778 1.74833 -0.105501)
(0.177455 -1.6688 1.40868)
(11.9366 0.99773 -4.20736)
(3.47386 0.825121 -0.565749)
(7.10745 0.95225 -2.59292)
(10.5169 0.527173 -1.04021)
(3.6703 0.270864 -0.410912)
(10.9016 0.410623 3.92378)
(12.7397 0.506776 -1.10329)
(0.318495 1.75208 -1.34914)
(0.51614 1.87733 -2.00241)
(-0.10617 -1.66675 0.145598)
(-0.294072 -1.54457 0.0288958)
(-0.0785361 -1.73517 0.125939)
(8.17233 -0.278009 0.185013)
(2.38496 0.91453 -0.730411)
(-0.085522 -1.74254 0.141397)
(0.262159 0.224121 -0.1526)
(1.99841 1.35481 -2.19995)
(8.89862 0.497133 0.800257)
(12.0606 0.552007 0.0579845)
(1.3109 0.725414 -6.13145)
(2.39443 1.12135 -1.60366)
(11.8614 0.0383427 -9.01994)
(8.17479 -0.167681 0.13035)
(12.9088 0.478211 -0.529792)
(-0.0500014 -0.923253 1.87768)
(6.17667 -1.02253 1.91618)
(3.69143 -0.971881 0.15014)
(13.2799 0.468641 -0.644921)
(13.8057 0.932378 -1.49323)
(-3.20635 0.588773 1.72324)
(13.1201 1.92377 -6.61846)
(9.89992 0.596456 -1.5665)
(11.6167 0.699339 -1.33346)
(11.6308 -0.0119929 1.23044)
(-0.169054 -1.13483 0.211114)
(-0.344035 -1.1046 0.330098)
(-1.3227 -0.833803 0.229409)
(-0.323212 0.258082 0.348433)
(-0.310529 -1.57588 0.340955)
(-0.0153293 0.040249 0.196962)
(0.905474 -0.541251 0.175132)
(-0.134902 -0.360405 0.213286)
(-0.0999447 -0.116383 0.439521)
(5.65296 1.14308 2.53428)
(-0.0150096 -1.61214 0.217999)
(-0.0137308 -1.66432 0.168802)
(0.0986978 -0.884483 0.331247)
(-0.00298244 -1.28345 0.289044)
(-0.36018 -0.387464 -0.405643)
(-3.11351 -1.20954 -0.500662)
(10.8948 0.522585 3.05609)
(1.39276 0.916314 -3.98795)
(6.65044 0.849064 -3.47534)
(11.0722 0.671891 0.874468)
(-1.01652 -0.59973 -1.10568)
(-1.81523 -1.23229 0.605722)
(-2.0669 -0.692634 -1.17161)
(4.77521 -0.193203 -0.512032)
(11.1712 0.210163 1.48282)
(3.3368 1.23117 1.51583)
(12.9881 0.55265 -3.59539)
(1.38557 -1.25117 2.15956)
(5.61551 1.98328 -0.461629)
(12.4088 0.176934 0.349495)
(1.4283 -0.254675 -1.03232)
(2.95793 0.81927 -2.09793)
(1.90264 1.42676 -1.28667)
(13.1636 0.795395 -2.09344)
(8.3443 0.86825 -0.180269)
(13.3449 0.667618 -1.84397)
(9.26525 0.359668 0.441956)
(8.07444 0.603388 0.935973)
(10.7002 0.864355 -2.86707)
(4.71865 -1.16403 -0.26169)
(2.68062 0.729677 -0.202853)
(0.000148745 -1.41089 0.215929)
(13.4506 0.433426 -1.94142)
(-0.166677 -0.268439 0.17431)
(7.69795 0.778798 0.849427)
(8.87475 1.78807 2.45328)
(9.84697 -0.143568 7.20371)
(2.36272 -0.233429 0.40222)
(9.16859 0.476085 -2.99175)
(13.0115 0.534799 -0.112886)
(-0.557136 -0.445476 0.193603)
(12.0731 0.581586 -2.44838)
(-0.49259 -1.30962 0.0667979)
(7.31777 0.53384 -3.37481)
(9.73092 -1.46737 -8.9114)
(12.8948 0.897227 -0.988023)
(13.3962 0.496849 -1.45301)
(-0.366404 0.407592 1.20828)
(7.86262 -0.160644 -6.40098)
(2.48996 0.564292 -0.406467)
(1.42881 -0.247376 0.218181)
(-0.38387 -1.41776 1.10238)
(9.40501 -0.43417 1.94992)
(9.45381 0.561544 0.414813)
(-0.0495439 1.35665 1.76411)
(5.47166 0.957113 1.36754)
(0.666512 0.0306564 -0.484497)
(11.4983 -0.822098 -4.76008)
(8.12585 0.928277 1.1873)
(10.4881 1.04043 -0.296063)
(-3.2489 -2.19639 0.00450264)
(9.11303 1.49024 -5.94907)
(13.3391 0.469612 -1.56998)
(10.9044 -0.427116 0.796358)
(7.33067 0.967955 0.646105)
(-0.169155 -0.441776 0.0681467)
(12.5722 0.561787 -1.38257)
(-1.55418 -0.512784 -1.63028)
(11.3167 0.406226 -0.924934)
(-0.54036 -1.33451 0.106771)
(13.2919 0.12292 -1.84341)
(12.8059 0.561503 -0.694596)
(12.792 0.523851 -2.84454)
(11.5725 0.737334 -1.56052)
(6.47813 0.705169 0.219994)
(10.9766 0.661512 -1.42386)
(11.8896 0.989862 -3.52106)
(10.1075 1.04835 -6.3519)
(7.16887 0.792511 -0.931504)
(13.4827 0.430242 -0.732806)
(3.18796 0.0508716 0.686367)
(9.67528 0.422725 1.55675)
(10.256 0.523378 2.8425)
(-0.565606 -0.329179 0.770002)
(5.44618 0.599234 -1.00779)
(3.12005 -0.507109 -0.499181)
(11.0317 0.0033861 2.99938)
(4.51147 -0.143847 -0.00420246)
(13.9277 0.686773 -2.51058)
(-0.175336 -0.459202 0.83981)
(0.0345409 -0.991211 -0.186649)
(0.203271 -0.933899 0.993231)
(12.643 0.11557 -0.112685)
(0.967771 0.584277 -5.67019)
(10.0162 0.330629 2.88637)
(7.42051 1.00951 3.24591)
(6.95911 0.82387 -3.12391)
(2.19084 1.38188 -2.59339)
(7.13251 0.60581 -3.09392)
(2.2782 -1.89186 1.86574)
(13.6248 0.732057 -1.32251)
(11.3765 0.498349 -1.64931)
(12.4919 0.505004 -4.10488)
(12.7404 0.447875 -2.65075)
(9.81768 0.657174 3.38355)
(2.70783 0.120176 1.22988)
(8.90886 0.233735 0.349751)
(12.188 0.482516 -2.64865)
(9.22143 0.663592 -3.08443)
(12.0832 0.506287 -4.37852)
(12.2242 0.289201 -6.3464)
(-1.12277 -1.04861 0.453878)
(10.2807 0.524513 -2.51373)
(11.5108 0.459474 1.60042)
(5.95942 0.191297 4.46508)
(12.3345 0.302812 0.960473)
(4.47601 0.605491 0.667334)
(10.9494 0.650644 -0.984963)
(11.7575 0.901521 -2.48091)
(1.28609 -1.98689 -0.854552)
(13.3752 0.413027 -1.28268)
(10.0879 1.78111 -8.10088)
(10.2647 0.586354 -1.26128)
(13.7227 0.363533 -3.38966)
(12.584 0.770864 -4.00332)
(4.96019 1.02225 -0.357329)
(-0.203419 -1.43303 0.050307)
(-0.155735 -1.67238 1.9331)
(12.8813 0.432812 -1.54138)
(-0.241163 -0.874362 0.292165)
(11.0013 0.617125 -3.85619)
(10.3651 0.458668 -2.89288)
(-0.0411111 -0.64744 0.811943)
(11.6183 0.871605 -1.32098)
(-0.304003 -1.29842 1.10513)
(9.7201 -0.127242 3.87596)
(6.4939 0.74126 -3.31922)
(12.0547 0.270232 -0.340714)
(13.3219 0.55613 -3.8924)
(-0.65637 -0.334418 0.642344)
(4.91611 0.332328 -8.34691)
(-0.177741 -0.369929 1.01772)
(0.0994471 0.382248 0.128555)
(12.8218 1.10418 -4.70948)
(4.99108 1.45886 -8.26309)
(12.1231 0.519495 -1.4844)
(7.29687 0.569758 -2.90947)
(2.0495 0.517942 0.0185201)
(5.93781 2.02691 -1.01613)
(11.6252 -0.157439 2.29622)
(-0.223986 -1.30948 0.328338)
(0.241684 0.372636 -0.295266)
(2.94117 0.559997 0.188748)
(3.94973 0.423241 0.594072)
(6.81583 0.64426 0.471124)
(11.3733 -0.129039 1.24471)
(12.7686 0.749573 -3.8589)
(-0.0262765 -1.23627 0.552945)
(10.6312 1.10959 -0.190442)
(4.6206 1.1668 1.97041)
(10.9862 0.730273 3.78068)
(11.1409 0.327484 2.24125)
(-0.227023 0.112271 -1.98887)
(-0.253743 -1.50874 0.368359)
(6.16975 0.660874 2.76317)
(5.32685 0.317496 0.518427)
(13.1412 0.140836 -0.171454)
(4.47623 -0.149954 -0.26962)
(11.9318 0.899034 0.164315)
(12.0186 0.3086 -0.276822)
(-0.693258 -0.210989 0.230509)
(7.28205 0.905116 0.591497)
(13.1706 0.490714 -1.57337)
(5.93603 0.722616 -2.85572)
(5.70352 0.887395 0.485217)
(2.34553 -0.40057 1.42008)
(7.55825 0.67529 -6.16275)
(-0.459387 -1.30659 0.242853)
(4.07031 0.896687 1.76778)
(7.95384 0.745466 0.946613)
(-0.372206 0.432335 0.895515)
(7.91672 0.367105 2.50294)
(11.8201 0.249973 0.678262)
(9.97936 0.0522634 0.0981696)
(11.9771 0.496212 -0.293052)
(-1.39694 -0.341098 -1.29317)
(13.7461 0.715108 -3.04606)
(-0.14536 -0.400524 0.196897)
(11.766 -0.317062 0.513718)
(13.0077 0.513292 -1.70907)
(0.356719 0.265674 0.971345)
(0.11588 0.364151 1.39798)
(10.1721 0.550396 4.57792)
(2.80494 0.291112 0.162207)
(-0.153185 -0.313097 1.18579)
(8.81712 0.351964 0.0301455)
(-1.53596 -0.138566 -0.973592)
(3.24237 -0.102237 0.620444)
(9.6959 0.0754567 3.38095)
(11.8012 0.477315 1.93991)
(9.34561 -0.0666925 0.520749)
(10.7604 -0.181165 3.63426)
(9.55909 0.411746 3.74378)
(10.8403 0.148955 1.7381)
(-0.137028 0.0882521 -1.22723)
(1.82175 -0.0863704 -0.436589)
(-1.05456 -0.400665 -0.0510831)
(11.7776 1.2017 3.00864)
(11.3501 0.0271378 0.0347952)
(10.6412 -0.206722 0.970521)
(5.57901 -0.263298 0.437016)
(10.6919 0.685398 0.933544)
(12.3999 0.492021 -2.89774)
(3.42976 0.0816101 0.492863)
(-1.19011 0.754811 -1.34532)
(-0.949823 -0.506665 -0.271133)
(0.100405 -0.335888 1.78669)
(-0.0750596 0.293912 -1.13329)
(5.51351 -0.384737 0.091238)
(-0.837789 -0.376487 0.187601)
(1.46083 0.301172 -0.731041)
(-1.19104 -0.801382 -0.349492)
(8.58162 0.715749 0.471483)
(11.8838 -0.024988 0.796095)
(4.88259 0.022648 -0.242751)
(4.32899 0.40537 0.242408)
(11.6351 0.402962 1.20746)
(7.24602 0.422093 0.574169)
(6.03364 0.395485 0.703967)
(0.219398 0.273022 0.110059)
(12.3597 0.323504 -0.479062)
(13.4169 0.400915 -0.323625)
(9.78411 0.510981 3.2445)
(7.51142 0.0885476 1.7473)
(7.88327 0.126856 2.019)
(12.6112 0.0869821 -5.79149)
(0.0311387 0.679782 0.123714)
(0.245565 -0.177778 -1.18776)
(8.05072 1.97921 -0.212965)
(-2.12691 -1.25198 -0.104134)
(13.4871 0.829508 -1.7497)
(12.379 0.250331 -0.0844031)
(0.947538 0.654363 -0.106591)
(13.4561 0.497927 -1.43683)
(10.9088 0.317575 1.81303)
(-1.74292 -2.03428 0.357682)
(12.4185 0.309204 0.134306)
(13.1254 0.536572 -0.655063)
(12.168 0.114472 0.825661)
(11.4713 0.130807 1.54739)
(4.21611 0.81223 0.0484873)
(12.4864 0.427271 -0.307091)
(12.8866 0.496633 -0.361352)
(6.60844 -1.11129 1.90981)
(12.2281 0.149064 0.524357)
(10.6657 0.490814 1.77565)
(12.0189 0.0558106 0.526966)
(9.58533 0.545841 1.85979)
(7.20316 0.912078 -2.92954)
(10.682 0.7674 1.56388)
(11.7223 -0.115725 0.762447)
(0.0346292 0.185688 0.926299)
(0.602833 0.671673 -4.11284)
(8.12652 0.72 -2.81618)
(1.40102 0.631122 -4.69276)
(4.89669 0.419375 -9.20822)
(12.9504 0.526439 -0.670247)
(12.2258 0.0354253 0.313353)
(12.9263 0.461723 0.112584)
(11.917 0.508911 -1.24269)
(13.4952 0.670817 -0.77786)
(4.23371 -0.295851 0.0122547)
(10.5905 -0.0433186 2.56725)
(7.38073 1.59448 4.28899)
(11.8875 0.428292 0.799983)
(10.9668 1.88944 3.79769)
(10.9034 1.11524 1.21622)
(8.33062 1.33508 4.18257)
(6.89715 -0.147243 2.3305)
(-1.71819 -0.398671 -1.47536)
(13.4749 0.672618 -0.933781)
(-0.165188 0.620192 -1.31624)
(13.1161 0.601961 -0.118262)
(13.6712 0.527558 -2.86496)
(11.7832 0.558395 -0.331055)
(12.7081 0.307894 -8.85487)
(9.22147 1.06053 8.80601)
(8.0831 1.38745 -1.44325)
(-2.15147 -2.53491 0.454626)
(11.9469 0.863318 0.023938)
(1.12567 0.781823 1.24178)
(-0.511828 -1.14065 0.414164)
(11.1784 0.485489 0.74693)
(-3.38346 -1.41712 -0.419923)
(-0.691593 0.374395 -1.64976)
(11.824 0.616074 0.0438387)
(-0.708711 -0.217855 0.241639)
(11.9265 0.765211 0.186879)
(11.1313 0.984022 0.322319)
(-0.145847 -1.48178 0.203087)
(10.4443 0.828425 1.88962)
(11.1153 -2.57729 -4.33543)
(-2.29577 0.574026 1.68371)
(11.2369 1.29906 0.224047)
(7.22404 0.834949 2.49776)
(0.335119 0.897433 -0.332613)
(-1.00874 0.195498 -0.708204)
(9.57748 -0.977036 -2.00472)
(10.8303 0.157184 4.09014)
(-0.816792 -1.2617 0.842576)
(-0.434183 2.4664 2.3089)
(-0.237688 -1.39092 0.496931)
(11.5086 0.30271 1.75524)
(-0.934786 -0.448708 -0.122047)
(11.0732 1.05143 0.554045)
(9.07391 0.954406 7.84285)
(-0.659696 -0.832107 0.304003)
(6.12946 1.0609 -0.256983)
(-0.825405 -0.439899 0.18262)
(-0.898456 -0.31053 -0.990442)
(0.506485 -0.509197 0.455936)
(0.420376 0.953809 -0.526496)
(1.63673 1.2329 2.93726)
(7.97174 0.720257 0.378684)
(0.095335 1.8639 0.200507)
(-1.19767 -0.466696 -0.774222)
(11.9438 0.289294 0.106391)
(7.19617 0.229261 -2.25846)
(11.5021 0.590991 0.43605)
(11.9873 0.341671 0.129102)
(10.7937 1.21671 -0.341306)
(10.0638 0.0774746 0.104194)
(-0.357449 -0.288587 0.194888)
(11.7357 -0.306052 0.449614)
(11.3811 0.138436 1.12594)
(3.34945 0.649617 -0.948426)
(0.703434 -0.249441 1.26197)
(9.34006 0.0143721 0.228986)
(11.9856 0.406037 0.113241)
(12.5898 0.483843 -2.76033)
(11.9175 0.529496 -3.01147)
(11.8364 0.230545 0.109498)
(9.07494 0.7695 1.7856)
(11.8269 0.932732 0.764938)
(10.5375 0.648338 0.334541)
(12.8195 0.0871083 -0.217138)
(11.5146 0.516184 -3.25884)
(12.4593 0.465757 -0.146802)
(10.8381 0.0903061 1.51211)
(11.5803 0.506298 -2.73872)
(2.39812 -2.06754 2.29668)
(11.8259 0.273127 0.111584)
(2.53269 0.23707 0.11916)
(11.1018 -0.473312 4.60955)
(7.26858 -0.166022 1.48276)
(-0.545304 -0.418654 -0.300692)
(11.2484 0.792851 -1.2175)
(11.2189 -0.149719 2.7257)
(11.4036 -0.274662 3.20134)
(11.1164 -0.408279 2.72979)
(9.78932 -0.262092 -2.51164)
(6.11016 0.997506 -1.69481)
(11.602 0.560139 -6.17625)
(6.58277 -0.100316 1.80942)
(12.5021 -0.15411 0.469904)
(10.3927 0.373674 -6.35408)
(11.2408 0.497515 -5.02108)
(11.3499 0.519491 -0.423724)
(11.589 0.58157 -3.7981)
(4.36022 0.068143 0.194337)
(12.5763 -0.196288 0.449447)
(11.7743 0.623198 -1.53939)
(11.7774 0.441352 -0.209091)
(8.64312 -0.460993 0.695592)
(9.35065 0.317935 -2.9858)
(8.70426 0.809099 0.728233)
(5.63532 -1.38961 2.99852)
(12.4452 0.512439 -1.57108)
(12.4391 0.458981 0.0643555)
(12.6924 0.309047 -0.297684)
(6.87388 0.674606 -0.947894)
(8.17085 -0.830653 1.95655)
(3.46817 0.727604 -3.20254)
(0.492475 1.64057 -2.79538)
(-0.483489 -0.508072 0.579962)
(1.78866 0.0140441 -3.46392)
(12.3987 0.967535 -1.26019)
(12.0677 0.569706 -3.15982)
(2.05321 1.22738 0.845291)
(4.17068 -0.564683 0.0152021)
(0.711522 0.232984 -0.83223)
(-0.0428792 -0.591838 0.416249)
(0.585912 1.15789 -0.483816)
(-0.82136 0.180369 -0.0436929)
(12.4129 1.57089 -6.92656)
(12.8289 0.508775 0.743724)
(12.9629 0.550829 -0.720377)
(-1.53654 -1.75265 0.182348)
(12.7187 0.518584 -0.746942)
(12.0774 0.428836 -5.19031)
(4.94695 1.13824 -0.175562)
(2.74015 0.492491 -2.01454)
(12.2361 -0.0387331 1.36534)
(12.4149 0.678875 -0.808004)
(13.8795 0.31565 -3.92948)
(4.83221 0.570596 -1.33409)
(12.9784 0.549338 -0.508115)
(-1.14591 -0.288602 -0.577654)
(12.8268 0.360448 0.261864)
(8.6709 0.655203 -3.42116)
(8.92757 1.02444 8.335)
(9.49223 0.615933 -5.99152)
(-0.366348 -0.36156 0.574542)
(5.03807 -0.195662 0.511964)
(9.25071 -0.0833397 2.2207)
(0.603197 -0.0894684 -1.24497)
(1.6196 0.151472 1.00393)
(6.86443 -0.467246 -0.550577)
(4.26177 0.651889 -0.528833)
(9.74459 0.167022 3.06112)
(-0.607845 -0.364379 0.00469805)
(3.32663 0.527923 -0.0690848)
(12.563 -0.135464 0.0879035)
(6.64359 0.289151 0.694629)
(-1.81072 0.3584 0.930639)
(-0.053236 0.0130688 -0.747676)
(8.10643 0.971741 0.20646)
(9.55858 -0.151455 -9.3928)
(13.4786 0.503793 -2.86267)
(12.5838 0.262052 0.100374)
(10.1016 -0.903666 -4.1119)
(0.718094 0.133157 -1.81404)
(0.0483973 0.913554 0.655276)
(0.44823 0.811114 -1.3875)
(4.65581 0.726075 -1.33939)
(-0.204909 -0.495127 0.870628)
(9.72212 0.870805 0.735293)
(-0.0859001 -0.759086 0.573806)
(9.37959 0.721393 0.781003)
(0.269744 -0.161628 -1.31129)
(10.2556 0.619717 3.70516)
(-1.37422 -0.650337 -1.56283)
(4.43619 0.986227 -2.84683)
(11.4614 0.38 1.1465)
(0.442159 0.39083 -3.06721)
(3.34114 0.0393881 0.5281)
(-1.04341 -0.407827 0.170832)
(-0.573439 -0.402449 0.427286)
(-0.800036 -0.412401 0.410054)
(1.4456 0.427123 -0.671835)
(-0.206277 1.02964 -1.17918)
(5.58308 0.36355 -0.195891)
(4.93942 0.962362 -2.71266)
(-0.464071 0.0275306 0.226481)
(5.72919 0.592703 -6.29284)
(-0.364792 -0.440092 0.190737)
(-0.690448 -0.847692 0.0206329)
(-0.412962 -0.328262 0.66103)
(-1.55808 -1.44752 0.43163)
(8.89245 0.674624 1.34208)
(11.8373 0.0568135 0.321044)
(-0.129912 -0.447416 0.289333)
(-0.344278 -0.382586 0.526828)
(-0.26718 -0.465845 0.273321)
(7.98858 0.826675 2.89207)
(11.2653 -0.286885 1.36577)
(7.3031 0.987282 2.70341)
(11.3393 -0.352475 2.34241)
(12.8389 0.359261 -3.674)
(13.1446 0.210858 -0.492719)
(13.1205 0.177632 -0.368275)
(12.3604 0.0469912 0.184713)
(5.73528 0.481779 2.55267)
(-0.843834 -0.304294 -0.194009)
(9.57225 0.195213 0.222547)
(9.35696 -0.0835765 1.2402)
(12.0554 0.0358371 0.25389)
(11.081 -0.255899 3.63697)
(10.8841 -0.0470437 0.495613)
(11.4542 -0.0135176 0.493868)
(-1.65059 0.199476 -0.83539)
(10.5643 0.607286 -1.18135)
(8.37604 -0.295343 2.00403)
(12.0458 0.38606 -0.875621)
(11.9391 0.385785 -0.953365)
(7.20871 0.499936 -1.21274)
(-1.10762 -0.438077 -0.0735604)
(4.11604 -1.68028 2.33882)
(3.34376 0.350668 -0.548252)
(11.3749 -0.56282 1.87552)
(2.75268 0.713913 -0.623278)
(12.4259 0.283527 -0.0660474)
(10.0972 -0.214499 4.43715)
(10.4841 0.495036 7.87204)
(10.9561 -0.208239 3.70801)
(10.8117 -0.0633605 7.20189)
(9.82645 0.196525 4.26684)
(-0.748637 -0.296038 -0.077025)
(-0.917349 -0.397048 0.0815525)
(-0.826012 -0.254747 0.184308)
(7.66511 0.807842 0.714716)
(-0.525018 -0.427293 0.643281)
(10.8782 0.578005 0.918802)
(-0.643437 -0.375802 0.483004)
(-0.655657 -0.249523 0.168371)
(-1.95208 -0.660347 -0.591045)
(1.45862 -0.404197 0.62069)
(-0.721569 -0.26186 -0.0927775)
(0.612291 -0.678797 1.0403)
(6.92623 0.280416 1.85552)
(8.05859 0.125888 1.87643)
(12.4368 0.11105 0.64277)
(5.36 -0.683161 2.13323)
(8.89424 0.155971 2.74555)
(12.5112 0.545196 0.713327)
(-0.677624 0.256305 -1.94156)
(2.1449 -0.0646306 0.672337)
(13.0319 0.670256 -2.22641)
(13.4848 0.523675 -1.81577)
(0.0858537 -0.518624 -0.0662413)
(13.453 0.503104 -2.31015)
(13.0749 -0.427804 -7.28127)
(5.68526 0.289697 -1.48022)
(10.8917 -0.259018 0.827791)
(8.68003 1.30299 -1.86196)
(4.06386 -0.000949498 -0.984151)
(-0.133376 -0.471319 0.489655)
(-0.391658 -0.369652 0.153088)
(-0.207487 -1.09137 0.365674)
(-0.961245 -1.03398 0.363268)
(-0.223959 -0.468125 0.219306)
(0.00800964 -1.0764 0.487181)
(2.26398 0.210903 0.32015)
(12.6336 0.607819 -2.21876)
(12.9959 0.618193 -1.7959)
(13.2489 0.584724 -2.42419)
(11.4225 0.613604 -2.25088)
(3.52822 0.97009 0.705915)
(3.06682 0.282522 0.904194)
(2.43599 0.475307 1.41133)
(1.90764 0.771765 -2.77181)
(8.59526 0.572509 -4.44795)
(8.76416 0.91069 -3.73571)
(6.6616 0.770961 -3.99224)
(5.81653 0.665121 -4.04487)
(7.06445 0.815263 -4.6487)
(12.7535 0.351362 -0.173978)
(12.4971 0.321971 -0.386909)
(12.5417 0.284556 -0.12238)
(11.1406 0.497541 -1.40603)
(7.1943 0.418421 -4.23853)
(12.3286 0.257378 -0.127981)
(12.7351 0.354845 -0.119813)
(12.2927 0.410979 -0.124133)
(13.4048 0.564385 -1.29624)
(12.5083 0.414268 -0.321328)
(11.767 0.458307 -0.323221)
(12.2862 0.378749 -0.167158)
(11.9926 0.465987 -0.169938)
(5.13363 1.0895 0.831726)
(2.25305 -0.170263 0.305531)
(3.86334 0.714079 0.240586)
(12.0047 0.930849 0.0399804)
(4.72659 0.976134 1.202)
(11.9324 -0.0957079 0.0757559)
(9.59198 0.0657596 5.48769)
(12.9031 0.59627 0.299436)
(9.64831 -0.072017 1.969)
(10.8562 0.811465 -3.04403)
(11.8356 0.783312 0.0486176)
(5.35498 0.612032 2.2361)
(10.1032 0.787968 -3.40178)
(-3.20296 -2.16344 0.948324)
(11.0029 0.206822 0.195846)
(-0.563093 -1.03072 0.987982)
(8.14481 0.803723 4.75592)
(-1.66562 -0.842942 -0.501134)
(12.6267 0.28848 -0.164041)
(7.76261 0.785465 -3.25719)
(7.91571 0.847276 -3.45073)
(-0.338362 -0.885014 1.33557)
(13.3377 0.474409 -2.09603)
(-0.622315 -1.35347 0.134653)
(5.63072 0.658257 -5.95403)
(2.44648 0.215154 -0.500192)
(3.07446 0.52018 -0.447174)
(10.298 -0.125665 1.21217)
(-0.302581 0.537999 -1.85815)
(-0.44153 1.29455 -1.63822)
(-1.0696 -0.0278802 -0.645044)
(9.35173 1.27757 -1.46898)
(12.5984 0.374235 -0.558862)
(12.457 0.398486 -0.837636)
(9.13194 -0.606709 1.74432)
(13.1576 0.591098 -0.265197)
(11.2714 -0.171068 3.06452)
(11.1306 -0.197642 3.24472)
(11.247 -0.461955 3.16072)
(8.59222 -0.616923 3.09038)
(10.0201 0.345767 1.45552)
(11.5359 -0.467639 2.10414)
(12.7862 0.449448 -0.320382)
(6.04403 0.909193 -4.30374)
(6.46822 1.12516 -5.46954)
(10.9472 0.252707 1.37912)
(7.47565 0.881941 -2.62968)
(7.90599 0.941013 -4.9656)
(13.3948 0.544126 -3.10705)
(-1.62293 0.475214 1.52113)
(3.23595 0.850492 -1.76876)
(7.06099 -0.159275 -2.23632)
(9.82734 0.521048 -1.34217)
(9.66039 0.520669 -1.34668)
(11.5436 0.369368 -4.37533)
(10.2884 0.566462 -2.01982)
(11.2817 0.345896 -0.754358)
(7.46294 0.735729 -2.00175)
(10.1446 0.73585 -4.95829)
(5.69964 0.988924 -1.89083)
(13.8784 0.593072 -3.52824)
(11.7147 0.488534 -2.64568)
(7.62265 0.990965 -5.44393)
(13.9531 0.836155 -5.38304)
(10.5581 0.8257 -5.79106)
(12.1423 0.260826 -0.141905)
(12.2698 0.392431 -1.0424)
(12.677 0.532216 -0.680901)
(12.6914 0.607501 -1.21537)
(12.9401 0.536868 -0.677987)
(12.9853 0.529468 -1.08979)
(12.5242 0.48593 -1.00342)
(10.3807 0.579472 -3.43302)
(7.97371 1.10715 -1.87929)
(3.45578 2.19067 0.339037)
(8.08933 0.596442 0.511311)
(-0.546405 -0.472689 1.10507)
(11.8331 0.92063 0.300229)
(6.32316 0.657171 -0.196458)
(7.44647 0.758536 0.834748)
(13.0902 0.5402 -0.24519)
(10.1514 0.62211 1.76117)
(12.1456 0.277038 0.998985)
(1.77535 1.02818 -3.33269)
(11.9144 0.909288 -2.15501)
(9.91284 0.697892 0.258454)
(12.8255 0.426584 -0.151307)
(7.50594 -0.161614 1.79898)
(10.7107 -0.0872573 0.481984)
(4.88249 -1.35024 1.33533)
(13.8892 0.760166 -3.5936)
(12.2063 0.543835 -3.50234)
(13.9419 0.600181 -2.74165)
(12.7195 0.363409 -2.77465)
(11.9827 0.727395 -2.06407)
(13.5471 0.623746 -1.79865)
(11.9389 0.779655 -3.70446)
(11.5768 0.733836 -3.57973)
(13.6496 0.787793 -3.21526)
(10.8859 0.605576 -5.29694)
(6.77629 0.667516 0.509936)
(12.1152 0.811311 -5.04657)
(-2.26846 -2.86989 1.2919)
(11.2573 0.477668 -3.55699)
(12.328 0.376233 -0.653031)
(9.65873 0.854124 -2.4837)
(13.6667 0.49139 -2.67133)
(11.1148 0.652782 -5.36302)
(10.2285 0.852606 -2.11822)
(9.56731 1.43568 3.02269)
(0.38971 -0.00940517 0.244684)
(-1.31654 1.1613 1.97043)
(11.8701 0.152964 0.426857)
(8.25569 0.617293 2.94727)
(8.04401 1.38421 4.7585)
(5.52791 0.199376 0.0502953)
(11.9527 0.828834 -3.65336)
(11.202 -0.235493 1.09845)
(12.9556 1.11951 -4.03455)
(11.0636 0.642591 -0.40808)
(11.6276 0.358839 -0.846037)
(11.5276 0.803669 -3.90166)
(11.098 0.879748 -4.13073)
(11.0977 0.908436 -8.34441)
(12.0042 0.893196 -4.02143)
(12.7601 0.0734774 0.270951)
(8.77126 0.477429 -11.3995)
(3.09028 0.442632 -0.16234)
(12.3009 0.978417 -0.515212)
(4.65986 0.235148 0.0860494)
(4.75948 0.34739 0.113173)
(13.3145 0.640175 -1.74973)
(12.642 0.29542 0.451574)
(12.3713 0.229498 0.439402)
(12.435 1.08209 -1.43888)
(8.11624 0.7157 -1.24201)
(12.5932 0.397624 -0.0101009)
(12.4501 0.37401 -0.00233924)
(5.83551 0.723519 -0.287525)
(6.68382 0.736972 -1.12519)
(12.0571 0.799546 -3.86901)
(12.3489 0.653573 -0.932221)
(12.3082 0.550675 -1.58143)
(4.16864 1.19059 -2.69251)
(4.32617 0.404552 1.78216)
(-1.80628 -0.20456 1.30533)
(12.2654 0.183326 0.686883)
(13.7901 0.60714 -1.32817)
(12.5437 0.240701 0.520544)
(11.1856 0.96512 -2.81809)
(5.9111 0.935098 -4.43571)
(11.8165 0.723556 -1.75797)
(11.9363 0.476137 -0.342557)
(13.5674 0.779242 -2.82331)
(12.7955 0.456306 -0.146088)
(11.5852 -0.272513 1.62617)
(5.98848 0.134145 0.928635)
(8.3633 -1.80601 -1.25242)
(3.26511 -0.2241 3.61361)
(4.04001 0.746674 0.514064)
(-0.231078 -1.59173 0.365122)
(6.91723 0.463851 -1.10384)
(13.5062 0.848868 -1.96555)
(2.22151 0.821832 -7.55547)
(12.8423 0.532752 -0.272806)
(10.5337 1.46863 -5.23797)
(1.43039 1.54137 -3.42032)
(4.70664 0.525832 -0.296255)
(4.6653 0.603003 -2.21131)
(12.5269 0.841433 -2.8464)
(13.4688 0.78014 -2.7186)
(11.6522 0.81806 -2.53938)
(12.2678 0.299437 1.09529)
(1.15501 0.884529 -2.90403)
(12.5889 0.838622 -3.7915)
(2.32674 0.912952 -4.01015)
(-0.0576448 -1.5302 0.510884)
(1.8803 3.04033 -1.84987)
(4.72317 1.74446 0.385644)
(1.453 1.33322 -9.12944)
(13.0369 0.381567 -0.0240614)
(12.2895 0.408478 0.0291506)
(11.7894 1.00964 -2.87851)
(7.31685 -0.339707 2.24126)
(1.17835 -0.876269 1.87786)
(7.07925 0.668364 0.863419)
(5.60822 0.709391 -2.96501)
(12.1745 0.349323 0.00619106)
(11.1111 0.664454 -2.07671)
(12.3991 0.556668 0.520552)
(12.0917 0.468336 -0.854832)
(11.5946 0.598778 -2.41549)
(0.0659954 1.68438 -0.268491)
(13.2355 0.569936 -1.7968)
(-0.602333 -0.90359 0.0652912)
(2.55598 0.357651 -7.31445)
(7.27586 0.81971 0.267371)
(11.1622 0.516819 -2.40966)
(8.17845 0.431819 -4.46785)
(11.3085 0.593786 -3.12167)
(11.6904 0.469337 -5.28559)
(11.4227 1.00392 -3.0149)
(2.87335 0.547115 -8.1104)
(13.4394 0.588981 -0.558638)
(13.8665 0.869636 -4.49832)
(2.64588 0.700862 0.399442)
(11.2718 0.74521 -3.63007)
(6.85049 0.623528 0.345458)
(7.23365 1.04408 0.116872)
(9.74451 0.599633 -1.90313)
(10.8563 0.781315 -2.67802)
(10.5517 1.24896 1.73451)
(4.24396 0.679962 2.09417)
(2.6662 0.273767 -0.0738503)
(3.24567 0.596601 -0.592062)
(-0.393487 -1.08519 0.553988)
(-0.719808 -1.25741 0.946846)
(11.2165 0.312858 3.0335)
(-0.907676 -1.38807 0.246523)
(12.0369 1.09441 1.07719)
(-2.00548 -1.06215 0.0346212)
(5.87455 1.24521 0.914368)
(4.67793 1.23261 -8.41133)
(11.1662 0.616713 -3.03371)
(11.2649 0.840419 -2.53366)
(5.4885 -0.923011 2.29123)
(11.7648 0.0816024 1.0877)
(-2.14665 -1.71838 -0.74223)
(7.9459 1.47214 -12.5413)
(-0.168785 -0.335592 1.3831)
(12.0029 0.523904 -1.76233)
(11.2921 0.397654 -3.62251)
(11.7675 0.512858 -3.98381)
(12.1402 0.553132 -2.63255)
(10.8054 0.521252 -4.03223)
(4.19711 1.0965 -5.33391)
(13.4828 0.393864 -0.950139)
(11.3396 0.634312 -7.00987)
(8.42681 0.582423 -3.50369)
(5.90603 0.519086 -2.1438)
(13.3722 0.49101 -0.888864)
(-0.565206 -0.188738 0.59552)
(10.7718 -0.196669 0.973694)
(1.43261 -1.0959 -0.24039)
(0.58221 0.724478 -4.81535)
(3.64871 0.391527 -0.506401)
(-0.0611595 1.17383 -1.72166)
(-2.82569 -0.317332 0.429339)
(11.8844 0.128526 1.32683)
(13.9028 0.77986 -3.95933)
(5.20674 1.04402 0.369036)
(6.26513 0.367797 -0.109681)
(-0.867448 -0.41155 0.138485)
(-0.351089 -1.36523 1.10817)
(12.1139 0.494225 -1.36821)
(8.83399 -0.217437 0.56907)
(5.12687 0.537965 0.425899)
(10.5002 0.702508 -2.36665)
(11.0732 0.446361 -0.658747)
(11.2137 0.611555 -1.04419)
(13.5525 0.452904 -2.60981)
(12.8243 0.382059 0.042256)
(9.87505 0.453892 -2.81665)
(3.60257 0.485528 0.328029)
(12.4655 0.525885 0.350365)
(0.0711589 -0.777624 0.381003)
(10.1702 3.48112 -3.44236)
(2.16369 0.723923 -0.810389)
(2.02287 0.45098 -1.60115)
(-0.0387127 -1.6909 0.18443)
(12.0331 0.103633 0.386659)
(1.70304 -0.402059 0.594625)
(1.37688 0.0265791 -0.315443)
(10.1153 -0.356577 1.63509)
(11.6221 0.60345 2.26517)
(-0.32357 -0.321798 1.05024)
(-0.343878 -0.171832 -0.764586)
(-0.892859 -0.294404 -0.683976)
(-0.569659 -0.670007 -0.152129)
(12.3358 0.603534 -1.42579)
(3.50508 0.0313426 -0.693117)
(9.16076 -0.575055 1.36507)
(9.63498 0.357998 0.817268)
(-0.0786027 0.913916 -1.79092)
(11.7251 0.234007 0.0637102)
(11.9448 0.124045 0.238235)
(-1.64302 -0.828281 -0.787919)
(13.0542 0.0811459 -0.372963)
(-1.08295 0.501649 -1.61454)
(11.8616 0.260144 1.66842)
(3.5322 0.412033 -0.313826)
(-0.439065 -0.429333 0.894665)
(5.67367 -0.151021 1.8486)
(9.54221 1.99858 4.19608)
(2.88566 -0.27307 -0.0541902)