/*--------------------------------*- C++ -*----------------------------------*\
| =========                 |                                                 |
| \\      /  F ield         | OpenFOAM: The Open Source CFD Toolbox           |
|  \\    /   O peration     | Version:  2506                                  |
|   \\  /    A nd           | Website:  www.openfoam.com                      |
|    \\/     M anipulation  |                                                 |
\*---------------------------------------------------------------------------*/
FoamFile
{
    version     2.0;
    format      ascii;
    arch        "LSB;label=32;scalar=64";
    class       volScalarField;
    location    "0.0440925";
    object      k;
}
// * * * * * * * * * * * * * * * * * * * * * * * * * * * * * * * * * * * * * //

dimensions      [0 2 -2 0 0 0 0];

internalField   nonuniform List<scalar> 
3989
(
0.366895
0.34332
0.333628
0.334859
0.341431
0.337029
0.35628
0.331751
0.363404
0.330666
0.378418
0.351448
0.370005
0.364469
0.344589
0.344294
0.368715
0.334966
0.349588
0.337961
0.372332
0.34056
0.33564
0.330212
0.340449
0.337427
0.356082
0.362722
0.348
0.364896
0.355102
0.347569
0.350116
0.366229
0.373041
0.362183
0.360371
0.334882
0.354113
0.341329
0.331708
0.358052
0.365309
0.360557
0.358586
0.36198
0.353036
0.363224
0.369379
0.339424
0.32998
0.362675
0.358014
0.3657
0.332426
0.357686
0.353436
0.330313
0.370169
0.341881
0.333983
0.381383
0.574983
0.801798
0.347922
0.371308
0.335606
0.33735
0.330016
0.330094
0.384
0.340202
0.335793
0.335394
0.334664
0.336421
0.337487
0.339756
0.336952
0.338112
0.33693
0.360558
0.342818
0.336945
0.343157
0.385672
0.341347
0.364467
0.33222
0.357754
0.339888
0.355406
0.364535
0.334835
0.35029
0.342947
0.336822
0.334763
0.339687
0.328004
0.356481
0.355481
0.363132
0.377805
0.333358
0.369614
0.328947
0.349105
0.357709
0.357639
0.32739
0.346325
0.355196
0.357655
0.351327
0.354616
0.349199
0.330465
0.363327
0.375412
0.350259
0.365741
0.335578
0.362436
0.347596
0.338725
0.34819
0.334672
0.370377
0.335677
0.346429
0.378981
0.356666
0.3816
0.37559
0.379727
0.352081
0.35278
0.360655
0.345003
0.355428
0.34471
0.319656
0.368562
0.363695
0.374878
0.343371
0.324466
0.339196
0.331346
0.329709
0.359455
0.353632
0.363235
0.39443
0.379293
0.332027
0.328575
0.344349
0.376811
0.36686
0.332093
0.360818
0.373579
0.372941
0.352858
0.331935
0.363518
0.344333
0.322164
0.327252
0.357898
0.381746
0.330818
0.345605
0.329577
0.353139
0.331618
0.372349
0.333894
0.363173
0.335418
0.358349
0.341513
0.378555
0.337279
0.341398
0.343157
0.340525
0.36694
0.328811
0.340985
0.349722
0.395151
0.33363
0.410697
0.82736
0.353174
0.336115
0.337643
0.37624
0.363543
0.388179
0.359537
0.379492
0.359206
0.353246
0.360681
0.388617
0.394746
0.3537
0.417331
0.417014
0.330932
0.332845
0.796117
0.41207
0.357124
0.363672
0.351092
0.331845
0.329702
0.359683
0.341304
0.376583
0.333756
0.334549
0.341577
0.358186
0.335073
0.371577
0.380931
0.345939
0.346729
0.362927
0.400117
0.380596
0.350718
0.348693
0.3299
0.349396
0.361562
0.362936
0.387754
0.3792
0.349374
0.37791
0.360729
0.357315
0.350829
0.37796
0.341376
0.365146
0.360676
0.37274
0.353885
0.372214
0.35828
0.332988
0.334987
0.325078
0.333702
0.340566
0.328231
0.342912
0.357068
0.33621
0.397808
0.377587
0.369365
0.373252
0.373559
0.37469
0.331297
0.364365
0.332921
0.383625
0.373029
0.327566
0.36499
0.332745
0.334438
0.350564
0.334118
0.331567
0.330628
0.335706
0.381498
0.376542
0.367996
0.374565
0.373447
0.376967
0.325867
0.340827
0.349228
0.335931
0.344309
0.477328
0.420468
0.324941
0.391472
0.379804
0.371145
0.38257
0.398932
0.333984
0.354112
0.354157
0.364446
0.332554
0.333885
0.420459
0.461022
0.360028
0.374495
0.340805
0.322796
0.328072
0.327887
0.341778
0.337054
0.33084
0.333645
0.344052
0.364622
0.355201
0.364841
0.352931
0.330582
0.334315
0.338686
0.368296
0.333055
0.343046
0.335192
0.326785
0.335591
0.374256
0.362352
0.419008
0.342325
0.338759
0.333173
0.337587
0.354999
0.573936
0.369859
0.329572
0.330114
0.3378
0.32716
0.327137
0.330502
0.328825
0.357574
0.343939
0.333689
0.890016
0.337967
0.326796
0.358459
0.340276
0.614268
0.421242
0.348367
0.339407
0.340818
0.332665
0.345214
0.339451
0.329104
0.384098
0.348848
0.327267
0.33696
0.328075
0.337437
0.327775
0.331798
0.375516
0.360554
0.351919
0.368074
0.360311
0.348516
0.336139
0.392565
0.340863
0.376319
0.338985
0.362837
0.360624
0.372798
0.350719
0.330256
0.359611
0.377087
0.362055
0.322953
0.333889
0.333745
0.363223
0.375917
0.357521
0.329896
0.33077
0.477632
0.330475
0.370314
0.32843
0.401109
0.35282
0.885901
0.345313
0.44843
0.340985
0.344904
0.337995
0.328119
0.839787
0.362859
0.36642
0.807667
0.329267
0.336777
0.337406
0.490083
0.353297
0.344398
0.324347
0.331601
0.331545
0.329787
0.561896
0.338507
0.364344
0.373716
0.341361
0.33366
0.334324
0.359395
0.350552
0.374512
0.358331
0.336967
0.355076
0.33575
0.381695
0.36152
0.337106
0.333541
0.334585
0.329134
0.384166
0.327609
0.379003
0.363307
0.330538
0.333842
0.323686
0.357757
0.381927
0.363567
0.380907
0.362427
0.367438
0.383075
0.391952
0.355306
0.366159
0.383199
0.360267
0.379632
0.33318
0.362645
0.350246
0.397493
0.389437
0.369548
0.381066
0.342379
0.355806
0.341003
0.331306
0.369903
0.359881
0.381902
0.339077
0.328778
0.376388
0.332171
0.357527
0.331997
0.342923
0.335904
0.324955
0.330239
0.338783
0.343664
0.334329
0.336288
0.326757
0.325835
0.346272
0.379858
0.357702
0.337209
0.345781
0.364558
0.330349
0.388263
0.384944
0.330798
0.339603
0.373889
0.347376
0.326913
0.363156
0.327339
0.327918
0.330518
0.359873
0.347345
0.370106
0.32984
0.338556
0.350364
0.327756
0.331684
0.349709
0.333594
0.367895
0.338774
0.330776
0.339711
0.348826
0.334282
0.352413
0.338033
0.351691
0.339665
0.363307
1.07142
0.952128
0.33444
0.345099
0.340461
0.342437
0.334197
0.33302
0.337519
0.355725
0.346939
0.328926
0.323752
0.342018
0.323353
0.335655
0.329791
0.355216
0.384978
0.327364
0.347524
0.329788
0.332156
0.34573
0.349863
0.322293
0.327756
0.328526
0.338377
0.355745
0.444494
0.333511
0.331957
0.330339
0.326467
0.336961
0.364494
0.330065
0.33013
0.330453
0.379764
0.353359
0.333709
0.331941
0.329118
0.338016
0.336168
0.329555
0.337834
0.333703
0.738243
0.793514
0.362588
0.369396
0.357323
0.357611
0.358847
0.337191
0.341115
0.335088
0.340737
0.331533
0.358879
0.329877
0.338722
0.323369
0.369381
0.354659
0.364168
0.367033
0.332513
0.337214
0.329384
0.346058
0.355877
0.332362
0.366217
0.34956
0.329161
0.329438
0.342378
0.331501
0.339184
0.333737
0.334046
0.371571
0.376461
0.344273
0.352528
0.356042
0.339553
0.369112
0.354644
0.368367
0.341078
0.358798
0.36982
0.340547
0.371199
0.326352
0.340427
0.342781
0.333692
0.358344
0.362105
0.36458
0.337358
0.341395
0.330346
0.336658
0.3352
0.358923
0.357935
0.368654
0.336019
0.346377
0.35054
0.364167
0.356012
0.326004
0.343672
0.341068
0.339973
0.348041
0.341449
0.373378
0.331966
0.336826
0.341265
0.360455
0.333201
0.331035
0.331559
0.354107
0.349538
0.374082
0.35604
0.360054
0.340617
0.343142
0.33723
0.340072
0.338725
0.336715
0.360606
0.345605
0.352498
0.345084
0.335781
0.343064
0.362593
0.35303
0.32933
0.359275
0.35391
0.330937
0.334732
0.373293
0.334248
0.372583
0.330289
0.355089
0.341289
0.331748
0.352115
0.330636
0.352494
0.363019
0.36305
0.336005
0.337241
0.349414
0.386459
0.335123
0.332058
0.392703
0.330732
0.356733
0.326624
0.356455
0.350445
0.347611
0.360363
0.327271
0.345965
0.343394
0.340156
0.367394
0.334129
0.333774
0.333999
0.337679
0.338946
0.33859
0.331136
0.337664
0.3294
0.336878
0.331899
0.371804
0.352672
0.54628
0.33569
0.331286
0.519179
0.333014
0.362868
0.354166
0.329266
0.326459
0.35344
0.584541
0.797361
0.889334
0.358629
0.332892
0.329812
0.334529
0.334659
0.333318
0.363201
0.359038
0.36962
0.327886
0.344074
0.367344
0.363349
0.348038
0.35101
0.361364
0.341104
0.33477
0.372793
0.347956
0.335293
0.371492
0.371064
0.33101
0.339697
0.353687
0.330677
0.351852
0.336925
0.326467
0.340528
0.329347
0.355096
0.330669
0.328802
0.35419
0.357768
0.332262
0.332106
0.336781
0.337771
0.365127
0.33649
0.365732
0.372173
0.3636
0.356346
0.331507
0.332521
0.334901
0.332707
0.320651
0.322051
0.32395
0.324146
0.336383
0.355199
0.356436
0.388901
0.40935
0.39932
0.402866
0.34467
0.344082
0.357103
0.343832
0.338752
0.36877
0.392038
0.327854
0.345736
0.32886
0.357562
0.329409
0.350369
0.329731
0.329064
0.338298
0.334576
0.325775
0.329163
0.339436
0.333553
0.334102
0.33841
0.465223
0.401022
0.33791
0.332863
0.33089
0.374196
0.358142
0.328755
0.334683
0.338198
0.369854
0.341038
0.326916
0.329532
0.339702
0.340079
0.325728
0.357048
0.321574
0.32652
0.340278
0.338085
0.329146
0.334728
0.334982
0.626607
0.450229
0.329494
0.338338
0.446525
0.34436
0.399795
0.449528
0.335121
0.359459
0.343986
0.369016
0.362095
0.332525
0.679745
0.329193
0.332215
0.488867
0.362692
0.329951
0.335758
0.342177
0.341807
0.345158
0.331656
0.329456
0.32987
0.338242
0.333006
0.337387
0.37674
0.324931
0.325777
0.45708
0.330543
0.414528
0.331166
0.334061
0.404696
0.796402
0.543496
0.735347
0.859257
0.552482
0.349758
0.351499
0.341452
1.02843
0.817432
0.341506
0.393356
0.368769
0.810629
0.394484
0.428945
0.332467
0.349639
0.347717
0.337647
0.331347
0.340585
0.343014
0.342681
0.449367
0.341147
0.344606
0.338082
0.333982
0.322451
0.344217
0.358105
0.337088
0.36806
0.776143
0.824612
0.361002
0.378558
0.346771
0.465022
0.331948
0.330915
0.36624
0.34222
0.342903
0.324092
0.35017
0.370013
0.400103
0.347199
0.327897
0.328926
0.335459
0.349737
0.336782
0.329928
0.330977
0.342466
0.341592
0.333925
0.345092
0.336479
0.36931
0.36892
0.331814
0.321943
0.330725
0.360236
0.368463
0.412752
0.343809
0.368971
0.369078
0.324477
0.325219
0.339719
0.363664
0.325193
0.323913
0.358363
0.336964
0.333949
0.370054
0.327473
0.333834
0.331335
0.332539
0.336529
0.327736
0.374045
0.327127
0.333501
0.369122
0.343959
0.333895
0.33076
0.338416
0.329711
0.374786
0.341089
0.3401
0.34076
0.333982
0.325845
0.32987
0.336941
0.329564
0.361787
0.342233
0.351072
0.347243
0.329563
0.358015
0.328884
0.327849
0.323857
0.329922
0.329163
0.329122
0.328922
0.33238
0.343202
0.336625
0.339146
0.340568
0.335691
0.33732
0.327334
0.357904
0.362166
0.333767
0.332198
0.321985
0.329028
0.334517
0.338255
0.341358
0.338049
0.339911
0.34929
0.352831
0.358287
0.361057
0.329851
0.364631
0.357406
0.33145
0.333842
0.370557
0.328207
0.325326
0.327254
0.328877
0.327736
0.383667
0.372192
0.331364
0.333225
0.339636
0.330484
0.336523
0.341183
0.330051
0.329372
0.340962
0.33981
0.342852
0.32703
0.326076
0.334262
0.332215
0.331414
0.370169
0.366804
0.461448
0.443315
0.365224
0.326438
0.330007
0.330703
0.334187
0.331937
0.336468
0.344645
0.335499
0.344363
0.330807
0.334169
0.331544
0.330574
0.338786
0.340595
0.343098
0.332753
0.330465
0.33375
0.33144
0.875665
0.332141
0.343958
0.356991
0.331113
0.329548
0.344653
0.327703
0.386442
0.343533
0.336975
0.329632
0.334763
0.332739
0.329111
0.369397
0.325674
0.333504
0.355616
0.476678
0.381921
0.33604
0.343986
0.334514
0.443529
0.483862
0.481794
0.39079
0.366046
0.405779
0.333528
0.334226
0.340157
0.34643
0.333938
0.362833
0.36977
0.328658
0.357245
0.330913
0.384639
0.347134
0.349551
0.329968
0.332546
0.335071
0.350134
0.366993
0.349158
0.33924
0.334506
0.331395
0.337509
0.330673
0.338254
0.367597
0.337616
0.330051
0.336418
0.334493
0.331041
0.351347
0.340525
0.343342
0.339235
0.404925
0.325732
0.340776
0.343097
0.332815
0.333959
0.334156
0.340144
0.341491
0.33772
0.338491
0.321833
0.333064
0.332987
0.338169
0.329903
0.328966
0.323903
0.358255
0.343796
0.337668
0.337266
0.356296
0.342022
0.346088
0.35479
0.372084
0.327245
0.338883
0.352863
0.341988
0.336497
0.368305
0.358587
0.333149
0.339932
0.339338
0.367025
0.328368
0.342161
0.363175
0.368377
0.358381
0.354252
0.344984
0.346028
0.334638
0.356571
0.362082
0.335175
0.33758
0.331753
0.336453
0.337136
0.33678
0.336823
0.336531
0.338201
0.335792
0.338584
0.338936
0.357183
0.337124
0.337797
0.330636
0.345058
0.333207
0.342118
0.35046
0.328463
0.328691
0.327749
0.3278
0.328278
0.360549
0.358778
0.339545
0.38788
0.364355
0.341622
0.326876
0.371161
0.374121
0.356622
0.368258
0.389726
0.355795
0.364097
0.339643
0.368267
0.387424
0.36031
0.359979
0.348243
0.372961
0.346491
0.382613
0.357243
0.36406
0.328859
0.350729
0.35425
0.34289
0.342715
0.355956
0.351665
0.388426
0.400532
0.368915
0.329768
0.33108
0.338793
0.352175
0.369349
0.360472
0.338587
0.373149
0.329422
0.346256
0.348261
0.353771
0.330421
0.370169
0.337085
0.368417
0.331541
0.362776
0.369114
0.359319
0.357757
0.360199
0.339009
0.343331
0.32941
0.37312
0.331728
0.334714
0.36163
0.341494
0.359137
0.334195
0.330263
0.353681
0.327678
0.329433
0.343649
0.338964
0.339803
0.339355
0.34018
0.34137
0.33166
0.330369
0.365344
0.34576
0.333664
0.334478
0.362297
0.366418
0.370449
0.367079
0.348679
0.358671
0.33992
0.387146
0.376414
0.35058
0.339957
0.329541
0.335036
0.331931
0.370424
0.347319
0.327607
0.390794
0.342393
0.355467
0.662939
0.325053
0.486203
0.825691
0.367004
0.323779
0.356639
0.333313
0.336284
0.337381
0.337055
0.336217
0.330397
0.34855
0.366512
0.371043
0.336372
0.342532
0.343777
0.348683
0.334911
0.347265
0.368846
0.350804
0.362724
0.369553
0.334518
0.352494
0.334846
0.330708
0.330515
0.371494
0.329134
0.370109
0.364312
0.346888
0.360634
0.339953
0.338689
0.337153
0.37064
0.358987
0.343988
0.361681
0.334384
0.34016
0.341865
0.37075
0.338385
0.345358
0.337362
0.336766
0.336699
0.33109
0.340256
0.368604
0.341101
0.368283
0.364435
0.334687
0.331581
0.337562
0.33049
0.327847
0.330362
0.340728
0.324072
0.332332
0.329145
0.338911
0.348102
0.352731
0.381093
0.332381
0.336602
0.350298
0.332413
0.336605
0.334396
0.33448
0.33669
0.360124
0.333974
0.337399
0.323031
0.338915
0.336666
0.877221
0.790784
0.87008
0.767972
0.899701
0.541093
0.333221
0.344522
0.339007
0.347311
0.340096
0.363691
0.335348
0.340873
0.345428
0.384159
0.329194
0.458882
0.381972
0.368046
0.331499
0.337021
0.557348
0.334111
0.343341
0.360545
0.326774
0.331952
0.346005
0.349227
0.334644
0.361865
0.339692
0.324791
0.329319
0.340335
0.328623
0.334823
0.349964
0.364727
0.334683
0.502833
0.327801
0.387138
0.351401
0.34357
0.359911
0.332359
0.368273
0.379662
0.329477
0.33001
0.449648
0.338559
0.637133
0.350951
0.333152
0.344799
0.340497
0.368159
0.362272
0.340125
0.333085
0.335419
0.336779
0.366378
0.33863
0.340069
0.330859
0.369065
0.329571
0.336587
0.36624
0.36231
0.347381
0.331146
0.327002
0.539789
0.341138
0.748671
0.733697
0.338691
0.335466
0.35589
0.346428
0.338972
0.327105
0.340559
0.329015
0.327703
0.379223
0.364031
0.330391
0.329425
0.356006
0.322436
0.347892
0.362489
0.381884
0.330878
0.329017
0.341363
0.368221
0.368236
0.339833
0.354573
0.339114
0.364531
0.33021
0.34433
0.326294
0.366583
0.331787
0.349449
0.497221
0.376123
0.333283
0.385336
0.345823
0.336563
0.328832
0.331216
0.350094
0.354933
0.334862
0.330292
0.364165
0.353931
0.334625
0.330577
0.330253
0.395954
0.324878
0.69801
0.929935
0.346214
0.331584
0.987941
0.468837
0.334957
0.33386
0.331754
0.341713
0.341365
0.473249
0.348177
0.366529
0.333397
0.359004
0.329861
0.353861
0.331157
0.344012
0.340589
0.3776
0.336349
0.360565
0.342313
0.343114
0.33833
0.342128
0.347236
0.424221
0.348883
0.466959
0.368201
0.514347
0.583912
0.367675
0.373777
0.352383
0.332461
0.377798
0.354613
0.371265
0.386897
0.40197
0.359329
0.327984
0.329737
0.426985
0.346529
0.354128
0.351118
0.36962
0.357297
0.364769
0.615221
0.350444
0.357437
0.359542
0.339203
0.333779
0.333514
0.342395
0.335404
0.337173
0.367807
0.348363
0.826505
0.340101
0.351304
0.335426
0.330236
0.34059
0.334901
0.36936
0.335065
0.329416
0.334966
0.335165
0.325867
0.339599
0.352737
0.340583
0.366248
0.324483
0.334118
0.353652
0.343996
0.321305
0.324713
0.323314
0.324257
0.361166
0.362981
0.331548
0.325467
0.359951
0.335349
0.347919
0.353774
0.341217
0.332519
0.366998
0.375668
0.333283
0.338097
0.334095
0.332651
0.336845
0.325941
0.352784
0.334932
0.337995
0.372758
0.338751
0.365033
0.380056
0.338042
0.332516
0.334587
0.3392
0.451065
0.431589
0.412871
0.427644
0.349444
0.333281
0.346403
0.340795
0.379036
0.368966
0.331451
0.365013
0.333365
0.379401
0.353107
0.385558
0.368372
0.340515
0.34123
0.339613
0.366376
0.376788
0.35702
0.355434
0.360037
0.34593
0.349195
0.353237
0.369695
0.369678
0.369753
0.362389
0.366297
0.363839
0.368958
0.363543
0.368951
0.369888
0.368602
0.365841
0.345973
0.375554
0.363428
0.352104
0.355868
0.396296
0.330149
0.342034
0.328012
0.333775
0.345967
0.371023
0.353446
0.341717
0.327999
0.330284
0.369579
0.369492
0.369598
0.332864
0.338079
0.356856
0.343683
0.333887
0.368458
0.352037
0.33662
0.34189
0.335043
0.363038
0.332792
0.331795
0.33243
0.333178
0.358896
0.341055
0.333103
0.353618
0.430806
0.354665
0.334347
0.331881
0.335987
0.34226
0.356915
0.336984
0.325917
0.363131
0.358481
0.376633
0.362535
0.334724
0.33391
0.332299
0.331516
0.331446
0.334998
0.334436
0.370332
0.344435
0.333104
0.329833
0.331881
0.338189
0.328385
0.334902
0.339493
0.345697
0.337829
0.343635
0.339121
0.336774
0.347749
0.343447
0.364071
0.348666
0.341384
0.358119
0.333767
0.337974
0.347128
0.362544
0.353901
0.360798
0.363927
0.358705
0.355095
0.341947
0.346958
0.339634
0.345153
0.34127
0.335305
0.352544
0.35046
0.343898
0.354419
0.327541
0.331175
0.326521
0.339326
0.34213
0.34391
0.335676
0.334628
0.327062
0.333452
0.331374
0.330461
0.335353
0.341201
0.340202
0.336024
0.413436
0.453047
0.505314
0.359175
0.34036
0.350651
0.420099
0.326653
0.3551
0.334387
0.326829
0.450838
0.365146
0.350319
0.352408
0.340864
0.334056
0.325554
0.340222
0.341327
0.337914
0.333608
0.327722
0.332957
0.36233
0.339424
0.366958
0.34009
0.338088
0.347786
0.33432
0.334604
0.336888
0.335616
0.364773
0.368415
0.351498
0.342412
0.363244
0.357629
0.361996
0.340372
0.342478
0.334484
0.333439
0.339727
0.332458
0.33076
0.336083
0.351317
0.339562
0.33524
0.352959
0.334545
0.324899
0.330628
0.329688
0.374444
0.35594
0.337194
0.33354
0.334598
0.331038
0.33734
0.372157
0.359465
0.361512
0.350356
0.359961
0.351043
0.321741
0.382543
0.332217
0.330292
0.329487
0.37453
0.362468
0.340237
0.36485
0.36036
0.393097
0.397797
0.36474
0.377686
0.387491
0.37988
0.345711
0.372829
0.831974
0.372503
0.358137
0.367236
0.342236
0.358259
0.375826
0.343533
0.354342
0.369253
0.36589
0.369322
0.36633
0.371973
0.353226
0.35982
0.3791
0.387339
0.374301
0.361439
0.332533
0.345296
0.346012
0.350313
0.378291
0.377781
0.386167
0.330897
0.329799
0.360175
0.333214
0.326798
0.342518
0.328935
0.331785
0.348902
0.334665
0.343674
0.368527
0.330403
0.338941
0.341836
0.336966
0.35558
0.338877
0.336794
0.342789
0.332623
0.353557
0.338161
0.361733
0.328334
0.329981
0.370825
0.336301
0.332556
0.344112
0.322975
0.352852
0.333688
0.372859
0.468713
0.333159
0.353592
0.36477
0.909437
0.34856
0.373658
0.376565
0.380919
0.335239
0.385805
0.344611
0.351169
0.363594
0.328959
0.325553
0.34396
0.340051
0.355361
0.368029
0.33712
0.364527
0.327893
0.348327
0.364109
0.332267
0.363727
0.348247
0.341089
0.337559
0.341398
0.340301
0.385948
0.366394
0.356695
0.327877
0.340208
0.351261
0.342277
0.358089
0.338588
0.336725
0.341643
0.34131
0.369318
0.378997
0.342731
0.344183
0.351463
0.337991
0.388599
0.337641
0.412314
0.329723
0.335674
0.384123
0.334446
0.351649
0.327977
0.38209
0.526397
0.411886
0.929333
0.361581
0.334709
0.354898
0.364484
0.336261
0.349862
0.348481
0.363439
0.355841
0.346972
0.338126
0.347656
0.335564
0.332826
0.369078
0.334028
0.365924
0.329174
0.33491
0.328157
0.361315
0.358092
0.357955
0.346163
0.362783
0.330285
0.358317
0.334681
0.332507
0.333853
0.32609
0.343201
0.343784
0.342326
0.343018
0.352523
0.368871
0.353393
0.353253
0.333933
0.336068
0.438641
0.330501
0.347301
0.330387
0.325835
0.332996
0.348843
0.345479
0.339367
0.320836
0.331454
0.333455
0.340517
0.337205
0.328636
0.34266
0.335416
0.33539
0.338366
0.369114
0.339298
0.340043
0.337665
0.330433
0.343949
0.333383
0.349736
0.341979
0.363457
0.342738
0.394804
0.372445
0.326466
0.327092
0.342716
0.327502
0.331319
0.332334
0.335301
0.333379
0.334104
0.336056
0.565614
0.338685
0.802148
0.360763
0.388115
0.381122
0.330159
0.330323
0.343409
0.332661
0.422061
0.491268
0.407281
0.337615
0.32869
0.334754
0.336784
0.339991
0.336639
0.382509
0.371931
0.330691
0.32744
0.332051
0.334141
0.352226
0.420034
0.356295
0.335818
0.334833
0.333771
0.333062
0.330925
0.331179
0.331386
0.333167
0.349408
0.335743
0.33878
0.336212
0.392
0.347912
0.338125
0.338931
0.353269
0.328914
0.360141
0.355387
0.33545
0.331376
0.469586
0.493271
0.339363
0.344839
0.346228
0.335567
0.339132
0.345588
0.366326
0.336437
0.339682
0.347831
0.334357
0.327825
0.352909
0.332125
0.328946
0.331847
0.348455
0.375404
0.333742
0.336206
0.390179
0.335252
0.376549
0.335077
0.334853
0.355055
0.353192
0.332551
0.387256
0.346965
0.331731
0.33648
0.408335
0.933664
0.817055
0.330421
0.339377
0.335706
0.334941
0.337296
0.338396
0.339811
0.326466
0.330198
0.332767
0.334593
0.407633
0.357682
0.350763
0.344891
0.343162
0.340717
0.332493
0.607817
0.970859
0.333978
0.443582
0.334872
0.332695
0.917849
0.417859
0.741534
0.334403
0.370155
0.34358
0.348011
0.48758
0.412894
0.354914
0.331194
0.337148
0.328512
0.338845
0.331849
0.330542
0.342908
0.329152
0.328781
0.366005
0.360849
0.337655
0.346355
0.33287
0.334068
0.329276
0.327023
0.330512
0.330293
0.334868
0.337825
0.32737
0.331753
0.329512
0.32867
0.331852
0.334922
0.333899
0.327068
0.347249
0.334903
0.336024
0.337585
0.331976
0.33179
0.353178
0.348685
0.36297
0.347431
0.335826
0.328119
0.331789
0.330311
0.3399
0.347222
0.344311
0.347564
0.329256
0.342401
0.329664
0.337951
0.335242
0.321142
0.333713
0.345502
0.346902
0.352644
0.336388
0.334822
0.347386
0.355305
0.340696
0.340178
0.341351
0.327016
0.341869
0.348385
0.3439
0.341954
0.353427
0.375953
0.337766
0.332243
0.333682
0.333396
0.33438
0.334905
0.342147
0.330428
0.332173
0.368003
0.355731
0.332477
0.331622
0.382774
0.343021
0.366445
0.997854
0.869409
0.363002
0.330182
0.686718
0.408845
0.332567
0.338715
0.327088
0.326032
0.329306
0.328796
0.331448
0.350782
0.33637
0.337606
0.336275
0.336481
0.341455
0.337064
0.343024
0.330343
0.335143
0.332505
0.3392
0.372706
0.340857
0.351396
0.334236
0.335389
0.338354
0.357146
0.353565
0.336684
0.333606
0.349875
0.361211
0.363518
0.334506
0.33644
0.339329
0.335623
0.358665
0.355117
0.333391
0.348533
0.342502
0.35145
0.332004
0.347585
0.367616
0.367625
0.371087
0.361552
0.359596
0.36309
0.340415
0.349687
0.347153
0.335991
0.34076
0.333513
0.331698
0.328255
0.336475
0.329701
0.342444
0.346055
0.340674
0.345307
0.337019
0.337178
0.360479
0.358864
0.342631
0.342546
0.343603
0.382051
0.344171
0.338455
0.334266
0.341161
0.340034
0.342431
0.342604
0.343292
0.363356
0.368662
0.361745
0.35098
0.347679
0.360582
0.368658
0.368827
0.373724
0.360968
0.379381
0.322942
0.328474
0.328827
0.32771
0.360229
0.343119
0.36469
0.355848
0.366412
0.366006
0.368668
0.370942
0.353651
0.369324
0.3851
0.369892
0.333498
0.341329
0.33949
0.330019
0.332039
0.357631
0.369613
0.355465
0.386853
0.327889
0.331183
0.350371
0.346979
0.336201
0.354472
0.340444
0.351165
0.341675
0.331512
0.330195
0.330495
0.334873
0.329283
0.337685
0.330359
0.355697
0.333627
0.3299
0.329146
0.327068
0.328201
0.326348
0.328265
0.327668
0.32754
0.334106
0.333174
0.335959
0.337537
0.323699
0.334259
0.334011
0.335265
0.401533
0.327187
0.324964
0.325168
0.36016
0.375781
0.333073
0.333934
0.333873
0.335668
0.356299
0.349113
0.357714
0.350897
0.368178
0.372567
0.33407
0.331337
0.332266
0.353162
0.340696
0.349865
0.372272
0.337831
0.339358
0.370422
0.338077
0.357153
0.328594
0.33307
0.348674
0.335918
0.329751
0.344216
0.343522
0.329126
0.347639
0.332633
0.351009
0.352165
0.327636
0.326892
0.341458
0.328684
0.359207
0.330389
0.33181
0.854876
0.342338
0.329671
0.336191
0.328765
0.32898
0.328875
0.328834
0.977632
0.416725
0.350515
0.331406
0.34947
0.340212
0.347472
0.350164
0.333349
0.336734
0.333219
0.336251
0.334232
0.363537
0.342414
0.330127
0.364388
0.33044
0.340638
0.342708
0.345931
0.361723
0.369612
0.352129
0.359209
0.325964
0.361972
0.323841
0.332593
0.326261
0.334963
0.330907
0.335392
0.330198
0.538751
0.336081
0.566403
0.344777
0.327976
0.621049
0.363961
0.335358
0.33763
0.325973
0.334743
0.350338
0.352545
0.33585
0.366171
0.345153
0.343934
0.329516
0.328664
0.335207
0.336052
0.338555
0.336763
0.343552
0.332288
0.33759
0.333161
0.340498
0.328227
0.33436
0.333864
0.354458
0.342762
0.342035
0.335106
0.333843
0.333697
0.335802
0.32815
0.329322
0.327542
0.328344
0.331537
0.330658
0.328659
0.357681
0.326778
0.327301
0.338264
0.335745
0.33653
0.336385
0.33623
0.337305
0.330787
0.330044
0.337704
0.339688
0.34335
0.336238
0.32737
0.325692
0.331886
0.326716
0.329658
0.337478
0.350604
0.351614
0.32817
0.348118
0.339922
0.342061
0.38804
0.352468
0.341089
0.368165
0.36904
0.371972
0.33902
0.337426
0.336089
0.338312
0.373859
0.343746
0.330411
0.423747
0.339734
0.33705
0.332427
0.334684
0.33332
0.329922
0.334216
0.331914
0.332631
0.338822
0.331837
0.338394
0.342599
0.333802
0.333813
0.337903
0.332728
0.335376
0.341137
0.341091
0.330419
0.335492
0.33359
0.335979
0.340827
0.336196
0.351793
0.353569
0.345857
0.383471
0.441914
0.386573
0.387543
0.3319
0.330074
0.355241
0.346426
0.331745
0.357063
0.338866
0.335371
0.352432
0.348409
0.349062
0.347957
0.350746
0.352515
0.323925
0.335447
0.359405
0.443864
0.347075
0.769638
0.375384
0.332298
0.332938
0.359354
0.331107
0.332559
0.329207
0.345646
1.03302
0.334917
0.328311
0.443249
0.617256
0.332684
0.348586
0.336298
0.34734
0.584114
0.520066
0.326887
0.345331
0.332912
0.353204
0.355073
0.349263
0.371118
0.343512
0.347525
0.330801
0.431935
0.365038
0.447651
0.350455
0.335352
0.398207
0.364678
0.660741
0.424501
0.326089
0.949932
0.90472
0.338857
0.332683
0.360854
0.326325
0.351935
0.329818
0.348686
0.411598
0.330379
0.336298
0.335303
0.497666
0.336449
0.445464
0.329893
0.382528
0.348225
0.330939
0.332667
0.341063
0.327102
0.336606
0.331528
0.487931
0.364896
0.355128
0.364412
0.393488
0.333941
0.342109
0.345985
0.356281
0.351584
0.354417
0.330822
0.364217
0.42318
0.838784
0.363299
0.340906
0.330408
0.332481
0.329491
0.350107
0.352163
0.333548
0.33709
0.344265
0.348332
0.338846
0.328232
0.341725
0.324583
0.340597
0.343639
0.331271
0.334126
0.333959
0.327411
0.357489
0.328083
0.330085
0.322341
0.321836
0.329717
0.342714
0.336103
0.329851
0.469586
0.346045
0.327319
0.327233
0.331557
0.363632
0.328252
0.330652
0.33423
0.335554
0.348204
0.349412
0.337007
0.330208
0.334208
0.328865
0.331465
0.327829
0.327181
0.328306
0.332597
0.329556
0.331627
0.332514
0.352193
0.376059
0.354059
0.358964
0.3524
0.336023
0.338845
0.357245
0.336131
0.349499
0.351712
0.335587
0.33148
0.324873
0.325484
0.327431
0.344433
0.338254
0.344649
0.330737
0.330374
0.333985
0.366006
0.3317
0.3428
0.336752
0.336767
0.32041
0.346366
0.332582
0.335859
0.328604
0.327153
0.328039
0.328199
0.345875
0.33401
0.360313
0.331624
0.331675
0.443221
0.344567
0.32562
0.377706
0.329488
0.360693
0.366901
0.338025
0.331907
0.338798
0.333258
0.341662
0.336968
0.336402
0.334609
0.327926
0.336134
0.328028
0.337221
0.337256
0.331207
0.335076
0.396062
0.339243
0.840443
0.338878
0.328438
0.327755
0.328069
0.327983
0.334068
0.336593
0.351384
0.331912
0.334092
0.331056
0.329771
0.330356
0.340376
0.330544
0.341778
0.383394
0.330198
0.381845
0.330284
0.333792
0.34113
0.328716
0.344211
0.327407
0.329821
0.326323
0.328644
0.3322
0.329278
0.328986
0.336407
0.331387
0.33472
0.342147
0.356586
0.332199
0.830125
0.435363
0.374341
0.849847
0.342266
0.341155
0.332306
0.334872
0.436836
0.487499
0.403398
0.334742
0.331429
0.336122
0.327133
0.328669
0.335219
0.335856
0.465976
0.478301
0.435864
0.343067
0.343752
0.351829
0.336781
0.336904
0.336783
0.350283
0.321738
0.333952
0.333789
0.336898
0.340118
0.333767
0.333421
0.332144
0.343362
0.339862
0.346105
0.35268
0.345541
0.341901
0.401394
0.320893
0.339297
0.325887
0.333422
0.346081
0.350757
0.357843
0.353356
0.36057
0.369756
0.339978
0.361693
0.334239
0.333908
0.335059
0.334841
0.375887
0.364115
0.369564
0.364122
0.346358
0.344573
0.341269
0.365886
0.345371
0.33837
0.343136
0.354492
0.34435
0.353125
0.339389
0.35643
0.371429
0.369388
0.339867
0.347507
0.327122
0.35029
0.346119
0.351327
0.348306
0.370189
0.337631
0.375099
0.3482
0.384745
0.374809
0.341605
0.344441
0.339653
0.329627
0.34774
0.355581
0.341653
0.390487
0.331094
0.343087
0.347121
0.361474
0.348696
0.352098
0.348059
0.349556
0.328363
0.349965
0.336834
0.334968
0.323809
0.322248
0.320764
0.326284
0.330894
0.32253
0.333128
0.357198
0.36858
0.368915
0.36291
0.371709
0.340053
0.335315
0.368637
0.368759
0.369386
0.394589
0.374409
0.371735
0.365972
0.384355
0.373903
0.365283
0.337657
0.33901
0.368649
0.337
0.336331
0.354935
0.358171
0.375037
0.335219
0.338529
0.371444
0.375758
0.336331
0.333668
0.379047
0.342371
0.369351
0.333465
0.335584
0.335977
0.365526
0.334263
0.333857
0.335329
0.369109
0.327513
0.328408
0.350565
0.361962
0.364236
0.335787
0.32786
0.339604
0.341592
0.344405
0.331025
0.331256
0.329238
0.355748
0.348361
0.345101
0.334394
0.354244
0.339903
0.33931
0.335086
0.352539
0.338712
0.334785
0.333849
0.329339
0.341768
0.363047
0.382583
0.366419
0.390737
0.349993
0.357211
0.356003
0.347316
0.360869
0.375239
0.353494
0.355466
0.365912
0.332741
0.338625
0.336553
0.376481
0.325225
0.384548
0.330529
0.338203
0.334249
0.33063
0.332271
0.349465
0.361296
0.352193
0.373306
0.348523
0.344697
0.334078
0.362868
0.339443
0.368232
0.332811
0.332507
0.356652
0.344224
0.347602
0.346057
0.348365
0.333174
0.335499
0.356576
0.343568
0.336977
0.338968
0.337443
0.348021
0.35049
0.345583
0.341799
0.332826
0.338904
0.344901
0.340443
0.329915
0.892662
0.549532
0.333006
0.32913
0.329417
0.340854
0.339783
0.344927
0.34807
0.333546
0.336628
0.329048
0.32765
0.325855
0.326661
0.326213
0.331079
0.33287
0.83314
0.377126
0.333983
0.345664
0.334144
0.33581
0.334182
0.351961
0.334824
0.334009
0.366333
0.34261
0.345096
0.341218
0.352316
0.348899
0.337536
0.352755
0.359676
0.345021
0.33173
0.365802
0.341734
0.367202
0.3495
0.358079
0.35914
0.332636
0.351025
0.347359
0.342083
0.36002
0.342593
0.331833
0.363065
0.371127
0.366205
0.36988
0.36988
0.361055
0.368757
0.334497
0.363341
0.369624
0.357263
0.352184
0.356922
0.36186
0.338458