/*--------------------------------*- C++ -*----------------------------------*\
| =========                 |                                                 |
| \\      /  F ield         | OpenFOAM: The Open Source CFD Toolbox           |
|  \\    /   O peration     | Version:  2506                                  |
|   \\  /    A nd           | Website:  www.openfoam.com                      |
|    \\/     M anipulation  |                                                 |
\*---------------------------------------------------------------------------*/
FoamFile
{
    version     2.0;
    format      ascii;
    arch        "LSB;label=32;scalar=64";
    class       surfaceScalarField;
    location    "0.0440925";
    object      phi;
}
// * * * * * * * * * * * * * * * * * * * * * * * * * * * * * * * * * * * * * //

dimensions      [0 3 -1 0 0 0 0];

oriented        oriented;

internalField   nonuniform List<scalar> 
7391
(
0.0481051
-0.0386476
0.0324353
-0.0418929
0.038049
0.0242624
0.024364
-0.0866754
-0.0406464
0.00819625
0.0370136
-0.0045634
0.0905917
-0.0895178
0.022431
-0.0235048
0.0126519
-0.0173249
0.00126916
0.00340382
-0.0358354
0.106234
0.0612881
-0.131686
-0.0846926
0.107567
0.00893688
-0.0318115
-0.0441572
0.0103778
0.00216483
0.0316145
-0.050413
-0.041178
0.0654792
0.0261117
-0.0333432
0.0404373
-0.0140104
0.00691626
0.0268878
-0.0504008
0.023513
0.0901073
-0.0254627
-0.0127314
-0.0519132
0.0750733
-0.00788576
-0.0184922
-0.0486954
0.0679078
0.00506121
-0.0172011
-0.0557679
-0.0410554
-0.0529801
-0.0547697
0.148805
0.00463931
-0.0283255
0.019295
0.0252265
-0.0097307
0.0365668
0.0224447
-0.0222286
-0.0626984
0.0624823
0.0430396
0.0583647
0.0186292
-0.120034
0.0378496
0.0128857
-0.00159655
-0.0491388
-0.0819
-0.000779464
0.0826795
0.00115368
-0.0979823
0.163682
-0.0668536
0.0887248
-0.14786
0.0309069
0.0282284
-0.086403
0.142906
-0.103851
0.0473474
0.086028
0.112934
-0.0795381
-0.119424
-0.0940956
-0.0295252
0.111896
0.0117252
-0.0573888
0.0602467
-0.0028579
0.0183385
-0.0472381
-0.055793
-0.0512686
0.0415568
0.0983118
-0.0886001
0.0647031
-0.0388755
0.0266298
-0.0524575
-0.0840429
0.0924658
-0.101276
0.0928531
0.00150748
-0.0345706
-0.0101153
0.0431785
0.0465579
-0.0701864
-0.061816
0.0854445
0.0740485
-0.0647098
0.0293419
-0.0386805
-0.041681
0.054286
-0.0110975
0.097709
-0.0483255
-0.0493835
0.0473764
-0.015831
-0.00525146
-0.0262939
-0.0526936
0.0430379
-0.00827952
0.0179352
-0.0324047
0.113848
-0.0477735
-0.03367
0.0398605
0.0300926
0.0383111
-0.108264
0.104837
-0.248569
0.109151
0.0345813
-0.0353413
-0.0258371
-0.0197608
0.0809393
0.0553771
-0.0284499
-0.0508475
0.0239202
0.0517868
-0.0600642
0.0636545
-0.0633303
0.0469146
0.0164156
-0.0595518
-0.0170297
0.0109591
0.0656224
-0.0711186
0.149863
-0.06605
-0.012694
0.0358793
0.0382159
-0.0740952
0.0862356
-0.0486636
0.0595283
0.0357596
0.0114204
-0.00566487
-0.0415152
-0.0393655
0.036012
0.014292
-0.0109385
0.0325495
-0.0251265
0.0013503
-0.00877329
0.076246
-0.0751818
-0.0242885
0.0232242
0.0733909
-0.0416424
0.0188128
-0.0505613
0.0495736
-0.0990059
0.0583171
-0.00888478
-0.0234255
0.0478029
-0.0133213
-0.0110561
-0.00533265
-0.122831
0.17582
-0.0476558
0.0102019
0.0096403
-0.063394
0.0435518
0.0497066
0.00547634
-0.044981
0.012614
0.0663101
-0.0692838
0.00294033
-0.0557071
-0.0106273
-0.0343447
-0.00768022
0.0449653
-0.00174379
0.00139383
0.00010094
0.000249019
0.000290184
-0.000364573
-0.000492245
0.000566634
-0.00405754
-0.00730981
0.00896828
0.00239907
0.0549837
0.0439077
-0.0175084
0.0972556
-0.095646
-0.0204846
-0.106404
-0.00876359
-0.0432058
0.158374
-0.0101527
0.00703978
0.137468
-0.134355
0.0663803
0.0194278
-0.00572075
-0.0800873
-0.0567467
0.0282357
0.028511
-0.117497
0.0262982
0.00481211
0.0863863
0.0381196
-0.0439728
-0.0188074
0.0246605
0.0480445
-0.0603537
0.0504288
0.0345318
-0.0359431
0.000313822
0.00109748
-0.0337762
-0.00894123
0.00667361
0.0360438
0.0106887
-0.10257
0.0479088
-0.0885473
0.0935897
0.0366208
-0.0416632
0.0584547
0.0328353
-0.0829375
-0.00835246
-0.0471394
0.142041
0.00423183
-0.0991338
-0.0436864
0.0318667
0.102808
-0.090988
-0.0500075
-0.0264705
0.0529763
0.0235017
-0.099731
0.0993185
8.74901e-05
-0.0107795
-0.00180431
0.0124963
-0.0085816
-0.000577139
0.00497606
0.00418268
0.0268816
0.00996523
-0.0368469
0.0012116
-0.000987446
-0.00880576
0.0728462
-0.0441336
-0.0511888
0.0224763
0.00171307
-0.0248955
-0.0209747
0.0694044
0.0430184
-0.0395765
-0.00797657
0.00927566
-0.0450186
0.0365362
0.0218977
-0.0134153
-0.0477903
0.0296595
-0.00250409
0.160353
-0.159879
0.00203012
0.10764
0.0159614
-0.0160337
-0.00953147
-0.00532578
0.0047239
-0.00580061
0.000426703
-0.00903411
-0.0942177
0.107237
-0.0234473
0.0104276
-0.0131951
-0.00213699
-0.0145964
2.42912e-06
0.00252891
0.0651333
-0.0459449
0.0120238
-0.0312122
0.0368814
0.0561879
-0.027936
-0.0272815
0.054805
0.0281991
-0.0557226
0.0277493
-0.0550308
-0.000365808
0.000236802
-0.0332142
0.0124748
-0.0100444
0.0792125
0.0691739
-0.0542543
0.098091
-0.113011
-0.0235016
0.113362
-0.0529788
-0.0418574
0.044895
0.0517674
-0.0389506
0.0367314
0.00221914
0.0399803
-0.0786766
0.0729908
-0.0342946
-0.0574159
0.0518337
0.0855782
-0.079996
0.00421872
-0.000477966
0.00220378
-0.00594454
-0.00288444
0.000395407
0.0393031
-0.109498
0.10443
-0.0342349
-0.0036134
0.00160312
-0.00495605
0.00424602
-0.0073241
0.00260011
-0.0209821
-0.0095246
0.118105
-0.0875986
-0.0258068
0.0591877
0.0406676
-0.072171
0.0280374
-0.124374
0.0479895
0.076384
-0.0429241
-0.0325185
0.0276523
0.0483586
0.155739
-0.225946
0.0218491
-0.0916459
0.0649455
0.0265249
0.000175595
-0.0134543
-0.00371546
-0.00100397
0.017419
0.110546
-0.0473469
-0.0806183
-0.157155
0.0862564
0.0769371
-0.00603851
-0.0383737
0.0414103
0.00764763
-0.0106843
-0.0421588
-0.0418842
0.0463685
0.0141565
0.00243442
-0.0629594
0.0287282
-0.0344037
-0.0517134
-0.0271189
0.0548682
0.00397846
-0.0114676
0.0661352
-0.0586461
-0.0334049
-0.0301103
0.0635152
0.0311192
-0.0645241
0.048952
-0.00421048
-0.0447415
0.0380771
0.0356331
-0.126562
0.052852
-0.0978957
0.0599555
0.0760174
0.0329935
-0.09977
-0.0468446
0.107962
-0.0371838
-0.0239334
-0.0305219
0.0436327
-0.054796
0.10979
-0.0549938
0.00228881
-0.044141
0.00910756
0.0327446
0.078177
-0.0307717
0.0342117
0.074618
0.040766
-0.0370618
-0.0783221
0.0315645
-0.0323737
0.000809234
0.0147921
0.206621
-0.158931
-0.0624825
0.00590014
-0.00316917
-0.0209984
0.0179443
-0.143479
-0.0227028
0.148238
-0.00409263
-0.0123563
-0.0270829
0.0435318
-0.00815839
0.0323204
-0.0303467
0.0347525
-0.03316
0.0286367
-0.0302292
-2.94057e-05
0.000211246
0.0413562
0.0165717
-0.091088
-0.0417104
-0.000354229
0.00689095
0.0352777
-0.0317908
0.0338317
-0.0244806
-0.0233282
0.013977
0.12348
0.0592799
-0.0926527
-0.0569975
0.0285476
-0.0385352
0.0269032
-0.0392154
-0.0371435
-0.0140863
0.0437171
0.00751265
0.0315105
-0.0196944
0.0807231
-0.0925391
0.041497
0.0336835
-0.0751804
0.0730074
-0.00303616
-0.00601583
-0.00101213
0.00666194
-0.0119456
0.0243538
-0.0190701
0.0351476
0.0390486
-0.0216911
-0.0525051
4.85129e-05
-0.0103803
0.00865803
0.00167374
-0.0447506
0.00185782
0.0120842
0.0308086
-0.0334405
-0.0127908
-0.00525601
-0.0523698
0.00169981
0.108936
-0.0582662
-0.0664812
0.0664289
5.22742e-05
-0.0107399
0.0666615
-0.0334769
-0.0387285
-0.0402674
0.0465303
0.0324656
0.0742326
-0.0327393
-0.0351735
-0.00631984
0.0885736
0.0169732
-0.162963
0.0762737
-0.0267874
0.0709451
-0.120431
-0.00186594
0.00153327
-0.0344476
-0.0665739
0.0115721
0.0616962
-0.00669447
-0.056358
0.00321867
0.0531394
-0.0146752
0.00909046
-0.00527452
0.0108593
0.0435889
-0.0989748
-0.0121317
0.0675176
-0.00421236
-0.00328331
-0.00147144
0.0230096
0.0343204
0.00898003
-0.06631
-0.0560716
0.000136649
0.000227843
0.00539985
0.0061651
-0.0183045
0.00673959
-0.00475711
-0.0283048
0.0624988
-0.11774
-0.0389761
0.020797
-0.019747
0.0372036
-0.0382536
-0.000697206
0.0372735
0.00422657
-0.0408029
0.0103053
-0.000562171
-0.00726506
-0.00247807
-0.0219803
0.0548944
-0.0376712
0.0342081
0.000112268
0.0211815
0.0992524
-0.11713
-0.000565074
0.000938494
-0.000617961
0.000244541
0.00369534
-0.0015996
-0.0149397
0.0128439
0.00640556
-0.000730316
0.00793257
-0.0136078
0.0097067
-0.0170658
0.0191275
-0.0117684
0.0750488
2.45587e-05
-0.0187152
0.0501727
0.0177007
-0.0491583
-0.0306031
-0.0157236
0.0463267
-0.0475416
0.0319726
-0.0168357
-0.0493183
0.0843175
-0.0352763
-0.0409031
0.102699
0.0335384
-0.106473
0.00598582
0.00148079
-0.00372144
-0.00374517
-0.00137155
0.00564062
0.142594
0.00328768
-0.00429393
0.00168372
-0.000677462
-0.000300271
0.00385386
0.0355936
0.028684
-0.0106458
-0.0536318
-0.000657951
-0.036714
0.0605783
-0.0232064
-0.00131702
-0.0033103
0.00302197
-0.001936
0.00410189
-0.00246615
-0.0358159
-0.0373522
0.0731681
0.0414736
0.0413878
-0.0828614
-0.0269606
0.119464
-0.0436286
0.0173637
0.00174056
-0.0198015
-0.0235116
-0.000955822
-0.00199903
0.0264665
-0.0862457
0.0749648
-0.0598377
-0.00432811
0.00394933
-0.00312314
0.00350193
0.0343978
-0.0736749
0.0392771
-0.0970132
0.0252176
0.0319185
0.039877
-0.0168301
-0.0250352
-0.0375047
0.07937
0.00163144
-0.0102539
0.00488535
0.00373708
0.040451
0.041281
-0.081732
-0.129459
-0.0183114
0.137819
0.00995157
0.0519945
0.0153267
0.000296971
-0.0676181
0.0515969
0.000397632
0.0615478
-0.043812
-0.00240915
0.0421613
-0.132466
0.0767542
0.0135505
0.0566932
-0.0847346
0.0647974
-0.0367561
1.38999e-05
0.0268677
-0.0524019
0.0523211
8.07572e-05
0.077785
0.0112977
-0.0196784
-0.128342
0.118121
-0.0652006
0.0754222
-0.0272861
0.019813
-0.0359118
0.0433849
-0.0104778
-0.00593327
0.0102235
0.0061876
-0.00606036
0.0269756
-0.0443408
-0.00731115
0.00532315
0.0383677
-0.0363797
-0.0476726
-1.9015e-06
0.0476745
-0.00719304
0.0100649
-0.00042099
-0.00245087
0.0252792
0.0303879
-0.0556671
0.0243308
-0.0549387
0.0671442
0.0665055
-0.0535518
0.0524302
-0.0653839
0.130139
-0.0021651
0.0128422
0.00765229
-0.0183294
0.0249412
-0.0429815
-0.112873
0.0402037
0.115651
0.0416819
-0.0846634
-0.0815823
0.0846334
-0.0285138
0.0208347
-0.0699409
0.0491062
0.0695738
-0.0516295
-0.0092482
0.00471959
0.0323032
-0.0277746
-0.0765772
-0.0262134
0.0149128
0.0878779
0.0358101
-0.0348012
0.0202994
-0.0213083
0.0417249
-0.0384745
-0.13553
0.132279
0.0416499
-0.109887
0.111606
-0.0433691
-0.0613031
0.0360146
0.0428902
-0.0176017
-0.0586555
0.0387661
-0.0478859
0.0677753
0.0329486
-0.0526838
0.0197352
-0.0256191
-0.00110975
0.00144858
-0.00471569
0.00249875
-0.00225719
0.00447413
-0.0672757
0.0667249
0.000550865
-0.0598125
-0.00348473
0.0154405
0.0483989
-0.0635424
-0.0346876
0.0676812
-0.0685449
0.0338573
-0.0308031
0.000413831
-0.00318207
0.0335713
-0.0606196
0.0661218
-0.00618072
0.000678488
-0.0181446
0.000170374
-0.0288876
0.0468618
-0.0607484
0.000128872
-0.000359394
-0.0748823
0.0374471
0.00851791
0.0289173
-0.0246947
0.00049671
-0.0971202
0.0896388
-0.0998342
0.107316
0.0381345
0.0177525
0.0130853
-0.0689724
0.00363427
-0.0254183
0.0343981
-0.0606416
0.0629906
0.0357855
-0.0292979
-0.023444
0.0453075
0.00743433
-0.0282592
-0.0154101
0.0143715
9.43004e-05
0.000307112
-0.061043
0.0498009
-0.0253182
0.0344288
-0.000359189
-0.0250591
0.0344091
-0.0675796
0.0331705
0.0679475
0.0287244
-0.0417247
-0.0270257
0.0351117
-0.0243916
0.0163056
0.0161206
-0.0630956
0.0209235
0.0260515
0.112359
0.00699014
0.0452877
-0.164636
0.115055
-0.0685226
-0.0605591
0.0140266
0.0724815
-0.0749449
0.035932
-0.0334686
0.00133521
-0.00112417
0.000484578
-0.000695627
-0.00211644
0.00351115
-0.000906323
-0.000488388
-0.0220129
-0.0154013
0.03579
0.00162426
-0.0448669
0.0183964
0.0271661
-0.0468606
-0.00426967
-0.00230773
0.00617484
0.000402557
0.00165002
0.000965408
0.00127637
-0.0038918
-0.0892472
0.147722
-0.0167497
-0.0497735
0.0499058
0.0182641
-0.10789
0.13884
-0.0890856
0.0371274
-0.0405809
-0.00104068
0.0427693
-0.00626633
-0.0354622
0.00550704
-0.010862
-0.0114938
0.0168488
0.00210404
-0.00190059
0.000387909
-0.000208123
-0.0336207
0.0339824
-0.11176
0.111398
-0.0675772
0.0339565
0.00186391
-0.00389348
-0.00623787
0.00826744
0.0525781
-0.0518913
0.000997282
-0.00168412
0.0128385
-0.0225092
-0.0207018
0.0303725
0.0343688
-0.0360892
-0.0297496
0.03147
-0.00757873
0.000411125
-0.0342512
0.152526
-0.149014
-0.0506516
-0.0801308
0.00373978
0.0162393
0.0601517
0.00114384
-0.00206748
-0.00973938
0.010663
0.0470945
-0.0610722
-0.0249729
0.00371826
-0.00984794
0.0016061
0.00452358
-0.0306562
0.0840477
-0.0743736
-0.0522924
-0.00527496
0.0575674
0.0326869
-0.0347827
0.00209577
-0.103095
0.0344447
0.0275534
-0.020577
0.00415002
-0.0111264
-0.0136782
-0.0301493
-0.0289203
0.0727479
-0.00840622
0.00218058
0.00472692
-0.00702323
0.0925456
-0.0891155
0.00359307
-0.00482713
0.00692494
-0.00796526
0.00586745
0.00224319
-0.0178084
-0.0510086
0.0399236
-0.0124097
-0.0405744
0.0130604
0.249925
-0.128647
-0.0521033
0.035875
0.0306334
-0.0665084
-0.0615282
0.0319601
0.065443
-0.00115492
-0.00227126
0.00129745
0.0538639
-0.0218747
-0.0368639
0.00487474
0.0540801
-0.0363513
0.00478077
-0.0225095
0.0206839
0.0271125
-0.00119418
-0.0466022
0.00233179
0.00838261
-0.00674396
-0.00397044
-0.00690612
-0.00200555
0.00791528
0.000996387
-0.00265657
0.000328413
0.00185207
0.00047609
-0.0151752
-0.0294875
8.2808e-05
-0.00102627
0.0304309
-0.0144347
0.0001323
-0.00283797
0.0367636
0.0223275
-0.0264043
0.0285598
-0.0213365
-0.0351027
0.0278793
0.00341992
0.000424961
0.024715
-0.0365852
0.0185765
-0.0102506
-2.47034e-06
0.019711
0.0175651
0.0821009
-0.0174031
0.0377213
-0.032343
0.0120248
-0.0610323
0.0191068
0.0481967
-0.00627118
-0.000315227
-0.00164051
-0.000223923
0.00217966
0.0398018
0.0171048
0.0665736
-0.0486743
0.0112286
0.0524753
-0.0150297
0.0247547
-0.0593718
0.0346171
0.129036
0.0686993
-0.149377
-0.00116058
0.00189787
-0.001724
0.000986709
0.00188386
-0.00102357
-0.0049612
0.0277604
-0.0299033
0.0746244
0.0669098
0.00443772
-0.0560438
-0.0153037
-0.0166169
-0.0690138
0.0674861
-0.0351834
-0.14547
0.113321
0.0673321
0.0422115
0.0516696
0.0362583
-0.0388984
-0.0310851
0.036282
0.0337016
-0.0200936
0.0222702
-0.0244976
0.022321
0.0546169
-0.000330898
-0.00493116
-0.00730658
0.00604573
0.00619201
0.0419881
-0.115904
0.0668706
0.00704525
-0.0215322
0.00883084
-0.00647342
0.0191748
-0.0546597
0.00592295
0.0496177
-0.000880956
-0.0946691
0.0481881
-0.00611393
0.0525949
-0.0376889
0.0454081
-0.0146938
0.00697457
0.0233458
0.0486269
-0.0305347
-0.0414381
0.0344083
-0.0645186
0.102271
-0.107854
0.0399914
0.110782
-0.0513847
0.0428736
0.0280069
0.0118874
-0.0904345
0.0505402
-0.0110447
-0.0328225
0.0530443
-0.00917711
0.0145225
-0.0415672
0.0543183
-0.0492425
-7.14515e-05
-0.032751
0.0207816
-0.0649999
0.0722252
0.0590468
-0.0592536
0.00020679
0.0675827
-0.0739828
0.0412744
-0.0348743
0.0306553
0.00547361
-0.0284631
-0.00766584
-0.0476885
-0.0298484
0.0391557
0.0383812
0.0347027
-0.0871046
0.00620936
-0.0659853
0.0597759
-0.00080651
0.0257601
-3.29084e-05
-0.0249207
-0.058833
0.0287237
0.104727
0.00769788
-0.00636614
-0.00560141
0.00846881
0.0132846
-0.0348503
0.0130969
-0.0728012
0.0944335
-0.0133138
-0.0519244
0.0701146
-0.0772178
-0.0256591
0.0633471
0.0189418
-0.0566299
-0.0593477
0.0336887
0.0468095
0.0643406
-0.073978
0.0441764
0.0578933
-0.0280916
0.035459
0.00544008
0.00461184
-0.0455109
0.00182868
-0.0043924
0.000715158
-0.0722742
-0.0263927
0.0288525
-0.00896956
0.00190932
0.00132337
0.00573687
-0.0358726
0.00921275
-0.0346432
0.000567533
0.00452282
-0.00114265
-0.0039477
0.00224341
0.00496382
-0.00765166
0.000444423
0.00033477
-0.000489206
-0.000410638
-0.0807705
0.0384681
-0.0328798
0.0751821
-0.00210788
-0.000739917
0.00348018
-0.000632379
0.0109234
-0.0159328
0.00312489
0.00188449
-0.00503248
0.0136851
0.00328646
-0.011939
0.00370889
0.0192841
-0.0372202
-0.000999031
0.00136808
-0.0398697
0.0799474
-0.0400777
-0.0796644
0.0397947
0.00083156
0.000106934
0.0411001
0.00485654
-0.0191211
-0.0268355
0.00731291
0.0171979
-0.106752
0.0822408
0.0195998
-0.0180775
0.00531727
-0.00683957
-0.00145134
-0.000380638
0.001386
0.000445981
0.00892712
7.05661e-05
-0.0042174
-0.00478029
0.00864316
0.00269107
-0.0131208
0.00178656
0.0315072
0.00879737
-0.00449444
-0.00419386
-0.0331106
-0.00232998
0.0444595
-0.0530046
0.0479157
-0.0393706
0.0409843
0.0173967
-0.00823454
-0.0501464
-0.000856241
-0.000902818
-0.00240507
0.00416413
-0.00941581
0.013222
-0.00425186
0.000445668
0.0326627
-0.000259552
-0.0828161
-0.0793599
0.038182
-0.00225156
0.012867
-0.00845622
-0.00215919
-0.0690845
-0.0128709
0.0556423
0.026313
0.0169691
-0.00706683
-0.0134078
0.00350557
0.00222887
-0.00104068
-0.00583966
0.00465147
-5.47482e-05
-0.010276
0.00815974
0.00217104
0.0698414
-0.0261984
0.00105056
0.0102202
0.00237715
0.0276178
-0.0402152
0.120287
-0.0692151
0.0240361
0.0362822
-0.126016
0.0656972
-0.0428187
0.0211275
-0.0598735
0.0395714
-0.00589637
0.0135304
-0.0178554
0.037027
-0.00547108
-0.048959
-0.0112747
0.000998655
0.0543058
-0.0440297
0.0390232
-0.0337988
-0.00626499
0.00203465
-0.00886211
0.0051357
-0.0673735
0.0362815
-0.0437903
0.0542443
-0.0542304
0.0638804
0.0229134
-0.0283418
0.00122825
-0.02146
0.0108541
-0.0313296
0.0316909
-0.0112154
0.0325925
-0.040005
0.00491921
0.0085658
-0.055023
-0.0627867
0.109244
0.0478125
-0.0238923
0.108165
0.0241084
-0.0480006
0.0424762
-0.0689222
0.0556922
-0.0155764
0.0288064
-0.0692613
0.000339163
0.0359713
-0.0306482
0.00740569
-0.0562487
0.0962818
-0.0474388
0.0706306
-0.0272536
0.00970298
-0.0403511
0.0181574
0.0335862
-0.0493097
0.0236896
-0.0345436
-0.00693229
0.0177864
0.0517835
0.0497105
0.025044
0.0692211
-0.0521038
-0.0518914
0.0516429
0.000248563
-0.000294561
0.0688011
0.0199241
-0.045731
0.0116195
-0.0655872
0.0539677
0.0119796
0.125049
-0.0778405
-0.0123606
-0.0282492
-0.0204226
-0.0396889
-0.00611438
0.00799359
0.00533138
-0.00571988
-0.0448654
0.109275
-0.021382
0.0367584
0.0216505
-0.00668997
0.0435263
0.00426373
-0.0556683
0.000685022
0.0171802
-0.0202969
-0.0163325
0.0194492
-0.0946613
-0.00343988
0.0319711
0.0661301
0.109491
-0.0415991
-0.0869638
0.0190722
0.0635138
0.0199706
-0.0919702
0.00848573
-0.140572
0.0155414
0.0459304
0.0791008
0.0303486
-0.00592249
-0.0258927
0.00146665
-0.00227809
0.0324535
-0.02846
-0.00171541
0.0454809
0.0352596
-0.0863247
0.00558429
0.0359142
-0.0353749
-0.0946349
0.0349564
-0.0145131
-0.0970205
-0.0945976
0.0728541
-0.0256593
0.0474029
0.0120185
0.00327283
0.0471883
-0.0624795
0.0562448
-0.0183494
0.0653702
-0.10108
-0.0423457
0.0780559
0.0337824
0.0995631
-0.0396852
-0.0587242
0.0207271
0.0730346
-0.135618
0.0418563
-0.0876474
0.065241
0.102354
0.0813917
0.0181714
-0.0391926
-0.00212363
0.0605679
-0.000722906
-0.0598449
-0.0007657
0.117755
-0.0050155
0.0459488
-0.158688
-0.0136748
0.050996
0.0165427
0.0264854
0.0447552
-0.0593531
-0.0158286
-0.0164572
-0.0136808
-0.00958183
0.0397199
0.00048488
0.0763678
-0.0768527
-0.0117868
0.0350909
-0.0397614
-0.0328136
-0.0222394
0.0345116
0.0205414
-0.0486975
0.000508139
-0.0402826
-0.0393818
0.00527073
0.00200503
0.00655521
-0.013831
0.00104372
0.0517072
0.0186816
-0.0119431
-0.0313714
-0.0109723
0.00942711
0.00055774
-0.0119107
0.0181542
0.0650394
-0.044854
-0.0309253
0.0116553
0.0256808
-0.00170835
-0.0356278
0.00420126
-0.00356865
0.00314432
0.0155521
0.0493784
-0.0680748
0.0630377
-0.0630433
5.58229e-06
-0.0252921
0.00448093
0.0132428
0.00756836
-0.00261799
-0.00305489
0.027535
-0.0218621
-0.0296813
-0.0136951
-0.00441232
-0.00104897
-0.00995949
0.00852961
0.00247886
-0.0134309
-0.0356244
0.000357747
-0.00599183
-0.0601298
0.0526908
0.15663
-0.0420991
-0.0308061
-0.0837249
-0.057664
-0.0749828
0.0106274
0.122019
-0.0547723
0.0926512
-0.121968
0.0840894
-0.084618
0.00271794
0.000598672
-0.0013731
-0.000124037
0.000200514
-0.0141034
-0.00160971
0.00671826
0.00899484
0.00966768
-0.00801482
-0.00390442
-0.00435332
0.00863514
-0.00856699
0.00428517
0.0393128
-0.0815854
0.0292686
-0.0156008
0.0281107
-0.0417785
0.022692
-0.00967658
-0.0828875
0.114119
-0.0298922
-0.00133967
0.0408278
0.0152459
-0.0560737
0.000505566
0.0401508
-0.0406564
0.00917938
0.0256985
-0.024736
-0.0101419
0.00461122
-0.0365731
0.00323797
-0.0510976
0.0637736
0.0298626
-0.0425386
-0.0379722
0.0234397
-0.043857
0.0583895
-0.00167686
-0.011494
0.0180307
-0.00485981
0.00818529
-0.0335139
0.00181701
-0.0104261
-0.0529849
-0.0333935
0.0330277
-0.0547146
0.0513114
0.0241588
-0.0207556
-0.000802652
0.00431813
0.0061522
-0.0384735
0.00774244
-0.0115167
0.0422478
-0.0294781
0.0491718
0.0221172
-0.0418108
0.000865713
0.00757481
0.00248286
2.95597e-05
-0.00908399
0.00946053
-0.000406098
0.040857
0.00244484
-0.0669867
0.0236849
-0.0217734
0.100006
-0.114106
0.0537291
-0.0328824
-0.0215047
-0.00677695
-0.00146949
0.0105782
0.00287858
-0.00919137
0.0085562
0.00079415
0.000692541
-0.00284049
0.0013538
0.0380773
0.0260972
-0.0258403
-0.0383342
0.0328924
-0.00568165
0.0132266
-0.0143104
0.002833
-0.0141811
-0.0476038
0.0221277
0.0254736
0.0050012
0.0377144
0.00401665
-0.0467323
-0.00777161
0.00359838
-0.00214884
-0.0258934
-0.0304097
-0.0267336
0.0830366
0.0288449
-0.0360445
-0.0394972
0.00726824
-0.0389856
-0.0153851
0.0471025
0.00539561
-0.00608475
0.000114417
0.000574727
0.000381251
0.00426264
-0.0116792
0.0204495
-0.00716153
-0.0149649
0.0170123
-0.000701351
-0.063747
0.0474361
-0.0057846
-0.000744932
-0.0204354
0.0269649
0.0278573
0.0140592
-0.0514904
0.0105244
0.0216422
-0.022836
-0.00933056
-0.10567
0.0870225
0.136403
-0.00298043
0.0087133
-0.00994523
-0.0106977
0.0149551
0.0437871
2.17935e-05
-0.000639755
-0.000175516
-0.000946786
0.00136684
0.0366458
-0.0380733
0.00142745
0.0515102
-0.0508851
0.0749804
-0.0697795
-0.0299515
0.144024
-0.0667255
-0.0619432
-0.0153549
0.0824808
-0.0410072
-0.113377
-0.0327604
0.033109
0.0766583
0.0283913
-0.0201936
-0.084856
-0.0056298
0.150114
0.00804174
-0.154031
0.0414516
0.0578068
-0.0306105
0.056309
-0.0485234
0.022825
-0.0331145
0.030956
-0.0101334
0.0135462
0.000432672
-0.089639
0.0467329
0.0424734
-0.0182875
0.00872474
0.0180316
0.0481113
-0.00481245
0.0345672
0.0525163
-0.0870835
0.0497828
-0.0253752
-0.0244077
-0.0189271
0.0556002
0.0186836
0.00600382
-4.44571e-05
-0.0246429
-0.106944
0.0434446
0.125998
-0.0119286
0.0316288
-0.0311499
0.0393229
0.0477105
-0.0384721
0.0517473
-0.0609857
-0.0831573
-0.0447299
0.0815767
0.0463104
0.0125698
0.0351407
0.0622995
-0.0506801
0.000662841
-0.00883017
0.0491516
6.96983e-05
-0.0547377
-4.65877e-05
-0.0571837
-0.0359847
-0.0503109
0.0154394
-0.0132777
-0.0298069
-0.0314764
0.0375508
-0.0044798
-0.00983138
0.000207793
-0.0892047
-0.0193159
0.0022839
0.106237
-0.000812062
0.0397813
-0.0783857
0.0386044
-0.0859559
0.0160568
0.0674844
0.0024148
-0.0560394
0.102135
0.0353354
-0.0814309
-0.00828543
-0.0442524
-0.05696
0.153551
-0.104743
-0.0820755
0.033268
0.00238063
-0.002697
0.0819815
-0.129259
-0.0246213
0.118604
0.0177132
-0.0127291
0.153718
-0.0314185
-0.167394
0.0450944
0.00777359
0.0335766
-0.0311193
-0.0976856
0.0918142
-0.00864013
0.0145116
0.0326767
0.00671331
0.013403
-0.0695407
-0.100132
0.147009
-0.0320844
0.00976777
-0.0291257
0.0982371
-0.0788792
0.0165548
0.0381068
-0.151134
0.0964724
-0.0173378
0.124206
-0.053362
-0.053506
0.0167568
-0.034743
0.0759097
-0.0579235
0.0370834
-0.0584654
0.106261
-0.0902995
-0.0885607
0.0725993
0.0517031
-0.104913
0.00575251
-0.0329148
-0.0468157
0.0497252
-0.0636109
-0.0857964
0.099682
0.06844
-0.03797
0.0371127
-0.0391361
-0.0333706
0.0725068
-0.039831
0.106369
-0.0257715
-0.0170719
0.00524081
0.021822
-0.079003
0.0791728
0.0752752
-0.0617968
0.0463197
0.0988601
0.0849489
3.31309e-05
0.0665684
-0.0666015
0.0294099
0.0113722
-0.00588829
-0.0348938
0.0624773
0.0167909
-0.0624904
-0.0167778
0.101403
-0.0998492
-0.0284869
0.0269329
-0.0108582
-0.0201098
0.0750656
-0.0440975
0.071065
-0.0846635
0.0805083
0.0610862
-0.0227136
-0.00738288
-0.0309898
-0.00119623
-0.0321973
0.00118515
-0.0025632
-0.0370954
-0.120808
-0.00396748
0.0957065
-0.0611785
-0.0305605
0.0292582
0.00973262
-0.00742633
-0.105113
-0.0395856
0.0791117
0.0487805
-0.00313584
-0.00923996
0.00264356
-0.00259953
0.00287481
-0.0278359
-0.036759
0.0401176
0.0244773
-0.000821089
-0.0610244
-0.0616463
0.122671
-0.0635252
0.110212
-0.0466871
0.00997792
-0.00396941
-0.00414461
-0.00711745
-0.00337967
0.0085949
0.00190222
0.00220331
-0.0159987
0.0108253
0.00297004
-0.0115639
-0.00237607
0.0105205
0.00341947
-0.000787629
0.00987794
-0.00794647
0.0049868
-0.00459764
0.00268304
-0.00307219
-0.0716284
0.0982008
-0.0374306
-0.00686684
-0.00983599
0.00535418
0.00140039
-0.0012494
-0.00604384
0.00394646
0.000560153
-0.00863908
-0.0841714
0.0195734
0.0602571
0.00434092
-0.00863162
-0.00151853
-0.0641453
-0.0670992
0.090189
0.0699143
-0.080067
-0.0282003
-0.00707181
-0.0504531
0.0937183
-0.0432652
0.044233
-0.112171
0.0709366
-0.00299804
-0.11574
0.112684
-0.00841104
0.000281247
0.089785
-0.00134139
-0.00200087
0.031259
-0.0109448
-0.00326799
0.0197199
0.0274658
0.00258448
-0.0300503
-0.00470082
0.0304558
-0.0256993
-5.56555e-05
0.0517108
-0.0824314
0.103529
-0.0728083
0.0609753
0.0339363
-0.0408315
-0.0305343
-0.0168607
0.0298829
0.0327652
-0.0626481
0.0557818
-0.038191
-0.0608924
0.0433017
-0.0306878
-0.0500826
-0.0662924
-0.0592324
0.0244812
0.101044
-0.0324288
0.0623117
-0.0209407
0.0207344
-0.0254128
0.0190984
-0.0391894
-0.000849731
0.129675
-0.0104769
0.0446837
-0.0878047
0.0835472
-0.00276573
-0.00653338
0.00646349
0.0237595
0.000349726
0.0484468
-0.0487965
0.131677
0.0536303
-0.109033
0.0704976
-0.0377324
-0.0593341
0.00397908
-0.041541
-0.0413203
-0.012249
-0.0505828
0.0628318
0.050599
-0.0635969
-0.0755494
0.0537518
-0.0660007
-0.0153802
0.0340409
-0.0532633
0.0346026
0.00915537
-0.00459732
-0.0233335
0.0187754
0.0355128
0.0329018
-0.0679819
0.0876971
-0.00451378
-0.118101
0.034918
0.021818
0.0486796
0.0748732
-0.017317
0.0147111
-0.0722673
0.0397061
-0.00547937
0.0898975
0.012056
-0.119271
-0.0262727
0.0227216
0.0226495
-0.0149745
-0.00400293
0.00821288
0.0107645
0.00140969
-0.00789807
-0.00491736
-0.000825413
-0.00336702
0.0214521
-0.0172597
0.0106398
0.00771535
-0.0446279
-0.0241926
0.0494004
0.018392
-0.0435998
0.000671081
-0.0184763
0.05376
-0.0359547
0.0380287
-0.0243162
-0.0399228
0.0262103
0.0663661
-0.0455315
-0.000714398
0.00814145
-0.000102137
-0.00732492
-0.000720063
-0.00142317
-0.000513338
-0.0487503
0.00184329
0.0190593
0.0278477
-0.00338069
0.0130878
0.00777293
-0.01748
0.00133683
0.000343179
-0.00197511
-0.0829068
5.454e-05
-1.00268e-06
0.0828532
0.00469533
-0.00800469
0.051399
-0.0525898
-0.0655553
0.00249614
0.055661
0.00739819
0.00200667
0.0174394
-0.0707992
0.0513531
-0.0757293
0.0213779
0.00213238
-0.00211919
0.000913338
-0.00106319
-0.00149066
0.00229651
-0.00144207
5.89035e-05
-0.00581504
0.0186156
-0.0111017
0.0217774
-0.0292913
0.035689
-0.0153603
0.0127416
0.013731
-0.0375743
0.0740882
-0.00481007
0.00423396
-0.0735121
-0.0498125
0.0636253
-0.0354274
0.0472081
-0.0471221
0.0569741
-0.0169572
-0.0960564
0.0709493
-0.00240892
0.0123946
0.0610679
0.0346375
-0.00342701
0.0684459
0.0488294
-0.0466072
0.0342922
0.012315
-0.0624063
-0.0627857
0.031951
0.0548779
0.0153061
-0.0547633
0.105107
-0.066172
-0.118677
0.0674086
-0.0342383
0.0250235
0.0449744
-0.00268069
0.138247
-0.0416637
-0.0939031
0.0238914
0.0180361
-0.0419275
-0.068755
0.0626562
0.0907181
-0.0846193
0.0543125
0.0391606
-0.0928998
-0.000573308
-0.0154196
0.0210501
-0.0308855
0.0238671
-0.0140317
0.0612482
-0.0863876
-0.110844
-0.0235346
-0.0227767
0.053207
-0.0940865
0.0135934
0.0142799
0.0791001
0.0496935
0.0382055
-0.0334154
-0.0544836
0.0381907
-0.0362703
-0.00590347
0.00398308
0.00243107
-0.0594431
0.0341218
0.0228902
-0.0116919
0.0119088
-0.00298146
-0.00640903
-0.148598
0.15034
-0.0131727
0.0458242
-0.0937863
0.0912823
-0.0130175
0.00432592
0.000891073
0.00780047
0.0284156
0.00503604
0.00988806
-0.0433397
0.00201994
0.00372934
0.0512632
-0.0557325
0.123324
-0.118854
-0.0109572
-0.0276212
0.00184259
0.0367357
-0.0170493
0.126706
-0.0628476
0.0300019
-0.0413034
0.060995
0.00187963
0.0583671
0.0596108
-0.0577312
0.0372992
0.0388833
0.0339906
0.0407985
-0.016422
0.0438779
-0.0536718
0.000246391
0.00954754
-0.0030607
-0.0231467
0.0344037
0.0450453
-0.0296631
-0.00529678
0.0301246
0.00444076
-0.0421052
-0.00287251
0.0136894
-0.000920965
-0.0405428
-0.000641362
-0.0389873
-0.00497712
0.00856372
-0.0393033
0.00181304
-0.00149704
-0.000821368
0.00143202
-0.0357138
-0.0864033
0.0081547
-0.0500937
-0.0776283
0.0259987
-3.95053e-05
0.00192876
-0.00483841
-0.00372654
0.000540521
-0.00413986
0.00148812
-0.00216239
0.00345875
-0.00168805
0.000391689
-0.0163728
-0.00329171
0.0160623
0.00360226
0.00394495
0.00216301
-0.00527264
-0.000835321
0.0100071
-0.00466591
-0.0335695
-0.0594501
0.0721897
0.0761089
-0.0606015
0.0543482
-0.024718
-0.0296303
0.00155074
-0.00122807
-0.00446254
-0.000739734
0.0452511
-0.0389069
-0.00560439
-0.0116308
0.0183575
-0.0935437
0.0868169
-0.00345271
-0.0197709
0.0224839
0.033853
-0.0536368
0.0267417
-0.00663448
-0.0208521
-0.00130964
0.0550875
-0.0654621
-0.0624071
0.0727817
-0.0197898
0.00141287
-0.00171375
-0.0360497
-0.0605984
0.0599341
0.0158226
-0.00294443
0.0446937
-0.00295371
0.00957142
0.0122629
-0.0110849
-0.0209678
-0.00277544
0.0162289
-0.00374674
-0.0224526
-0.0242025
0.0121114
0.00103016
-0.00492618
0.0453064
-0.0227948
-0.0113448
0.00884754
0.000319259
-0.00295274
-0.000291127
0.00292461
-0.00495074
0.00332887
0.00238729
-0.151947
0.0287519
0.0371187
-0.0347793
0.00266178
0.0319851
-0.0556797
-0.0192561
0.0429507
0.0591716
-0.0314112
0.000303206
-0.103992
0.103688
0.0497694
-0.0106907
-5.55737e-05
-0.00298015
0.00236108
-0.00964181
0.0102609
-0.000186414
-0.00188392
-0.0111248
0.00115527
-0.00605251
-0.00149561
-0.00715658
0.00396061
0.00653372
-0.00333775
0.00811688
0.0316466
-0.0403082
0.00054469
-0.0126548
0.0131923
-0.0551972
0.00421123
0.00697612
-0.00280475
0.00537096
-0.00072889
0.000344724
-0.0400534
0.0297902
0.00956187
0.00363342
-0.00258344
0.00391384
-0.00629747
-0.013823
0.000366724
-0.044333
0.0164401
-0.0110913
-0.0187206
0.0133718
-0.0131848
0.000546779
0.0058941
-0.00146057
-0.00608709
-0.00704873
-0.117131
0.117622
0.00020004