/*--------------------------------*- C++ -*----------------------------------*\
| =========                 |                                                 |
| \\      /  F ield         | OpenFOAM: The Open Source CFD Toolbox           |
|  \\    /   O peration     | Version:  2506                                  |
|   \\  /    A nd           | Website:  www.openfoam.com                      |
|    \\/     M anipulation  |                                                 |
\*---------------------------------------------------------------------------*/
FoamFile
{
    version     2.0;
    format      ascii;
    arch        "LSB;label=32;scalar=64";
    class       volVectorField;
    location    "0.0440925";
    object      U;
}
// * * * * * * * * * * * * * * * * * * * * * * * * * * * * * * * * * * * * * //

dimensions      [0 1 -1 0 0 0 0];

internalField   nonuniform List<vector> 
3989
(
(10.0066 0.00883083 0.00415446)
(9.92437 0.0930801 0.0178525)
(9.80227 -0.0658722 0.00831414)
(9.91748 -0.116706 0.00336475)
(9.71858 0.751762 0.110665)
(9.98403 0.0870252 0.000798379)
(10.0033 0.00336319 0.00473031)
(9.72944 -0.0711299 -0.0291985)
(10.0018 0.0166705 0.00722603)
(10.5467 0.329326 0.0144149)
(9.98408 0.0135183 0.00510991)
(9.99702 0.0367606 0.00210058)
(10.1577 0.0312114 0.0195892)
(10.0073 0.0101324 -0.00681858)
(10.0023 -0.0216995 -0.0074976)
(9.07364 0.541611 0.377324)
(9.99883 -0.00397423 0.00140803)
(10.2007 0.278602 0.0478795)
(10.0097 0.0296381 -0.00666141)
(9.80866 0.377879 0.0202259)
(9.98092 0.00916582 0.00123087)
(10.0704 0.0234252 -0.0288418)
(10.2435 0.180578 0.0615994)
(10.264 0.0765962 -0.0153511)
(9.89886 0.106023 0.0541019)
(10.089 -0.100137 0.0412101)
(10.3205 0.194348 -0.0150381)
(10.0007 0.00270625 0.00582595)
(10.0059 0.0530087 0.0106956)
(10.0069 0.00376774 -0.00694682)
(9.9937 -0.00957302 0.000481478)
(10.5005 0.0395934 -0.0608542)
(10.1657 0.220425 0.0198389)
(10.0059 0.00525621 0.00536045)
(10.4779 0.0106457 -0.0284513)
(9.97712 -0.0103999 0.00414716)
(10.0113 0.0170074 -0.00460357)
(10.1575 0.274481 0.0343102)
(10.0087 0.0254482 -0.00144754)
(10.0385 -0.00846587 -0.00672427)
(10.1999 0.0663042 -0.026773)
(10.0013 -0.00698523 0.000502167)
(9.99805 0.00224523 0.00421674)
(10.0033 0.00079712 0.00727237)
(10.0335 0.125711 -0.0143907)
(10.0008 0.014869 -0.00467969)
(10.0074 0.0471649 -0.00379307)
(9.9887 -0.0034392 0.0107967)
(10.0015 -0.00275399 0.000537361)
(9.94463 0.182059 -0.027718)
(10.4513 0.352576 0.0693215)
(10.006 -0.00493047 0.0130028)
(10.005 -0.00643731 0.00993637)
(10.003 0.00365051 0.00650857)
(9.86053 0.114906 0.0212662)
(10.0111 0.00240123 -0.00634319)
(9.99404 0.0081141 -0.00414872)
(10.1987 0.081101 -0.0178522)
(10.17 0.0281421 0.0191475)
(10.2181 0.0773911 -0.0303591)
(10.1784 0.0755249 -0.00103928)
(10.0907 0.0142611 0.0363453)
(5.85163 1.22251 -4.9656)
(1.40923 1.75495 -3.3093)
(9.20077 0.817549 0.134824)
(10.0029 -0.00150903 -0.00212544)
(10.0857 -0.136103 -0.0041058)
(9.99344 0.15715 0.0455522)
(10.1409 0.124217 -0.056415)
(10.014 0.210491 -0.0223153)
(9.96599 -0.00347293 0.00790601)
(9.92089 0.149036 -0.0247531)
(10.0454 0.248206 0.035896)
(10.0537 0.272168 0.0361742)
(9.89596 0.258024 -0.0225638)
(9.65194 0.383935 -0.133034)
(10.028 0.236284 0.0279386)
(10.0922 0.228142 0.0263577)
(9.93129 0.242043 0.0111898)
(10.0242 0.190609 0.0359295)
(9.95484 0.189729 0.0204354)
(10.0047 0.0263998 -0.0045968)
(10.0714 -0.127302 0.0012094)
(10.1881 0.686716 -0.112244)
(10.0678 0.91247 -0.0801154)
(9.97949 -0.00236157 0.00751042)
(10.061 0.802688 -0.0595926)
(10.0036 0.00561977 0.00389461)
(9.7728 -0.0586311 -0.0176443)
(10.012 0.00170495 0.00477042)
(10.0404 0.813307 -0.114373)
(10.01 0.0227838 -0.00163075)
(10.0033 0.0186944 0.00422473)
(10.1643 0.187472 0.0519709)
(10.0069 -0.00261787 0.00470411)
(10.2979 1.07794 -0.335067)
(10.3829 0.813942 -0.261578)
(9.98024 -0.0464197 0.0415719)
(10.2866 0.954033 -0.261973)
(10.6393 0.709405 -0.285524)
(10.0081 -0.0102099 0.0069772)
(9.99899 -0.00861252 0.00406488)
(9.99918 -0.00417771 0.00706954)
(9.98284 -0.00600446 0.000866913)
(10.4586 0.318689 0.0155413)
(9.99928 0.0021444 -0.000130548)
(10.1325 0.0927332 -0.0388706)
(10.003 -0.00999923 -0.000478381)
(10.0066 -0.00620546 0.0081947)
(10.3879 0.285798 0.0078992)
(10.1806 0.0393378 -0.0179908)
(9.99963 -0.010964 -0.00207793)
(9.76297 1.40808 -0.534712)
(9.83857 1.49118 -0.5961)
(10.0092 0.0230778 -0.0250836)
(10.0532 1.28798 -0.818856)
(9.93126 1.16839 -0.565068)
(10.1327 0.0354182 -0.0168546)
(10.007 0.0100267 0.00619877)
(9.98881 0.00499578 0.00210982)
(10.0579 0.122804 -0.0216169)
(10.0048 0.0112951 0.00549811)
(10.0241 0.0566821 -0.0267223)
(9.99856 0.00520206 -0.00329797)
(9.32122 0.65296 0.878291)
(9.83906 0.120735 0.0299152)
(9.99739 -0.00351143 0.00263113)
(10.0577 0.246693 0.0790512)
(9.97488 -0.00514145 -0.00317663)
(10.3284 0.360395 -0.061638)
(10.2932 0.179117 -0.015928)
(9.97984 -0.0113319 0.00693873)
(10.1152 0.069996 -0.0406468)
(9.97717 0.0103741 -0.00471374)
(9.98501 0.00445251 -0.000887093)
(10.0582 0.0199749 0.0154233)
(10.0002 -0.00516742 -0.00647162)
(10.0031 -0.000434927 -0.00651446)
(9.99974 0.000235185 -0.00640605)
(9.98787 0.0130242 0.00627436)
(9.98436 0.0107499 -0.00388289)
(9.97695 0.0465542 -0.000478758)
(10.2726 0.503546 0.0576288)
(10.0019 0.00417133 0.0023052)
(10.0017 -0.00454397 -0.00191274)
(10.5281 0.337305 0.0175489)
(9.99654 -0.016968 0.00765069)
(10.7114 0.626824 -0.220597)
(10.0212 0.0652845 0.0101328)
(9.79054 0.205884 0.0355112)
(9.46901 -0.0291324 0.122294)
(10.425 0.0432656 -0.0528605)
(10.4712 0.0366759 -0.0504661)
(10.3831 0.0396783 -0.0474584)
(10.4487 -0.0015824 -0.0515897)
(10.4106 0.0175465 -0.0393912)
(9.67921 -0.0456608 0.000395278)
(10.4246 0.0696494 0.0188429)
(10.0067 0.0279448 -0.00420282)
(9.98362 -0.00238254 0.0019136)
(10.0024 0.000680212 0.0050729)
(9.60269 0.397396 0.0815389)
(10.0052 0.0117682 -0.00710714)
(9.98916 0.0111374 -0.00286306)
(9.98864 0.017436 -0.00669547)
(9.42903 1.12657 0.547837)
(10.3333 0.513859 -0.0678734)
(9.99911 -0.00839652 0.00484521)
(9.5434 0.888635 -0.259522)
(10.1815 0.551735 -0.361462)
(9.61653 0.0946398 0.319509)
(9.97959 0.023582 0.0181416)
(10.0232 0.0289942 0.0283512)
(10.2698 0.306197 0.101417)
(9.88944 0.108475 0.00976232)
(9.90745 -0.0990661 0.00339894)
(9.99536 -0.00339757 -6.12066e-05)
(10.0945 0.0912647 -0.0379288)
(10.49 0.0322007 -0.0345224)
(10.3071 0.385518 -0.0807139)
(10.1989 0.0885669 -0.0384144)
(10.3522 0.604315 0.154825)
(10.0176 0.00117791 0.0198955)
(10.4181 0.895878 0.26948)
(10.0446 0.0274069 0.0314831)
(10.1504 0.0743465 0.00504164)
(9.76557 0.637129 -0.933556)
(10.1424 0.0694799 -0.00228858)
(9.99269 -0.0326855 0.0209511)
(10.004 -0.00433478 0.00630266)
(9.85137 0.433055 0.130103)
(10.012 0.907112 -0.566281)
(10.1721 0.0528368 -0.0397194)
(10.0254 0.0155369 0.0307181)
(9.87248 -0.17626 0.00474213)
(10.0376 0.00431688 0.031097)
(0.66109 1.45775 -5.1012)
(8.90953 0.735779 0.484126)
(9.6504 0.721173 -0.462231)
(10.0902 0.57313 0.037316)
(10.1888 0.0407072 -0.0112882)
(10.0036 0.00943465 -0.00885131)
(9.97391 0.0168468 -0.00583238)
(10.0097 0.0329157 -0.00206715)
(9.98241 0.00923796 0.000793805)
(10.0153 0.0153005 -0.00628106)
(10.0156 -0.00877034 0.00876684)
(10.0069 -0.00788663 -0.00550372)
(8.6545 1.4803 -1.58174)
(8.72069 1.50991 -1.9017)
(10.02 -0.0112213 0.00556936)
(9.01039 1.65866 -2.67755)
(7.94811 1.40977 -2.1193)
(9.68857 -0.0945629 0.112321)
(10.3537 0.0484445 -0.000459567)
(13.2089 1.21414 -3.23834)
(8.27204 1.45444 -2.28802)
(9.95725 -0.0379469 0.02728)
(10.0164 -0.0320469 0.000179012)
(9.96467 -0.0132023 0.0147303)
(9.8815 0.471144 0.106857)
(10.0506 0.47495 0.131922)
(10.001 0.0207194 -0.00329781)
(9.65962 0.907911 -0.650412)
(9.97799 0.00906596 -0.00302441)
(9.98491 0.0993269 -0.000565452)
(9.88556 0.133724 0.0392522)
(9.60757 0.829254 -0.454886)
(9.97157 0.0671886 -0.0165948)
(10.048 0.136604 0.030034)
(10.1484 0.096256 -0.0212142)
(10.14 0.0696382 -0.0337532)
(10.1949 0.0758055 -0.00315873)
(10.244 0.118077 0.0144039)
(10.003 0.00913877 0.000625142)
(9.95131 -0.00163329 0.00710553)
(9.9556 -0.0219867 0.0123563)
(10.0191 0.00805603 0.003834)
(10.0197 0.0510228 -0.00733935)
(10.3781 0.0786697 0.0293948)
(9.28488 0.817788 0.429235)
(10.0064 0.00225697 -0.00761503)
(10.0026 -0.0053694 -0.0069139)
(9.97737 -0.000155458 0.00144242)
(9.99064 0.00164049 -0.00152103)
(9.49837 1.00093 0.13423)
(9.98621 0.0127425 0.00410546)
(9.99831 0.0305131 -0.000794201)
(10.0138 0.0246998 -0.0079853)
(10.0147 0.0326127 -0.0220026)
(9.97924 0.0220501 0.000525002)
(9.72443 0.789212 -0.0614924)
(10.0073 0.0169553 0.00364067)
(10.0016 0.00938711 0.00861929)
(9.98929 0.00716869 0.00479147)
(10.0079 0.0157008 0.00109901)
(9.98882 0.0167282 -0.00786765)
(10.0111 0.0716391 0.00596661)
(9.71702 0.207681 0.00392751)
(9.94124 -0.0708229 -0.0334597)
(9.81049 0.12262 0.00269856)
(10.1956 0.115123 0.00852606)
(10.0735 0.074918 -0.047898)
(10.3797 0.193879 0.0481446)
(9.95385 0.299411 -0.0255493)
(10.0733 0.145568 0.0320495)
(9.7109 -0.257759 0.0193874)
(7.8401 1.24726 -1.49061)
(10.1156 0.0876646 -0.029891)
(10.1075 0.0921012 -0.0168578)
(10.0707 0.0170051 0.0783431)
(9.98122 -0.00270483 -0.00596372)
(9.98702 -0.00566744 -0.00292194)
(10.3342 0.577192 -0.151787)
(10.0167 0.00084535 0.0119278)
(10.0249 0.451191 -0.149093)
(9.99953 -0.00390937 0.0247536)
(10.0084 0.0146626 0.0218218)
(9.86566 -0.122362 0.01736)
(10.4286 0.565554 -0.115201)
(10.0117 -0.0195737 0.0161239)
(10.2295 0.105198 -0.0607687)
(10.2125 0.0765438 -0.025489)
(10.2709 0.0834076 -0.0388026)
(10.0755 0.342748 0.0206434)
(10.1007 0.343443 0.0191281)
(10.2427 0.0471203 -0.0196261)
(10.1974 0.0343371 0.0141056)
(10.1688 0.0322379 -0.00648943)
(10.1799 0.0558987 -0.0331286)
(9.98776 -0.0113024 -0.00463644)
(9.98895 -0.0169764 -0.00954728)
(10.0851 0.000523962 0.00962888)
(9.7952 0.290908 0.108383)
(9.98339 0.0190405 -0.0383459)
(9.96941 0.0439167 -0.0319035)
(9.98862 0.0928071 0.0210499)
(9.94798 0.0924302 -0.0179204)
(6.81725 1.4572 -3.04363)
(7.85595 1.03534 -2.37609)
(9.81509 0.0801396 -0.0219884)
(9.96425 0.0275181 -0.00818612)
(9.98 0.0125646 0.00257766)
(9.23927 0.713493 -1.62187)
(9.97868 0.0219435 -0.00570816)
(7.45558 1.03119 -1.31653)
(10.257 0.123534 0.0504983)
(10.0001 0.0422841 0.00807144)
(10.0103 0.0177091 0.00167324)
(10.0052 0.0079287 -0.00638763)
(9.50184 -0.143502 0.116982)
(10.4183 0.561127 0.0693245)
(6.95116 0.9946 -1.29662)
(6.34042 1.17259 -1.72359)
(10.0034 -0.00394102 -0.00841586)
(9.98449 -0.00329081 -0.000618222)
(10.2216 0.753135 0.0708613)
(9.98255 0.239422 0.0290657)
(10.4258 0.192347 0.0463977)
(9.89184 0.344376 0.0562226)
(10.577 0.234484 0.0387663)
(10.1134 0.163345 0.014688)
(10.084 0.344166 -0.0129654)
(10.0629 0.626189 0.222258)
(10.3462 0.299105 0.0111174)
(10.0506 1.04599 -1.55336)
(10.0747 0.00289643 0.0126953)
(9.99372 0.246443 0.000227871)
(10.056 0.330505 0.0286432)
(10.2377 0.0778614 -0.0345407)
(10.3109 0.518906 0.136419)
(9.91818 0.261305 -0.0113733)
(8.09975 0.524893 -0.219344)
(9.95021 0.0993855 0.00659321)
(10.0411 0.875315 0.0979863)
(10.2748 0.379481 -0.0805464)
(9.91647 0.280822 -0.0468002)
(10.1254 0.130416 0.0386004)
(9.98854 -0.00153011 0.00714241)
(10.0068 -0.00421161 0.0092582)
(7.39574 0.811347 -2.13829)
(9.89347 0.151723 -0.00330232)
(10.2221 0.413745 -0.0778168)
(9.85048 0.184107 0.00337146)
(10.3971 0.703014 0.0414138)
(9.39746 1.08191 -0.790795)
(9.03662 0.847802 -5.40359)
(10.001 -0.0020167 0.00268046)
(10.5554 0.316004 0.0836991)
(10.0271 0.67671 0.468262)
(10.1391 0.389039 0.0518841)
(9.76658 0.167923 0.00991559)
(9.73948 0.166298 -0.00137973)
(10.1279 0.290566 0.0441154)
(9.82156 0.499986 0.199325)
(10.0266 0.077023 -0.0223592)
(9.87648 0.12416 0.00361799)
(9.92958 0.123704 -0.0762214)
(7.87939 0.41709 -7.82094)
(10.0109 0.0433636 -0.0100345)
(10.4702 0.0707195 -0.00591072)
(9.81589 0.114043 0.0147365)
(9.95786 0.0595993 -0.016672)
(9.19332 1.7383 -5.70295)
(9.99803 0.808994 -3.02892)
(9.92619 0.113504 -0.0162779)
(9.94439 0.110093 0.0367151)
(9.98843 0.461081 -0.0611015)
(10.0819 0.0779373 -0.00972974)
(10.019 0.0395745 -0.0343493)
(9.81974 0.171874 -0.020367)
(9.84713 0.597109 -0.366747)
(10.4998 -0.00810972 -0.0179494)
(9.862 1.06354 -0.0309193)
(9.88466 0.252153 0.0455218)
(9.94806 0.510096 0.0615887)
(10.5009 0.160139 0.0335112)
(9.96534 -0.00879092 -0.017536)
(10.5149 0.484257 0.0932159)
(10.4012 0.216162 0.0170487)
(9.98645 0.00882042 -0.00616073)
(10.0039 0.0108 -0.00813902)
(10.0099 0.0121603 -0.0072847)
(9.99037 -0.02029 0.00187516)
(10.0157 0.0101765 -0.0114787)
(10.2206 0.588287 0.119585)
(10.0412 0.0176298 -0.0258389)
(9.98292 -0.00991297 0.00246777)
(10.0385 -0.00364787 -0.0129489)
(10.0659 0.0566246 -0.0114314)
(9.972 0.0502885 -0.0377972)
(9.8715 0.257643 -0.019346)
(10.0009 0.030239 0.0041116)
(9.98151 -0.0115591 0.0134145)
(10.0487 0.0337397 -0.022584)
(9.6848 0.0938442 -0.0344691)
(10.0009 -0.00552988 -0.00234175)
(9.97937 -0.0060187 0.00604099)
(9.24326 0.769353 -1.35748)
(10.0626 0.554711 0.222995)
(9.98088 -0.00139946 -0.0478814)
(10.0035 0.0103277 -0.0382368)
(10.0065 -0.00298518 0.00158992)
(9.98817 -0.00145421 -0.00205965)
(10.0171 0.00100186 -0.00126637)
(9.80124 0.179185 0.0207334)
(9.61724 -0.150021 -0.125067)
(11.9367 0.828322 -3.02599)
(9.69534 0.00887214 0.174663)
(9.3185 1.23949 -1.50676)
(10.3512 0.202057 0.0453479)
(10.9678 1.03689 -2.28427)
(8.82939 0.89361 0.0627423)
(1.61342 1.28079 -4.13572)
(10.1304 0.426641 -0.0333752)
(8.37583 1.46991 -3.24402)
(9.49519 0.787499 0.358753)
(9.72352 0.933092 0.0387184)
(9.65506 0.810098 -0.499123)
(10.2599 0.566547 0.256282)
(3.18518 1.36203 -5.18354)
(9.95728 -0.0300381 -0.0102124)
(9.93894 -0.0191424 0.00594617)
(0.413549 1.58499 -6.07343)
(9.69649 0.0361457 0.0766824)
(9.84237 0.085617 0.0373742)
(9.71093 0.359621 -0.0144541)
(6.07701 1.35645 -2.91195)
(9.8686 0.821236 -1.22233)
(9.28367 0.581111 -0.45402)
(9.79682 0.124014 -0.0124604)
(9.8079 0.104291 -0.0454047)
(10.0776 0.265652 0.0546141)
(10.363 0.212409 0.0321464)
(10.0921 1.35264 -5.16928)
(9.56749 0.617746 -0.206444)
(10.0035 0.00986753 0.00994165)
(9.98968 0.0130821 0.00261467)
(9.82991 0.809407 0.440512)
(9.80765 0.197672 0.0406993)
(9.58648 0.561794 0.410961)
(8.7832 1.14208 -0.0495933)
(9.19316 0.897819 -0.406354)
(9.98378 -0.00962489 0.0032311)
(10.0074 -0.00971273 0.00647647)
(9.98764 0.561363 -0.0136264)
(10.006 -0.00888942 0.00613863)
(10.0812 0.0978478 0.0537323)
(9.97923 -0.00713387 -0.000366508)
(10.0026 -0.0090837 0.00219327)
(10.0164 0.540627 -0.752434)
(9.91497 0.0918512 0.00865093)
(9.85598 0.0309994 -0.0194762)
(9.55284 -0.0472003 0.109028)
(7.75102 0.90866 0.31962)
(9.88666 -0.0868253 0.0230598)
(9.98656 -0.00425908 -0.00061725)
(10.0007 -0.00707577 0.00533562)
(9.5388 0.127459 0.0530101)
(9.72565 -0.176453 0.0048218)
(9.91036 0.498065 0.545935)
(10.0006 0.000383147 0.00844742)
(9.97003 -0.00146691 0.00218413)
(9.99213 0.000164838 0.00492735)
(9.98224 -0.00164504 0.00221138)
(9.99986 0.00375471 0.0075282)
(10.3178 0.0687054 0.0304401)
(10.2475 0.0561522 0.0466864)
(9.96093 0.0097927 -0.00226313)
(10.0141 0.00928608 -0.00726855)
(9.99408 0.00467322 -0.00406085)
(9.97891 0.00574916 -0.0018823)
(10.0076 0.00640208 -0.0108587)
(9.98151 0.00886634 -0.00564292)
(9.81739 0.365234 -0.0759622)
(10.0054 0.0124639 -0.00808258)
(10.2632 0.11927 0.0114525)
(10.1557 0.0480609 0.0232504)
(10.1635 0.0534987 -0.00890748)
(10.2201 0.0709179 0.0252458)
(9.98194 0.00743394 0.00265702)
(10.0683 0.196322 -0.0308017)
(10.0133 0.0199339 -0.000331271)
(9.94232 0.118228 -0.0579674)
(9.48889 0.227227 0.0973327)
(9.99933 0.000951532 0.0031718)
(10.007 0.0263474 -0.00617978)
(9.98034 0.0160342 0.000604349)
(9.877 0.0832698 0.00644648)
(9.63144 0.0606253 0.111242)
(10.3519 0.121377 -0.00101049)
(9.70116 -0.0469019 0.0364466)
(9.9569 0.0877054 0.0163093)
(9.97364 -0.0805942 0.018211)
(9.99953 -0.00288827 -0.01491)
(9.97147 0.011657 0.0471304)
(9.74306 0.450927 0.33593)
(9.77478 0.300183 -0.0642394)
(9.90365 0.231807 0.0265362)
(10.0813 -0.104831 0.0266406)
(9.95339 -0.0433022 -0.0473536)
(10.0298 0.00714202 -0.0244438)
(9.94825 0.0034007 0.00374433)
(9.84845 0.254101 0.0702609)
(9.78618 0.0459635 0.00269404)
(9.97497 -0.0101167 0.00105454)
(10.0695 0.0142831 -0.0157763)
(9.94657 0.0339827 -0.000351235)
(10.0004 -0.0193483 -0.0210679)
(10.0908 0.0210155 -0.0247013)
(9.79333 -0.256874 0.154383)
(10.0357 0.0188722 0.0224334)
(10.084 0.0784853 -0.00781128)
(9.95547 -0.104932 0.00606491)
(9.87299 0.153601 -0.00264091)
(9.92275 -0.0142144 -0.00256545)
(9.97381 0.00456106 -0.0194932)
(10.4897 0.170861 0.0200212)
(10.316 0.00712153 -0.04016)
(10.4717 0.144876 -0.00152932)
(10.4286 0.121817 -0.00495974)
(10.4299 0.0489749 -0.0234193)
(9.9624 -0.0089915 0.0102303)
(10.2338 1.12443 -0.146552)
(10.53 -0.000509994 -0.0496737)
(10.6488 0.339897 0.0681951)
(10.2432 0.702614 -0.016099)
(10.0355 0.0987246 0.000122726)
(10.1689 0.386802 0.112485)
(10.3847 0.403795 0.0620993)
(10.0681 1.23062 -0.604832)
(10.1752 0.374374 -0.0371039)
(10.2499 -0.00143685 -0.0177946)
(9.69386 0.390463 -0.0212726)
(9.82032 0.469235 -0.180448)
(10.4109 0.453281 -0.0561077)
(9.31379 0.725241 -0.837374)
(10.3902 0.0410078 -0.0300802)
(10.3579 0.0315602 -0.0527683)
(10.0841 0.0935157 -0.020492)
(9.99094 -0.0142947 0.00616633)
(10.0661 0.0180175 0.033894)
(9.98593 0.0193695 0.005784)
(5.57148 2.2472 -1.37187)
(1.35008 0.921226 -1.21971)
(9.953 0.681218 0.277413)
(9.61814 0.902248 0.39665)
(9.56762 0.706266 -0.276668)
(10.0631 0.0862843 -0.0256709)
(9.90038 -0.00511067 -0.0114642)
(9.40719 -0.182322 0.175425)
(9.99902 -0.0342043 -0.00168244)
(9.85339 0.260345 0.0208878)
(10.0937 0.503026 0.0957313)
(10.0917 0.577297 0.226366)
(10.1302 0.631264 0.428318)
(9.72335 -0.060098 0.0144709)
(9.98253 0.445343 0.155706)
(9.82724 0.608589 0.167683)
(10.0376 0.449058 0.0841852)
(10.4631 0.0404986 -0.0483275)
(10.3468 0.441247 0.0279165)
(10.423 0.0323131 -0.0523771)
(9.55139 0.950647 0.522492)
(9.99135 0.385763 0.0556775)
(10.2669 0.242738 0.0448983)
(9.33299 0.888277 0.529367)
(10.0481 1.02717 -0.987624)
(10.0403 0.285411 0.0547946)
(10.3459 0.141707 0.00780949)
(10.3988 0.151029 0.018817)
(10.3773 0.790114 -0.0207043)
(8.75038 0.892619 -0.0721593)
(7.0428 1.22587 -2.70881)
(10.1798 0.376498 0.113623)
(10.6027 0.373526 0.00476643)
(10.609 0.417835 0.0420773)
(9.98209 0.489979 0.187152)
(9.95532 0.357961 0.0107355)
(8.46406 0.651757 0.361239)
(9.74323 0.0497771 0.0596928)
(9.64564 -0.0843977 0.123862)
(10.4111 0.338739 -0.0419518)
(8.45747 1.09902 -1.30481)
(9.13154 1.06914 0.350325)
(9.94273 0.58829 0.120682)
(10.4292 0.0502332 -0.0366043)
(10.5491 0.388716 0.083882)
(9.48588 0.289842 -0.103201)
(9.93038 0.410056 -0.0237713)
(9.94647 -0.111361 0.00435251)
(10.4451 0.741148 0.225775)
(10.0748 0.282119 0.0378836)
(0.0753668 0.836566 -4.16244)
(3.10223 1.19137 -4.93626)
(10.2625 0.509301 -0.000879165)
(10.0017 -0.00308091 -0.00126417)
(10.0556 -0.107938 0.016965)
(9.97906 -0.0250065 0.0173755)
(10.0078 -0.0307543 0.00596855)
(9.92393 -0.0962132 -0.0224714)
(9.95969 -0.0476852 0.0175863)
(10.1263 0.183313 0.0150628)
(10.0463 0.0107288 0.0389457)
(10.2797 0.13126 0.00786575)
(9.99153 -0.0142844 0.00455476)
(9.84074 0.398765 0.0953043)
(9.89906 0.203258 -0.0437577)
(10.1818 0.581037 0.213114)
(10.0005 -0.00278735 -0.00121124)
(10.1168 0.0882872 -0.0193471)
(9.84024 0.248825 -0.0179252)
(9.99733 0.0121918 0.00295266)
(10.4746 0.535563 0.0175066)
(9.98106 -0.0256639 -0.00521331)
(10.6973 0.350961 0.0478193)
(10.0152 0.0757396 -0.0163732)
(10.0971 0.161906 0.00645364)
(9.94819 -0.0251953 -0.0263502)
(10.0639 0.182804 -0.00866698)
(10.0393 0.224881 -0.0110235)
(10.4361 0.265868 -0.00707784)
(10.3893 0.0134674 -0.0597322)
(10.0191 0.0546127 0.00809469)
(9.61783 -0.0665664 -0.0524931)
(10.0053 0.325784 0.0318144)
(9.96506 0.637909 0.232667)
(9.9851 -0.0143144 -0.0350269)
(10.0029 0.00130005 -0.00227117)
(9.97 0.0113714 0.00286087)
(9.93164 0.0496128 -0.027341)
(9.99841 0.0086608 0.00440517)
(9.99939 0.0188643 -0.0160075)
(10.0368 0.0343607 -0.0220747)
(9.99931 0.00427622 0.00525812)
(10.0076 -0.00497695 0.010786)
(9.99938 0.00641375 -0.00280387)
(10.0281 0.067304 0.0360479)
(10.0078 0.0132468 0.00505613)
(10.0009 -0.00191844 -0.00130039)
(10.0559 0.0439319 0.0103756)
(10.0006 0.00236957 0.00230342)
(9.81701 0.148528 0.00247868)
(10.0052 -0.0181868 0.00534751)
(9.96711 0.00723812 0.0102225)
(10.0047 -0.0368278 0.0221805)
(10.0036 0.0105507 -0.00663973)
(9.99918 0.000628484 -0.000990862)
(9.85494 0.0602775 0.00129807)
(9.95452 -0.0723468 0.0780158)
(10.0307 -0.0281984 -0.0165177)
(9.82404 0.156749 0.0323322)
(10.0142 0.00457866 0.00407528)
(9.95387 0.062702 -0.0178543)
(9.9796 -0.0929045 0.029086)
(10.0045 -0.0064765 -0.00815788)
(10.0029 0.0073975 -0.00489952)
(10.0347 0.227937 0.0682645)
(10.0581 0.0110126 0.0338165)
(10.0046 0.0135832 -0.00597056)
(10.0012 0.0398674 0.000446532)
(10.2178 0.0462993 -0.00828162)
(9.83756 -0.0442715 -0.0336983)
(9.92577 0.0460413 0.0217764)
(9.9072 0.0875587 -0.0212018)
(10.0012 0.0249279 -0.00848865)
(9.90796 0.0974852 0.0252126)
(9.93379 0.0774281 0.0110199)
(10.2787 0.398454 0.0737522)
(9.99663 0.326904 0.0328825)
(9.98587 0.104722 0.0353999)
(10.0373 0.0429139 0.0070722)
(10.5891 0.274561 0.000132868)
(10.0663 0.162468 -0.0255626)
(10.0877 0.306896 0.0588422)
(9.97839 0.543733 0.686898)
(10.3862 0.492008 0.00684597)
(9.95302 0.109359 -0.00282288)
(9.90401 0.305529 -0.0323535)
(9.96924 -0.0184375 -0.00834292)
(9.95793 -0.0756252 0.0293858)
(10.3028 0.762133 0.137327)
(10.1852 0.847539 0.169924)
(9.94822 0.639606 0.11012)
(9.8934 0.849011 0.196734)
(9.99676 0.712987 0.182696)
(10.1357 0.855127 -0.33481)
(9.96669 0.0299687 0.0110179)
(10.218 0.929408 0.322909)
(10.1691 1.15173 0.242261)
(10.4525 0.921936 0.194693)
(9.87583 -0.161095 0.0472759)
(10.267 0.908494 0.231208)
(9.96555 -0.0143575 0.000475768)
(10.1661 0.0692171 -0.0296848)
(10.5008 0.304803 0.0772341)
(9.88556 -0.123075 0.0154705)
(10.0142 0.00852023 0.011045)
(10.122 0.070353 -0.0340038)
(10.3022 0.215428 0.0479426)
(10.623 0.279803 0.0214536)
(10.4512 0.578683 0.0926201)
(9.86438 0.212583 -0.0210131)
(10.4724 0.438496 0.0334476)
(10.0671 0.022831 0.000235226)
(10.2621 0.462343 -0.0796457)
(9.99263 -0.0316478 0.0198749)
(9.96319 -0.0218653 0.0177107)
(9.92218 0.210763 -0.0202318)
(10.0989 0.425827 -0.0163651)
(9.99923 -0.00244096 0.000503602)
(9.93297 -0.0194098 0.0304732)
(9.76027 -0.236685 0.0297718)
(9.81049 -0.22656 0.0556004)
(10.0113 0.0291873 -0.00142988)
(9.90078 -0.00401587 -0.0193561)
(9.92005 0.143429 -0.0123667)
(9.79009 0.426851 -0.13859)
(10.062 0.0288475 0.0603841)
(10.1329 0.0934857 -0.0416228)
(9.9514 -0.0279108 0.0237622)
(9.91699 -0.0458812 0.027991)
(10.0039 -0.0249605 -0.000614351)
(10.0504 0.125993 -0.0201993)
(10.0922 0.210886 0.0155977)
(10.0589 0.0918298 0.0118936)
(9.74976 0.231566 0.11139)
(9.24349 0.584871 0.0479875)
(9.93275 0.24438 -0.0202348)
(9.93667 -0.0109131 0.024357)
(9.90736 -0.0283962 0.0173523)
(9.87309 -0.0499863 -0.0255302)
(9.8397 -0.0514377 -0.00518248)
(9.85986 -0.0887989 -0.00580796)
(9.78942 -0.231512 0.0693206)
(10.2339 0.692012 0.173262)
(10.7911 0.771369 -0.745554)
(10.3598 0.524139 -0.475083)
(9.81215 -0.207008 0.0670215)
(9.82915 0.159484 0.0166501)
(9.87109 -0.144206 0.0166035)
(9.80732 0.0447993 0.0225338)
(9.98305 0.0186897 -0.00351513)
(9.02894 0.938566 -0.0918423)
(8.04666 1.26684 -5.12028)
(9.99435 0.31113 0.0286321)
(10.3746 0.762973 -0.413396)
(5.9418 1.56666 -3.37755)
(10.3372 0.0303642 0.00788553)
(8.34997 0.545594 -0.26633)
(9.83544 0.175198 0.0106641)
(9.85548 0.178494 -0.0221827)
(10.2251 0.0643147 -0.0597566)
(10.1913 0.0610631 -0.049283)
(8.37072 1.52927 -5.51548)
(5.58223 1.58966 -7.30829)
(2.95624 1.84162 -10.1553)
(10.1683 0.0646181 -0.0486426)
(9.81214 -0.113514 -0.0123219)
(9.77912 -0.0894135 -0.0169539)
(9.83072 -0.103939 0.00921179)
(9.92705 0.042805 -0.028435)
(9.79437 -0.0604016 0.0187193)
(10.0003 -0.00524045 -0.000959871)
(10.0006 0.0135563 0.00407782)
(10.0012 0.00430216 -0.00152877)
(9.91111 0.255375 -0.0121336)
(10.0197 0.0482221 0.00903813)
(9.97531 0.181793 -0.0152303)
(10.004 0.00746207 -0.00692187)
(9.99116 0.00794429 0.0037521)
(9.95046 -0.0102993 0.00329715)
(9.99176 0.0449731 0.016061)
(9.9255 0.205401 -0.0252545)
(10.0053 0.0611293 -0.0541813)
(9.96263 0.0933457 -0.0116651)
(9.79861 0.131136 -0.057132)
(9.89632 0.106952 0.0338183)
(9.98736 0.00989165 -0.00487508)
(10.0039 0.00101255 0.00472707)
(10.3547 0.357822 0.0958044)
(10.0394 0.000838352 -0.00829596)
(10.0013 0.00325306 0.00147129)
(10.357 0.0671238 0.00719408)
(10.3615 0.0267413 -0.0461052)
(9.81381 0.191196 0.0247094)
(9.85931 0.115938 0.00758135)
(9.87664 -0.154765 0.0421472)
(9.59871 -0.14399 0.212775)
(9.88916 1.42884 -0.505985)
(10.2179 0.0864701 -0.0294992)
(10.4177 0.164526 0.0357704)
(10.1397 0.20969 0.0264387)
(8.68497 0.747924 0.384521)
(9.59952 -0.0797431 0.0255303)
(9.51706 -0.0860318 0.0598874)
(10.1892 0.154661 -0.0500059)
(9.58098 0.358069 0.111335)
(10.0034 1.67029e-05 -0.00428236)
(9.80706 0.202502 0.0285528)
(10.3276 0.193467 -0.0344077)
(10.3068 0.121894 -0.0318921)
(10.3571 0.1073 -0.0398324)
(10.3891 0.205431 -0.0143847)
(9.85693 -0.222833 0.06717)
(9.79633 -0.0167846 0.00801608)
(9.86052 -0.112575 -0.00116277)
(9.86673 -0.00559999 -0.00483607)
(9.7204 -0.0177523 -0.0876789)
(9.74999 0.00179859 -0.0703448)
(9.72052 0.0516255 -0.0744406)
(9.74158 0.06461 -0.0494975)
(9.52131 -0.224969 0.0257022)
(10.0075 0.0225872 -0.00439669)
(10.0089 0.0569304 0.00685921)
(8.88166 0.536742 -2.02311)
(7.6558 0.789332 -1.98603)
(7.67151 0.787358 -1.6029)
(8.34875 0.792775 -2.1782)
(9.33578 0.699488 -0.0423934)
(9.94449 1.00415 -0.440453)
(10.0084 0.230529 0.00224961)
(10.0352 0.0346642 0.00640863)
(9.92364 0.0272676 0.0366559)
(10.0485 0.0637999 -0.0233425)
(7.89476 0.741263 -1.42634)
(9.99569 0.47922 -0.248304)
(9.88235 0.216555 -0.0286119)
(9.80353 0.461395 -0.432732)
(10.0286 0.309407 0.0655871)
(10.5321 0.460226 0.152011)
(10.185 0.482953 0.0561393)
(10.2638 0.193432 0.0504031)
(10.4191 0.546917 0.176441)
(10.3046 0.0309113 0.00327958)
(10.3471 0.539309 0.130539)
(10.4558 0.0432775 -0.0598917)
(10.3543 0.554467 0.188288)
(10.0622 0.683573 0.0352152)
(9.83761 0.340924 -0.0660352)
(10.1024 0.29049 0.108519)
(9.74259 0.353319 -0.0196499)
(6.09487 1.16677 -0.975262)
(8.22744 0.742573 -2.00175)
(9.95569 0.106715 0.0328293)
(9.98978 0.340589 0.049785)
(10.4592 0.353505 0.0773572)
(9.92177 0.134968 0.00140415)
(10.1419 0.0121199 0.0498666)
(9.48761 -0.0456066 0.190983)
(10.0957 0.773008 -0.216894)
(10.2234 0.928062 -0.237469)
(9.78908 1.35682 -1.4006)
(9.89281 0.778321 -0.826272)
(10.188 0.604072 -0.220578)
(10.4546 0.151363 0.0385787)
(10.4146 0.772309 0.056521)
(10.1035 0.96462 -0.373354)
(10.5179 0.123065 0.0125176)
(8.7229 0.962519 -0.0192439)
(10.2275 0.63932 0.281558)
(9.96848 0.44148 0.123959)
(9.54138 0.642949 0.240687)
(10.316 0.702554 0.0272116)
(10.5429 0.659911 -0.250969)
(10.0519 -0.00112189 -0.0191613)
(10.3441 0.648676 -0.0499311)
(6.89017 1.40402 -5.8078)
(10.614 1.61071 -3.30612)
(10.4446 0.368395 -0.0137893)
(9.96274 -0.00938933 -0.00306953)
(11.2217 0.885771 -2.79211)
(9.85081 0.265109 -0.0203597)
(11.2858 1.1032 -2.13043)
(10.0858 1.00949 -3.46404)
(10.2558 0.600768 -0.0380518)
(10.2859 0.118455 0.00851673)
(10.1604 0.236879 0.0119039)
(10.4716 0.879865 -1.66695)
(8.66332 0.667984 -0.340608)
(9.99276 0.367275 0.0583372)
(12.8254 1.42855 -4.69338)
(10.4128 0.250283 0.0365925)
(10.1957 0.548753 0.211386)
(10.623 1.48968 -4.41563)
(9.97326 0.860594 -1.5175)
(10.3708 0.207268 0.0187057)
(10.3016 0.0402888 -0.000801364)
(10.2524 0.354973 -0.00992346)
(10.1276 0.558325 -0.855431)
(10.3072 0.543784 -0.856915)
(9.75555 0.571341 -0.482109)
(9.7729 0.538447 -0.258204)
(9.82276 0.593853 -0.324364)
(9.86901 0.239961 -0.0334856)
(9.85996 0.26113 -0.108213)
(9.94138 0.111597 0.0105384)
(7.91631 1.09117 -0.499061)
(9.81588 0.150725 -0.0470778)
(9.80527 -0.0436837 -0.045547)
(11.1178 1.51799 -3.26492)
(9.63331 -0.0289352 0.07859)
(10.7386 1.25807 -2.46065)
(9.80828 0.236245 -0.0191149)
(9.82043 -0.0708869 0.0121919)
(7.08124 1.03692 -0.522459)
(11.7249 1.68666 -5.71961)
(9.65361 0.704603 -5.33547)
(13.5091 1.68035 -3.89071)
(10.9972 2.21176 -7.83634)
(12.6906 1.13778 -2.91662)
(9.67829 0.602808 -1.19571)
(9.24402 0.805056 0.742913)
(10.1314 0.994236 -0.452335)
(7.06493 0.384691 -2.32962)
(2.39124 1.42828 -4.02921)
(9.85989 0.837527 -0.164258)
(8.33323 0.738397 -1.72503)
(8.82055 0.559718 -1.20763)
(1.37355 1.96979 -6.08525)
(9.70427 1.35065 -2.23612)
(8.70258 1.14268 -3.41165)
(9.65107 0.198021 0.00932402)
(9.98681 0.027757 -0.0119537)
(9.32837 0.947528 0.392938)
(10.0511 0.0656175 -0.0573465)
(9.53052 -0.142631 -0.137049)
(9.48341 0.546758 -0.523323)
(9.96418 0.696625 -0.905399)
(9.37639 0.629445 -0.00518588)
(9.87034 1.53922 -3.39723)
(10.2139 0.956065 -0.647547)
(10.3059 1.02589 -0.707074)
(9.8706 0.593263 -0.0317788)
(9.77342 0.285037 -0.0717885)
(10.2752 0.569822 0.186896)
(10.0581 0.955802 -0.705964)
(10.5275 1.0096 -1.34367)
(9.91801 0.255535 0.0046125)
(8.99924 0.516709 -1.37012)
(0.871937 1.17543 -2.6897)
(2.21207 1.41827 -1.78616)
(10.0795 0.226155 -0.00152058)
(9.46011 0.711553 -1.97604)
(9.49916 0.901686 -0.631413)
(6.61051 1.44388 -2.27585)
(9.95996 0.644489 -0.261485)
(9.81658 0.654348 -0.505495)
(8.4181 0.746587 -0.354086)
(9.44982 0.620092 0.787858)
(9.81889 0.21367 0.0796981)
(9.719 0.365419 0.271219)
(9.69123 1.18497 0.163194)
(8.26638 0.724619 -0.256865)
(8.24303 1.06329 -2.02398)
(9.68396 1.05428 -0.327463)
(10.7067 0.657165 -0.379428)
(10.5735 0.700282 -0.362564)
(10.8382 0.765057 -0.612336)
(10.2345 0.103542 0.00152596)
(9.68297 0.342859 -0.0680831)
(9.7322 0.414376 -0.167335)
(10.4454 0.759322 -0.397037)
(9.98842 0.927423 -0.196029)
(10.0796 0.823541 0.114187)
(9.83784 0.538876 0.135633)
(10.0059 -0.015713 0.00881569)
(9.90367 0.123175 -0.0302307)
(9.94457 0.085953 0.00908121)
(10.0006 -0.00110298 0.00180533)
(9.73745 0.378386 -0.14771)