/*--------------------------------*- C++ -*----------------------------------*\
| =========                 |                                                 |
| \\      /  F ield         | OpenFOAM: The Open Source CFD Toolbox           |
|  \\    /   O peration     | Version:  2506                                  |
|   \\  /    A nd           | Website:  www.openfoam.com                      |
|    \\/     M anipulation  |                                                 |
\*---------------------------------------------------------------------------*/
FoamFile
{
    version     2.0;
    format      ascii;
    arch        "LSB;label=32;scalar=64";
    class       volScalarField;
    location    "0.0721333";
    object      k;
}
// * * * * * * * * * * * * * * * * * * * * * * * * * * * * * * * * * * * * * //

dimensions      [0 2 -2 0 0 0 0];

internalField   nonuniform List<scalar> 
47425
(
0.29079
0.324201
0.305616
0.312363
0.459794
0.310217
0.416251
0.31664
0.366887
1.39981
0.325417
0.323316
0.355765
0.306281
0.299552
0.324103
0.302343
0.331602
1.08909
0.522775
0.312526
0.298887
0.313477
0.306778
0.300847
0.291872
0.291974
0.82211
0.289995
0.29464
0.306192
0.317644
0.356125
0.293573
0.28873
0.307799
0.298348
0.363339
0.300068
0.308983
0.353709
0.529801
0.997245
0.3784
1.71672
0.338404
0.324226
0.350651
0.29728
0.292266
0.772632
0.60753
0.291175
0.815872
0.36179
0.359608
0.292776
0.293225
0.404043
0.302428
0.820572
0.847069
0.906975
0.316695
0.364462
0.296744
0.341147
0.355479
0.796317
0.30784
0.298953
0.286695
0.291064
0.304776
0.919373
0.368709
0.953131
0.30311
0.830971
0.515342
0.917589
0.306142
0.303144
0.348602
0.320462
0.310205
0.287964
0.286931
0.514449
0.58413
0.302682
0.332428
0.29429
0.366199
0.377721
0.361874
0.294064
0.292613
0.304477
0.350156
0.33453
0.421318
0.30264
0.442743
0.295713
0.363026
0.299891
0.314122
0.424323
0.31075
1.30497
0.320284
0.419002
0.347315
0.320074
0.806279
0.31554
0.623043
0.329465
0.324821
0.314743
0.362698
0.342996
0.338406
0.343308
0.383813
0.314917
0.364887
0.348925
0.295176
0.303752
0.319372
0.488928
0.340625
0.485858
0.338848
0.304651
0.389582
0.302573
0.302233
0.354009
0.354569
0.325058
0.449602
0.321287
0.366223
0.427625
0.339921
0.354914
0.36158
0.453243
0.786536
0.360297
0.790462
0.323503
0.315694
0.333286
0.918337
0.342426
0.319423
0.326096
0.292317
0.288452
0.304075
0.746516
0.835968
0.33795
0.918864
0.331231
0.875253
1.05996
0.341508
0.353842
0.311538
0.338645
0.369017
0.838954
0.288816
0.291616
0.294999
0.841261
0.286681
0.288701
0.293042
0.293385
0.33681
0.301912
0.40862
0.346559
0.289823
0.357975
0.294298
0.410766
0.365296
0.294444
0.307532
0.360532
0.31502
0.320719
0.285125
0.325964
0.363044
0.371885
0.309173
0.325731
0.374609
0.28851
0.304903
0.347194
0.361897
0.293258
0.297267
0.352113
0.308021
0.297989
0.297179
0.299882
0.578571
0.329312
0.353391
0.521573
0.284218
0.580052
0.296253
0.395752
0.50284
0.294312
0.313039
0.34404
0.37639
0.300786
0.307708
0.333611
0.36937
0.363797
0.314283
0.556229
0.326012
0.519284
0.362781
0.332163
0.287287
0.292311
0.300544
0.297237
0.362566
0.301047
0.357553
0.291736
0.300593
0.294732
0.492581
0.301088
0.365695
0.30798
0.293583
0.30062
0.358533
0.301032
0.357613
0.37545
0.352148
0.308092
0.357408
0.364681
0.344317
0.29474
0.36236
0.293402
0.320379
0.312388
0.507201
0.556386
0.294232
0.49656
0.369393
0.498473
0.443323
0.541416
0.532418
0.855004
0.288091
0.869547
0.358139
0.306689
0.298935
0.347065
0.316492
0.356959
0.335083
0.763465
0.311558
0.371308
0.293792
0.30178
0.31787
0.314135
0.296716
0.313282
0.353061
0.324367
0.289917
0.319112
0.296191
0.873774
0.830838
0.781642
0.293558
0.291056
0.298492
0.314546
0.784134
0.314555
0.323968
0.566533
0.332759
0.33951
0.367309
0.31109
0.647143
0.538896
0.303964
0.304314
0.288249
0.328755
0.292674
0.307565
0.291438
0.291282
0.295815
0.296461
0.946639
0.319048
0.298825
0.383804
0.29404
0.887662
0.31413
0.289415
0.296969
0.304488
0.304834
0.290168
0.301454
0.286062
0.295669
0.295352
0.300984
0.301043
0.328743
0.306035
0.295703
0.313255
0.30312
0.307078
0.330282
0.316208
0.302856
0.305664
0.360266
0.340789
0.328813
0.314357
0.312935
0.295078
0.314694
0.36163
0.358444
0.320508
0.304049
0.354549
1.18379
0.296816
0.307059
0.385664
0.305426
0.422806
0.356824
0.364437
0.298383
0.357607
0.305113
0.293204
0.355245
0.338795
0.364513
0.313648
0.30048
0.349721
0.311185
0.30775
0.30981
0.318325
0.296967
0.298518
0.305878
0.318192
0.310416
0.388474
0.290774
0.627169
0.291712
0.94032
0.320516
0.358526
0.345731
0.293578
0.344065
0.291628
0.325746
0.306947
0.570364
0.839917
0.291552
0.325837
0.303719
0.303323
0.311433
0.303613
0.300758
0.352848
0.315915
0.292977
0.305634
0.311986
0.292402
0.437331
0.301105
0.306647
0.48409
0.468301
0.301308
0.609494
0.490066
0.349489
0.475804
0.723414
0.293846
0.3017
0.302823
0.301307
0.701162
0.321727
0.289738
0.294731
0.306719
0.30743
0.314885
0.296058
0.684202
0.683072
0.496612
0.35638
0.388382
0.474631
0.294645
0.304866
0.343989
0.304231
0.355175
0.363124
0.377802
0.303292
0.369613
0.305335
0.300237
0.32549
0.308342
0.30672
0.30373
0.348579
0.357669
0.367956
0.325806
0.308588
0.33797
0.30472
0.766947
0.360811
0.387171
0.34494
0.338923
0.765115
0.322145
0.292663
0.324911
0.35015
0.327211
0.322059
0.336384
0.292739
0.316391
0.291454
0.316767
0.435448
0.289908
0.338069
0.317751
0.349939
0.291124
0.292879
0.293466
0.301176
0.302752
0.321387
0.300426
0.293015
0.295652
0.315694
0.315192
0.328554
0.319645
0.293386
0.305433
0.283283
0.290997
0.300827
0.324996
0.31222
0.325356
0.363305
0.375393
0.74709
0.307252
0.300273
0.32771
0.365735
0.445345
0.447658
0.328419
0.296408
0.33455
0.426402
0.317761
0.454814
0.362381
1.16247
0.335513
0.33663
0.295204
0.447028
0.295358
0.300247
0.307187
0.333419
0.292565
0.286971
1.02786
0.29589
0.348765
0.294803
0.427859
0.287053
0.294975
0.409049
0.397464
0.308194
0.291836
0.279989
0.290704
0.306769
0.290478
0.291289
0.290626
0.368595
0.443184
0.309604
0.306797
0.308458
0.294201
0.514044
0.303227
0.314704
0.200932
0.305477
0.294168
0.275281
0.746598
0.305301
0.204747
0.225823
0.292178
0.346974
0.288845
0.29778
0.362199
0.331051
0.914399
0.302269
0.333776
0.291233
0.449269
0.363779
0.369487
0.311951
0.739949
2.14353
0.300442
0.317919
0.338432
0.309762
0.356937
0.368404
0.319057
0.321441
0.378947
0.288629
0.359161
0.462778
0.331763
0.300519
0.468547
0.334543
0.302239
0.316012
0.332585
0.293552
0.361918
0.358491
0.348442
0.343337
0.29866
0.29961
0.967747
0.309121
0.388782
0.842995
0.803503
0.295421
0.351652
0.717197
0.340987
0.410246
0.774416
0.376793
0.773851
0.293273
0.291066
0.354833
0.505546
0.381507
0.375568
0.289007
0.365125
0.297146
0.311875
0.288858
0.334814
0.308584
0.782623
0.69292
0.33114
0.327936
0.337936
0.308935
0.374521
0.351688
0.35241
0.360588
0.342647
0.311322
0.330632
0.354478
0.295856
0.375706
0.353063
0.905251
0.555185
0.331323
0.303484
0.357503
0.293086
0.896365
0.303197
1.14044
0.344572
0.434285
0.333788
0.314928
0.318995
0.290603
0.347269
0.303126
0.288627
0.387981
0.378169
0.368557
0.378646
0.351785
0.965745
0.334089
0.370349
0.359307
0.363677
0.293818
0.343315
0.319961
0.377202
0.341403
0.313301
0.347114
0.311876
0.32599
0.303795
0.299799
0.467893
0.541459
0.298188
0.431814
0.297909
0.317191
0.302402
0.292839
0.667634
0.287532
0.308379
0.306595
0.291607
0.655956
0.964148
0.309652
0.334049
0.293972
0.334996
0.289006
0.317014
0.317895
0.529921
0.31718
0.293623
0.309781
0.29578
0.30661
0.301287
0.289003
0.30847
0.293833
0.289812
0.319462
0.53296
0.292306
0.256374
0.605883
0.549659
0.284527
0.320996
0.882378
0.350214
0.325797
0.49181
0.257955
0.806224
0.329636
0.295515
0.45027
0.328726
0.549057
0.309384
0.33809
0.294841
0.29827
0.423188
0.342474
0.311051
0.332608
0.40224
0.36682
0.348335
0.37843
0.477127
0.4554
0.693557
0.854035
0.840417
0.600088
0.629447
0.363099
0.354504
0.299381
0.292794
0.333637
0.316191
0.320534
0.329348
0.342652
0.295397
0.33081
0.366072
0.294954
0.374329
0.318939
0.293638
0.358679
0.294205
0.299396
0.301983
0.337553
0.415345
0.296232
0.293957
0.298313
0.351091
0.342398
0.507824
0.425709
0.292547
0.334796
0.288172
0.295714
0.298054
0.337566
0.349504
0.4335
0.306472
0.297778
0.301096
0.388338
0.903481
0.309869
0.309881
0.387809
0.33615
0.342942
0.33137
0.318522
0.3768
2.03583
0.431074
0.865356
0.366857
0.384778
0.289074
0.389468
0.299184
0.325219
0.327622
0.301088
1.45334
0.421579
0.353473
0.525601
0.355221
0.286514
0.315422
0.391697
0.299878
0.33537
0.216949
0.296896
0.379144
0.364173
0.384644
0.699815
0.366212
0.355978
0.480652
0.300096
0.29939
0.427727
0.521729
0.322795
0.3986
0.435771
0.324809
0.308929
0.296203
0.319377
0.346836
0.3452
3.76015
0.661286
0.358526
0.531538
0.510663
1.17765
2.34881
0.496864
0.355795
0.360763
0.373541
0.359039
2.2042
0.298808
0.321986
0.372764
0.25928
0.322196
0.367458
0.351119
0.292887
0.377401
0.459929
0.363484
1.16024
0.290886
0.373122
0.376583
0.365703
0.357266
0.349854
0.37481
0.440778
0.338328
0.356758
0.454273
0.316552
0.301913
0.328652
0.408683
0.294895
0.403439
0.364182
0.355086
0.631779
0.934323
0.294245
0.3635
0.310251
0.36189
0.356381
0.650477
0.538741
1.36781
0.300691
0.356071
0.317807
0.942403
0.308058
1.72593
0.396655
0.377094
0.480785
0.570908
0.314629
0.29932
0.303236
0.313792
0.455046
0.312924
0.391188
1.14084
0.37741
0.293697
0.297715
0.668346
1.03017
0.498086
0.53611
0.927784
0.394053
0.345176
0.38214
0.304687
0.46
0.3629
0.379299
1.03123
0.318271
0.294717
0.300051
0.357116
0.377791
0.368162
0.321418
0.307327
0.451003
0.298797
0.321239
0.295815
0.352839
0.356598
0.369357
0.334565
0.324509
0.305527
0.37139
0.301216
0.307143
0.31767
0.308696
0.365159
0.440726
0.333856
0.359948
0.299834
1.69255
0.374749
0.359126
0.326338
0.918578
0.65222
1.08063
0.347095
0.330297
0.32369
0.720776
0.380629
0.328841
0.366076
0.349838
0.361023
0.883469
0.357706
0.306492
0.354663
0.346308
0.289843
0.567019
1.00094
0.304792
0.989639
0.334343
0.643388
0.558097
0.301811
0.337327
0.366798
0.605898
0.331465
0.328357
0.325968
0.728463
0.492828
0.6052
0.309808
0.320739
0.295447
0.306926
1.32299
1.30364
0.336555
0.352387
0.378006
0.78359
0.301024
0.290623
1.97069
1.25512
0.355669
0.306043
0.869298
1.36749
1.05967
0.364589
0.73242
1.22067
0.8349
0.315581
0.431688
0.428271
0.321076
0.330793
1.34814
1.25631
0.347686
0.358428
0.345201
0.308556
0.328878
0.32216
0.466279
0.32776
0.366939
0.297714
0.368636
1.15373
0.968276
0.309673
0.556185
0.426719
0.312564
0.496682
0.290437
0.331472
0.303825
0.327927
0.381624
0.296215
0.751328
0.300668
0.843208
0.605604
0.903194
0.398051
0.420222
0.330215
0.349221
0.325632
0.536217
1.07368
0.349933
0.990705
0.497188
0.759567
0.459551
0.86849
0.674533
0.318421
0.328238
0.956884
0.337963
0.30355
0.305073
0.755037
0.699583
0.306008
0.323939
0.622305
0.393629
0.920572
0.783809
0.34841
0.444321
1.02535
0.343838
0.315052
0.846526
0.305132
0.789419
0.802566
0.303077
0.297378
0.314886
0.294693
0.366169
0.305334
0.305898
0.357985
0.367363
0.460657
0.328358
0.313111
0.493359
1.37
0.789454
0.343489
0.328882
0.541746
0.307585
0.978053
0.332432
0.336989
0.356144
1.78856
0.338304
1.94145
0.38225
0.492001
0.329186
0.741776
0.61221
0.647448
0.417098
0.530609
0.361683
0.363526
0.378666
0.576393
0.380897
0.4473
0.786338
0.388158
0.442646
0.901767
0.338263
0.303727
0.704304
1.64815
0.350549
0.326008
0.359333
0.379488
1.26072
0.946124
0.293766
0.311933
0.359141
0.78429
0.355933
0.570626
0.362974
0.346833
0.352541
0.463361
0.345848
0.593683
0.600768
0.335124
0.367673
0.425117
0.316902
0.894062
2.10743
0.327704
0.841508
0.843198
0.376772
0.822307
0.360611
0.354206
1.04972
0.356094
1.01138
2.82181
0.315489
0.36035
0.42011
0.365345
0.35318
0.381968
0.48946
0.388913
0.318571
0.380981
0.321024
0.73055
0.384149
0.344747
0.364792
0.545502
0.302061
0.820042
0.723977
0.350049
0.829742
1.50348
0.297844
0.452799
0.507434
0.351509
0.332631
0.502971
0.763365
0.483987
0.892421
0.30341
0.753744
0.442897
0.291421
0.370653
0.359507
0.478221
0.326866
0.3762
0.57647
0.291211
0.560903
0.350225
1.4015
0.371459
0.290419
0.357748
0.511768
0.350099
0.682256
0.429179
0.314115
0.688978
0.300076
0.327139
1.20272
0.291543
0.367366
0.699874
0.330983
0.777924
1.25414
0.358938
0.388361
0.29864
0.884059
0.556725
0.927675
0.786033
0.400692
0.331043
0.411818
0.948689
0.934732
0.951447
0.348898
0.357546
0.34415
0.310664
0.373897
0.710296
0.347626
0.330525
0.333053
0.295022
0.315427
0.353487
0.30923
0.348912
0.358287
0.413189
0.300206
0.354831
0.55247
0.314426
0.297903
0.366637
0.34236
0.359402
0.294669
0.328796
0.327171
0.309736
0.375962
0.611403
0.337797
0.312185
0.298802
0.294787
0.512071
0.307917
0.306621
0.601095
1.09914
0.700389
0.309055
0.583777
0.455995
0.353301
0.541475
0.409793
0.520239
0.354188
0.308373
0.34567
0.378781
0.301607
0.360666
0.372793
0.350481
0.306109
0.305695
0.352748
0.496356
0.343467
0.401524
0.822658
0.346521
0.662163
0.387688
0.865439
0.289937
0.354614
0.340599
0.293844
0.311054
0.365924
0.293795
1.48985
0.55313
0.792544
0.360997
0.9165
0.297511
0.322735
0.511182
0.303549
0.790173
0.407727
0.613944
0.320728
0.973204
0.94525
0.304975
0.292571
1.09
0.312737
1.06307
0.31877
0.355145
0.304372
0.298763
0.301695
0.319343
0.32941
0.634808
0.387239
0.385636
0.326978
0.327014
0.292433
0.355733
1.48456
0.356138
1.70888
0.557153
0.302119
0.36669
0.322795
0.320158
0.316762
0.348299
0.339848
0.362906
0.325573
0.291563
0.335746
0.352795
1.24425
1.5462
0.334764
0.344127
1.80158
0.333292
0.295755
0.296174
0.293648
0.334736
0.367336
0.400062
0.377966
0.324265
0.300264
0.384028
0.290377
0.286399
0.310319
0.713757
0.387562
0.816917
0.745921
0.809557
0.310825
0.299578
0.292281
0.29318
0.295219
0.627381
0.319378
0.290158
0.314427
0.351223
0.301986
0.444674
0.298045
0.368197
0.438183
0.323166
0.296043
0.302742
0.324041
0.324522
0.301732
0.331481
0.31573
0.488842
0.315572
0.350197
0.3887
0.31452
0.318079
0.299244
0.323594
0.306575
0.356866
0.384278
0.295113
0.288058
0.309167
0.311899
0.300769
0.34755
0.293743
0.304632
0.297395
0.312444
0.831878
0.309762
0.409133
0.287717
0.296437
0.68016
0.31063
0.35395
0.291987
0.302022
0.341179
0.36145
0.738505
0.370753
1.54172
0.295424
0.302587
0.347529
0.294273
0.29123
0.378603
0.324258
0.289718
0.291451
0.83474
0.41641
0.651037
0.354112
0.530137
0.365738
0.298171
0.385863
1.21309
0.350534
0.305503
0.305478
0.774162
0.300037
0.31012
0.323875
0.3216
0.351549
0.766597
0.303247
0.317711
0.347473
0.319494
0.351864
0.888707
0.790976
0.302313
0.296362
0.294673
0.352347
0.332319
0.290836
0.781377
1.03403
0.297771
0.342441
0.808822
0.306997
0.943711
0.43689
0.292874
0.300318
0.299293
0.307202
0.573833
0.324518
0.321492
0.312132
0.350637
0.310816
0.361543
0.576288
0.362926
0.47662
0.48572
0.466937
0.560493
0.345885
0.38772
0.386986
0.379196
0.332209
0.312861
0.804455
0.564444
0.377901
0.350523
0.360541
0.340562
0.327453
0.280193
0.292861
0.292204
0.357063
0.349911
0.484122
0.405583
0.851826
0.69664
0.323463
0.377892
0.306336
0.308335
0.365124
0.295273
0.316237
0.295182
0.29375
0.268963
0.266656
0.293565
0.345604
0.63289
0.989717
0.33542
0.292716
0.458769
0.485168
0.818327
0.314544
0.791806
1.22432
0.8351
0.861758
0.386946
0.294035
0.290537
0.360613
0.847123
0.291254
0.372716
0.331973
0.294019
0.593484
0.541898
0.51989
0.321443
1.29024
0.292398
0.301063
0.330215
0.331362
0.655334
0.736068
0.371101
0.432057
0.341382
0.359546
0.30973
0.889428
0.353673
0.855812
0.371898
0.849759
0.352885
0.479212
0.545049
0.532189
0.380212
0.382692
0.648429
0.352524
0.353886
0.385783
0.371711
0.360716
0.341088
1.26546
0.582948
0.323382
0.573487
0.68611
0.566053
0.306402
0.299442
0.748004
0.64685
0.781019
0.304462
1.07575
0.302941
0.892262
0.636384
0.578616
0.674809
0.294987
0.351106
0.297821
0.327592
0.322977
0.504425
0.413723
0.296228
0.296731
0.352672
0.320012
0.292762
0.293278
0.452923
0.294669
0.289214
0.325604
0.378912
0.418414
0.324959
0.358491
0.360754
0.313365
0.482457
0.426043
0.305335
0.305883
0.473739
0.567169
0.31326
1.72873
0.33857
0.41257
0.820527
0.379594
0.313237
0.294225
0.484441
0.316291
0.28916
0.365387
0.312273
0.300841
0.315172
0.298495
0.312289
0.311123
0.323937
0.305637
0.354137
0.665662
0.305569
0.314208
0.308455
0.317108
0.406862
1.01475
0.317448
0.300459
0.321179
0.552279
0.293539
0.332642
0.32201
0.834557
0.342362
0.377665
0.362215
0.389396
0.334243
0.348291
0.318313
0.501867
0.366369
0.351711
1.05627
0.319251
0.385331
0.342519
0.333045
0.353509
0.39081
0.313652
0.336565
0.29927
0.339942
0.31953
0.341271
2.97846
0.302983
0.403241
0.37598
0.343964
0.648008
0.349974
0.574265
0.360445
0.554869
0.641903
0.327168
0.297786
0.392504
0.376219
0.331406
0.300315
0.774596
0.444374
0.361958
1.21202
0.581845
0.308555
0.483704
0.466642
1.28604
0.882737
0.381365
0.480385
0.448651
0.555916
0.465284
0.885987
0.247157
0.531838
0.315093
0.604496
0.361144
0.38703
0.37077
0.353413
0.328623
0.363389
0.586725
0.319584
0.357999
0.394619
0.487179
0.754627
0.405794
0.72553
0.339878
1.03762
0.373325
0.374643
0.829742
0.547395
0.68951
0.643814
0.62322
0.534691
0.373121
0.352182
0.317079
0.37481
0.359806
0.7604
0.347919
0.353756
0.30815
0.477734
0.352239
0.303002
0.843822
0.479353
0.49608
0.199926
0.399248
0.330198
0.346912
0.345912
0.373059
0.317158
0.286282
0.333176
0.387734
0.196959
0.188048
0.533551
0.343578
0.400507
0.405357
0.443958
0.370023
0.354063
0.348056
0.159935
0.354867
0.388192
0.174066
0.367368
0.822945
0.581268
0.333744
1.27194
0.384709
0.460229
1.4809
0.388859
0.372035
0.30476
0.600178
0.294649
0.298356
0.344567
0.362919
0.373208
0.329234
0.555049
0.35442
0.459911
0.308236
0.37667
0.360927
0.292492
1.51498
0.520287
1.00178
0.468236
0.297604
0.908512
0.473478
0.297588
2.4496
0.299558
0.295086
0.465254
0.453636
0.967156
0.827408
0.337423
0.669374
1.51081
0.361003
0.616261
0.97547
0.71067
1.77123
0.366683
0.330625
0.574824
0.64121
0.386533
0.942451
0.346655
0.32037
0.504948
0.34684
0.303091
0.369803
0.754186
0.706938
0.28882
0.497553
0.305798
0.379588
0.329619
0.376456
0.574546
0.415293
0.763811
0.351381
0.360678
0.728825
0.29681
0.308232
0.43358
0.300444
0.339478
1.07511
0.324165
0.881619
0.801601
0.816625
0.789719
0.376377
0.379669
0.292154
0.290986
0.405445
0.298801
0.309168
0.388775
0.308317
0.394592
0.918668
0.29921
0.509164
0.30219
0.454999
0.354665
0.838185
0.354028
0.445947
0.303851
0.320601
0.399877
0.299323
0.321658
0.31222
0.294686
0.507677
0.312518
0.361706
0.34608
0.309113
0.351592
0.329815
0.362737
0.785051
0.324423
0.307334
0.309422
0.372764
0.166006
0.617172
0.456729
0.663134
1.01024
0.295249
0.413791
0.0956815
0.242306
0.930448
0.392804
0.525202
0.317431
0.713786
0.679504
1.20311
0.345708
0.320722
0.526085
1.27937
0.330829
0.395783
0.435722
0.431167
0.395946
0.385615
0.898714
1.35539
0.219726
0.361397
0.178073
0.340528
1.22124
0.316217
0.34138
0.313079
0.303811
0.427404
0.312048
0.561385
0.442361
0.319072
0.374823
0.309284
0.522578
0.608488
0.316402
0.413296
0.348032
0.800172
0.435283
0.348149
0.511244
0.500116
0.293056
0.298006
0.348024
0.302864
0.65196
0.300283
0.417086
0.575707
0.316735
0.329156
0.311781
0.311208
0.593666
0.380725
0.497859
0.302241
0.306499
0.496211
0.639794
0.304977
0.328998
0.304003
0.302437
0.599227
0.426628
0.763375
0.328898
0.302656
0.423485
0.374628
0.331555
0.30668
0.367208
0.368547
0.519904
0.370316
1.98228
0.391079
0.393536
0.302436
0.365191
0.836017
0.975409
0.374675
0.820331
0.345933
0.982829
0.402389
0.686628
0.449081
0.510267
0.387754
0.317524
0.349409
0.396357
0.538616
0.349043
0.348661
0.939748
0.374529
1.31691
0.373239
0.330598
0.364191
0.565001
0.40243
0.301258
0.911164
0.2983
0.319614
0.299929
0.352299
0.752215
0.463075
0.327625
0.491484
0.345948
0.327674
0.305254
0.326695
0.399265
0.395369
0.389075
0.336632
0.323435
0.381882
0.327984
0.293417
0.376613
0.340851
4.4909
0.356126
0.439148
0.33155
0.382552
0.340877
0.395501
0.294102
0.348495
0.329972
0.32808
0.359933
0.803038
0.292768
0.733048
0.545947
0.391247
0.379798
0.334903
0.38251
0.426469
0.678256
0.307575
0.328227
0.333234
0.473836
0.360453
0.295385
1.23488
1.50077
0.63587
0.295637
0.30146
0.486634
0.352986
0.3536
0.480589
0.364427
0.319603
0.344855
1.4137
0.299769
0.545168
0.296595
0.319308
0.401985
0.31547
0.378092
0.433229
0.302026
0.564441
0.382764
0.376968
0.422896
0.919643
0.310783
0.35995
0.350663
0.375633
0.338946
0.347756
0.292756
0.287798
0.374465
0.565556
0.368627
0.346492
1.22398
0.369098
0.583891
0.358354
0.383028
0.375772
0.337606
0.766305
0.333851
0.496044
0.351813
0.355008
0.332701
0.37366
0.545817
0.431847
0.314808
0.601061
0.376929
0.642222
0.731136
1.39948
0.30601
0.434184
0.377687
0.237593
0.369965
0.249963
0.420099
0.217274
0.373129
0.787675
0.381409
0.600047
0.655655
0.346493
0.204582
0.443731
0.934827
0.49736
0.634793
1.97962
1.57703
0.718278
0.783603
0.305772
0.343708
0.729167
0.3713
0.91844
0.355483
0.770961
0.746776
0.322888
0.356518
0.319281
0.292977
0.346765
0.293462
0.695465
0.381916
0.353781
0.531708
0.316127
0.348714
0.298067
0.32038
0.34444
0.334392
0.383151
0.29358
0.390723
0.884746
0.299955
0.306715
0.333648
0.303508
0.79385
1.15781
0.379399
0.412933
0.513543
0.297712
0.286619
0.325995
0.342403
0.316078
0.322735
0.310799
0.304325
0.467259
0.306255
0.343258
0.318554
0.297559
0.299339
0.978293
0.313074
0.329601
0.307808
0.415928
0.347671
0.332238
0.654326
0.388794
0.320672
0.36927
0.338137
0.354024
0.382497
0.36493
0.30772
0.373907
0.35745
0.313639
0.331698
0.339985
0.419647
0.434807
0.318558
0.327346
0.38249
0.409886
0.456823
0.548531
0.913199
0.892959
0.329891
0.299591
1.02748
0.507169
0.532089
0.307679
0.296935
0.318622
0.292303
0.313845
0.300445
0.303965
0.328884
0.300476
0.306717
0.303775
0.306331
0.298396
0.523422
0.353649
0.330054
0.307686
0.312887
0.59206
0.29914
0.304351
0.385384
1.03939
0.513449
0.374181
0.362234
0.306984
0.341069
0.451425
0.631979
0.379388
0.315765
0.358598
0.315465
0.316519
0.346519
0.41321
0.352729
0.310916
0.377566
0.39132
0.585331
0.373014
0.73837
0.562602
0.37495
0.373492
0.317073
0.325155
0.364545
0.290723
0.316096
0.578869
0.308739
0.335534
0.695232
0.340599
0.360449
0.46751
0.370754
0.308011
0.342368
0.304598
0.338288
0.708789
0.343398
0.409515
3.85056
0.562767
0.999643
0.812425
0.316495
0.322284
0.50323
0.299774
0.53066
0.471455
0.665764
0.369858
0.296151
0.780742
0.294977
0.520242
0.394662
0.310173
0.693306
0.867094
0.295919
0.303684
0.859405
0.29525
0.3036
0.303105
0.297251
0.34149
0.553619
0.558201
0.324518
0.779792
0.317099
0.318407
0.310285
0.840499
0.320102
0.877571
0.298336
0.338199
0.30104
0.410723
0.334821
0.480761
0.300993
0.648544
0.453659
0.455894
0.675677
0.322485
0.316822
0.90923
0.425408
0.331156
0.399118
0.737168
0.32354
0.406604
0.320568
0.568672
0.384754
0.30446
0.295439
0.436292
0.311419
0.366798
0.332085
0.296387
0.322458
0.302787
0.305463
0.327975
0.752273
0.314897
0.30418
0.302957
0.316112
0.312449
0.343439
0.294081
0.360378
0.421296
0.379995
0.373739
0.30983
0.437193
0.309135
0.363461
0.912348
0.472758
0.720453
0.315408
2.68642
0.344327
0.510158
0.369587
0.296779
0.376861
0.306282
0.303056
0.339131
0.350819
0.287576
0.312155
0.295738
0.639809
0.295288
0.311873
0.350389
0.715637
0.152718
0.318443
0.772703
0.856965
0.577775
0.542969
0.859255
0.140288
0.38516
0.219152
0.337756
0.466807
2.92207
0.4574
0.361129
0.294253
0.299003
0.733746
0.329959
0.456959
0.657659
0.367334
0.578346
0.356903
0.570321
0.304785
0.357184
0.340324
0.29337
0.378861
0.288854
0.336379
1.07784
1.00023
1.09267
0.432683
0.869624
0.312584
0.290429
0.300612
0.359676
0.297346
0.351929
0.304563
0.393465
0.37225
0.296043
0.301337
0.3566
0.296625
0.320917
0.351392
0.31269
0.349105
0.479961
0.317925
0.352517
0.798116
0.34769
0.733679
0.783015
0.33974
0.3781
0.297851
0.453964
0.335202
0.350203
0.699663
0.299636
0.360068
0.331326
0.345047
0.30859
0.308401
0.464308
0.49431
0.3755
0.33669
0.77253
0.360172
0.623185
0.571992
0.360507
0.832621
0.424751
0.354306
0.328396
0.351538
0.372205
0.333101
0.295692
0.328565
0.181052
0.565484
0.186512
0.309222
0.339475
0.408734
0.16293
0.935456
0.33956
0.365185
0.373251
0.185042
0.377967
0.799211
2.30417
0.356097
0.306586
0.365571
0.513293
0.30872
0.355904
0.369992
0.310472
0.350363
0.317967
0.650267
0.325198
1.48722
0.386276
0.892237
0.334755
1.58887
0.922664
0.942625
0.325384
0.334899
0.427111
0.362244
0.311784
0.364805
0.321035
0.800595
0.296501
0.443302
0.615566
0.295697
0.299578
0.309428
0.318906
0.344979
0.360468
0.369923
0.381843
0.371673
0.324235
0.388439
0.326396
0.428141
0.318937
0.359464
0.299672
2.61004
1.24771
0.359177
0.427367
0.29174
1.96581
0.292599
0.294491
0.350114
0.292436
0.368435
0.351102
0.289874
0.288097
0.335879
1.58879
0.575216
0.370891
0.788207
0.29874
0.361223
0.319812
0.35956
0.780666
0.376214
0.803731
0.289045
0.318222
0.761035
0.851624
0.32304
0.329013
0.603271
0.377037
0.338598
0.460977
0.364906
0.363581
0.390638
0.366034
0.287324
0.376978
0.347237
0.452637
0.297872
0.354251
0.294449
0.324925
0.803104
0.733209
0.312329
0.413469
0.321792
0.348788
0.31268
0.510165
0.312211
0.32685
0.344199
0.34122
0.416507
0.375139
0.458578
0.348479
0.290726
0.323137
0.29916
0.356467
0.295415
0.496432
0.424309
0.319399
0.591189
0.32533
0.296252
0.348243
0.298538
0.366622
0.602911
0.316931
0.406184
0.362057
1.02128
0.373363
0.354026
0.368081
0.694168
0.369038
0.505311
0.349903
0.380172
0.425704
0.389651
0.360713
0.749906
0.429769
0.363187
0.31591
0.30536
0.520639
0.319984
0.87585
1.58945
0.375887
0.398885
0.357432
0.451563
0.423639
0.362688
0.839942
0.454712
0.621928
0.300548
0.386612
1.10906
0.460782
0.332725
0.443265
0.311686
1.10444
0.364465
0.365863
0.311844
0.295731
0.30097
0.329628
0.299926
3.84006
0.298943
0.621553
0.295813
0.40065
0.363112
0.50119
0.329092
0.334093
0.321677
0.630325
0.441456
0.479322
0.303974
0.303394
0.428979
0.349812
0.336857
0.298911
0.296221
0.295346
0.318021
0.294779
0.353345
0.300341
0.533619
0.407605
1.1445
0.732623
0.557079
0.530452
0.366635
0.374414
0.293738
0.556987
0.309549
0.317078
0.308587
0.43532
0.467365
0.309902
0.397124
0.749965
0.46492
0.299854
0.300986
1.75151
0.784512
0.361181
0.825675
0.832102
0.608572
0.73554
0.540232
0.716506
0.381571
0.598213
0.732969
0.295823
0.30455
0.289495
0.44872
0.582539
0.313106
0.296456
0.378231
0.342473
0.378001
0.757555
0.456141
0.940798
0.339917
0.301965
0.31984
0.301971
0.338373
0.751125
0.958417
0.783283
0.75244
0.31543
1.19288
0.591117
0.309429
0.510545
0.447635
0.739929
0.36668
0.452549
0.736977
0.747393
0.450592
0.831594
0.477614
0.790736
0.359781
0.318988
0.374201
1.11562
0.746116
0.367941
0.317876
0.522543
0.419399
0.557508
0.336414
0.355555
1.10585
1.09594
0.195942
0.338419
0.195744
0.298301
0.193419
0.352996
0.440093
0.568713
0.178368
0.410769
0.473908
0.132058
0.437859
1.38051
0.387994
0.3579
0.767822
0.31346
0.470253
0.304921
0.292124
0.309387
0.319216
0.842197
0.668534
2.09225
0.36758
0.366023
0.608089
0.352117
0.429078
0.385476
0.338983
0.315835
0.566703
0.379922
0.417151
0.306621
0.397436
0.381175
0.717099
0.437441
0.778177
0.945202
0.740043
0.373699
0.377318
0.721151
0.251591
0.522179
0.338006
0.362883
0.305464
0.773345
0.599812
0.652392
0.717582
0.583623
0.298005
0.404864
0.85336
0.785821
0.364949
0.355894
0.434103
1.51079
0.331032
0.300217
0.361766
0.324803
0.81678
0.321454
0.578669
0.823875
1.07453
1.92781
0.513791
0.429293
0.772598
1.30705
0.843388
0.552775
0.769779
0.92072
0.49881
0.354548
0.421541
0.356455
0.28793
0.308068
0.399492
0.484967
1.88237
0.34992
0.389196
0.403982
0.374878
0.446525
0.539371
0.460785
0.367276
0.377801
1.04989
1.05629
0.172211
0.375454
0.322717
0.346591
1.50197
0.823573
0.368271
0.627797
0.316019
0.413139
0.534411
0.532657
0.318884
0.316966
0.311963
0.369909
0.89577
0.433599
0.336132
0.718094
0.301193
0.93053
0.694889
0.448681
0.678718
0.34607
0.299257
0.313968
0.303246
0.348964
0.372736
0.31274
0.327759
0.313748
0.30107
0.479157
0.606
0.704518
0.305264
0.450596
0.340985
0.369873
0.326368
0.584397
0.333956
0.321441
0.318191
0.299696
0.308223
0.312254
0.434135
0.294419
0.337732
0.347357
0.588557
0.307321
0.367381
0.480886
0.769101
0.879866
0.364154
0.849371
0.485314
0.350406
0.324634
0.509954
0.318459
3.33847
0.39321
0.306179
0.400705
0.435319
0.384434
0.431212
0.697506
0.973929
0.419761
0.833107
0.322468
0.293786
0.369838
0.299884
0.298634
0.384746
0.300325
0.302847
0.55887
0.300743
0.239185
1.72209
0.539966
0.297642
0.298676
0.614082
0.317277
0.310412
0.548942
0.310543
0.725523
0.375439
0.75807
0.299534
0.520983
0.420049
0.643779
0.304397
0.416323
0.304787
0.973997
0.364327
0.298869
1.25186
0.405531
0.481907
0.335302
0.350755
0.373675
0.299165
0.482358
0.298741
0.305232
0.299222
0.427449
0.542796
0.309005
0.305405
0.306478
0.302126
0.314708
2.04747
0.298881
0.434317
0.298331
0.545335
0.336717
0.347611
0.342501
0.445413
0.318277
0.394958
0.289902
0.321896
0.316653
0.329207
0.299395
0.413851
0.384533
0.885502
0.951796
0.766394
0.37377
0.323714
0.323003
0.298891
0.301765
1.0268
0.612182
0.37811
0.350222
0.291648
0.316089
0.290045
0.304928
0.505517
0.490647
0.743414
0.952236
0.34972
0.357376
0.381648
0.298748
0.548047
0.346057
0.434954
0.355652
0.339205
1.05509
0.392796
0.292549
0.318842
0.381574
0.305132
0.485731
0.298306
0.658958
0.352936
0.882608
0.473138
0.748201
0.306349
0.31756
0.335112
0.374406
0.341225
0.358236
0.304121
0.29805
0.303584
0.3111
0.354885
0.571438
0.349887
0.832564
0.395539
0.316831
0.496482
0.381689
0.361451
0.259744
1.03579
0.853479
0.242992
0.313834
0.304938
0.820077
0.300294
0.394064
0.358574
0.34592
0.27487
0.357936
0.355583
0.298362
0.400079
0.412908
0.94137
0.509196
0.418778
0.289509
0.378999
0.505773
0.329277
0.301381
0.857374
0.795045
0.328656
0.742005
0.305605
0.2972
0.377377
0.305221
0.862402
0.295538
0.296869
0.301522
0.631855
0.298119
0.337967
0.433671
0.440548
0.297017
0.314629
0.319773
0.318753
0.304214
0.344435
0.346402
0.569557
0.407294
0.36323
0.552263
0.355269
0.580575
0.342223
0.86583
0.42403
0.269738
0.634545
0.176497
0.41156
0.504339
0.56242
0.376446
0.297743
0.29981
0.293414
0.35336
0.806445
0.367168
0.296913
0.345176
0.355931
0.29022
0.461124
0.322094
0.364883
0.441321
0.316932
0.304557
0.330855
0.321005
2.15476
0.911092
0.363626
0.353059
0.404623
0.348547
0.779739
0.927801
0.978982
0.753786
0.340553
0.316078
0.322745