/*--------------------------------*- C++ -*----------------------------------*\
| =========                 |                                                 |
| \\      /  F ield         | OpenFOAM: The Open Source CFD Toolbox           |
|  \\    /   O peration     | Version:  2506                                  |
|   \\  /    A nd           | Website:  www.openfoam.com                      |
|    \\/     M anipulation  |                                                 |
\*---------------------------------------------------------------------------*/
FoamFile
{
    version     2.0;
    format      ascii;
    arch        "LSB;label=32;scalar=64";
    class       volScalarField;
    location    "0.0721333";
    object      nut;
}
// * * * * * * * * * * * * * * * * * * * * * * * * * * * * * * * * * * * * * //

dimensions      [0 2 -1 0 0 0 0];

internalField   nonuniform List<scalar> 
47425
(
0.00490107
0.00482656
0.00428448
0.00195211
0.00319717
0.00439669
0.00431624
0.00314828
0.00742777
0.00237741
0.00239428
0.00738627
0.00491524
0.00388002
0.00313696
0.00370682
0.00443449
0.00237657
0.000245634
0.00266946
0.00372203
0.00672318
0.0030253
0.00489996
0.00665354
0.00669697
0.0037798
0.000480984
0.00415968
0.00536571
0.00709628
0.00713847
0.00745915
0.00430709
0.00520193
0.00464094
0.00676887
0.00537818
0.00457684
0.0041704
0.0049785
0.00448186
0.00487108
0.00260976
0.000908656
0.00329081
0.00340868
0.00451871
0.00379693
0.00625277
0.000629601
0.00260923
0.00591497
0.00117167
0.00323087
0.00293325
0.00658902
0.00505146
0.00248358
0.00496981
0.000913502
0.000706515
0.00105166
0.00288326
0.0073849
0.00667128
0.00555504
0.00407189
0.00108048
0.00515182
0.00383585
0.00549812
0.00596782
0.00338318
0.00149152
0.00746319
0.00109695
0.00376106
0.000192655
0.00188683
0.00144809
0.00472186
0.00706382
0.00742905
0.00584755
0.00381782
0.00532887
0.0053882
0.00404268
0.00145472
0.00688464
0.00438971
0.0070736
0.00321142
0.00257919
0.00186665
0.00621197
0.00553886
0.00347162
0.0045028
0.00556574
0.000931336
0.00581975
0.000957263
0.0059454
0.00695831
0.0059449
0.00337199
0.00601901
0.0070372
0.00356792
0.00517093
0.00571221
0.00224816
0.00731695
0.000334836
0.00734171
0.000723875
0.00426313
0.00521675
0.00397517
0.0074714
0.00590331
0.00249254
0.00357547
0.0066321
0.00372091
0.0074179
0.00332875
0.00707204
0.00678999
0.00338138
0.000994345
0.0028735
0.0045088
0.00436346
0.00641235
0.00636859
0.00441241
0.00313603
0.00499004
0.0021788
0.0046403
0.00487619
0.00624441
0.00742414
0.00367495
0.00542212
0.00237714
0.00499669
0.00490417
0.000537452
0.00738985
0.00041297
0.0028676
0.00377767
0.00279918
0.000300145
0.00377014
0.00450212
0.00741738
0.00679662
0.00582648
0.00658727
0.00117528
0.000417772
0.00743246
0.00147372
0.00312986
0.000775612
0.00156258
0.00404052
0.00479068
0.00319597
0.00477822
0.0012189
0.000386786
0.00413955
0.00556207
0.0068446
0.000314195
0.00594494
0.00481699
0.00644387
0.00635466
0.00696023
0.00535096
0.00107534
0.00233367
0.00511991
0.00746955
0.00410758
0.00496696
0.00474285
0.00644011
0.00730754
0.00582737
0.00440872
0.00743432
0.00342993
0.00497134
0.00295449
0.00560476
0.00727106
0.00235535
0.00236105
0.0054402
0.00721205
0.00400776
0.00747105
0.0046615
0.00452954
0.00745918
0.00331059
0.00466606
0.00467561
0.00392266
0.00187328
0.00323385
0.00380201
0.00181065
0.00236812
0.00432832
0.00308511
0.00237705
0.00160746
0.00647176
0.00242942
0.00715175
0.00386747
0.00417584
0.0042927
0.00327822
0.00748889
0.0022167
0.00343022
0.00167073
0.0029417
0.0018732
0.00201063
0.00400258
0.00481147
0.00700012
0.00296339
0.00669359
0.00733162
0.00441308
0.0059
0.00681877
0.00390743
0.00705283
0.00214336
0.00451825
0.00742026
0.00337772
0.00698358
0.00665056
0.00300698
0.00320692
0.00739659
0.00302918
0.00745961
0.00393077
0.00265683
0.00503672
0.00387281
0.00676432
0.00429962
0.00467668
0.00392889
0.00392455
0.0020908
0.00174429
0.00605296
0.00218259
0.00207259
0.00218323
0.000535838
0.00179181
0.000588028
0.000906545
0.00491226
0.000821784
0.00293248
0.00387715
0.00353779
0.0033565
0.00350074
0.00398292
0.00745023
0.000741543
0.00496472
0.00737543
0.00521911
0.00448997
0.00328152
0.00284665
0.00641886
0.00481493
0.00485227
0.00376112
0.00669327
0.00376978
0.00493641
0.000976603
0.000812881
0.000539657
0.0070125
0.00607378
0.00692698
0.00316812
0.00080656
0.00367068
0.00280667
0.00186528
0.00459239
0.00327158
0.00302299
0.00334886
0.00145403
0.00193094
0.00694549
0.00508131
0.00614066
0.00408878
0.00678973
0.00396345
0.00463388
0.00555894
0.00413813
0.00355663
0.000961623
0.00375481
0.00403589
0.00297233
0.00698461
0.000835881
0.0063218
0.00638507
0.00563332
0.0067778
0.00672364
0.00642194
0.00577947
0.00558921
0.00589692
0.00498676
0.00645635
0.00362219
0.00399631
0.00666955
0.006611
0.00506077
0.00647764
0.0065449
0.002527
0.00395571
0.00707751
0.00639014
0.00385729
0.00192823
0.00544165
0.00410424
0.00332776
0.00615664
0.00651373
0.00278332
0.00743424
0.00481765
0.00691185
0.00275589
0.00124883
0.00382443
0.00713003
0.00192608
0.00708563
0.00405134
0.0038336
0.00502325
0.0067391
0.00563158
0.00694992
0.00693905
0.00481459
0.00399178
0.00439932
0.00378474
0.00574182
0.00717402
0.00380801
0.00603398
0.00596958
0.00400389
0.00523304
0.0045802
0.00635067
0.00516406
0.0035397
0.00329004
0.00597457
0.00100623
0.00652464
0.00218086
0.00466102
0.00343528
0.00340559
0.00630722
0.00237732
0.00636698
0.00350668
0.00654271
0.00113358
0.000992557
0.00685398
0.00257135
0.00381823
0.00356154
0.00379431
0.00411066
0.00373886
0.00398467
0.00475631
0.00641529
0.00304591
0.00442017
0.00608096
0.0035908
0.00388152
0.00590157
0.000870996
0.000377004
0.00662172
0.000473885
0.000477402
0.00394104
0.000452009
0.000986561
0.00623958
0.00379332
0.00402878
0.0038447
0.00102181
0.00374805
0.00587425
0.00609485
0.00412348
0.00410968
0.00395736
0.00371632
0.00111407
0.00074482
0.00120714
0.00543755
0.000961731
0.00378852
0.00511626
0.00703776
0.00502557
0.00709995
0.00422917
0.00479
0.00284693
0.00437838
0.00748961
0.00381454
0.00505658
0.00426055
0.00718159
0.00475787
0.00453805
0.00523093
0.00562939
0.0033879
0.00275248
0.00501323
0.00410511
0.00711182
0.00133117
0.00277724
0.00195102
0.00744304
0.0025497
0.00314754
0.00283822
0.00690048
0.00387052
0.00740268
0.00486208
0.00277666
0.003235
0.00348179
0.0031101
0.00529455
0.00225558
0.000847857
0.00621958
0.0015373
0.00558604
0.00156379
0.00596164
0.00571724
0.00678372
0.00436694
0.00511153
0.00291974
0.0048928
0.00640428
0.0068957
0.00597885
0.00430011
0.00261338
0.00351658
0.00700968
0.00548375
0.00483425
0.00504903
0.00510293
0.0047478
0.00435288
0.00243833
0.00472285
0.00372038
0.00065597
0.00504653
0.00437097
0.0062289
0.0074118
0.00170473
0.00214147
0.00436798
0.00590152
0.00422447
0.00402302
0.00683797
0.00204765
0.00747829
0.00443986
0.00231655
0.00269992
0.00506919
0.00277858
0.00717041
0.00417021
0.00421388
0.0054499
0.00684531
0.00558247
0.000916003
0.00472887
0.002413
0.00652681
0.00187652
0.00619854
0.00502647
0.00203291
0.00236176
0.00443497
0.00652091
0.000714201
0.00531672
0.00522072
0.00521704
0.00608043
0.00666055
0.00221906
0.00288755
0.00605884
0.0049074
0.00458875
0.00682835
0.00191369
0.00686676
0.00498468
0.00042062
0.0043024
0.00696515
0.000815365
0.00127231
0.00704589
0.00031653
0.000332957
0.00416446
0.00744587
0.00558187
0.00678697
0.00426156
0.00379776
0.00131693
0.00690598
0.00267504
0.00594651
0.00200302
0.00223877
0.00433119
0.0046993
0.0015195
0.0069781
0.00583418
0.0033925
0.00334966
0.00243079
0.00296135
0.00297422
0.0066788
0.00331799
0.00285124
0.00292539
0.00532543
0.0028588
0.00322646
0.00631285
0.00243039
0.00362174
0.0038985
0.00267408
0.00333235
0.00432815
0.0049296
0.00592731
0.00162388
0.00507696
0.00639056
0.00627339
0.000292012
0.0038898
0.00486952
0.000511718
0.000823935
0.00696865
0.00462691
0.000143372
0.00204244
0.000757516
0.00259176
0.00315409
0.000761602
0.00493908
0.00605675
0.00590941
0.0028839
0.00335451
0.0033283
0.00627517
0.00311121
0.00441676
0.00376752
0.00601323
0.00423552
0.00373662
0.00169932
0.000975204
0.00274871
0.00282883
0.00396885
0.00573831
0.00342081
0.00741649
0.00605406
0.00567853
0.00526699
0.0055737
0.00190134
0.0046948
0.00624826
0.00183446
0.00191687
0.00102775
0.00115381
0.00386768
0.00711445
0.00480917
0.00680836
0.00124354
0.00434926
0.00130088
0.00415334
0.0038762
0.00497627
0.0046199
0.00548882
0.00333324
0.00184308
0.0034466
0.00507413
0.00188376
0.00414732
0.00748588
0.00416063
0.00396024
0.00193712
0.00482619
0.00184041
0.00328691
0.00747321
0.00678506
0.00246092
0.00402166
0.00350414
0.00743281
0.00500475
0.00399486
0.00435811
0.00405513
0.00384065
0.00464108
0.000864525
0.000593792
0.00422642
0.000773498
0.00442776
0.00283676
0.003344
0.00610995
0.00436719
0.00467667
0.00400515
0.00395813
0.00663941
0.000558454
0.00244105
0.003298
0.00506736
0.00635379
0.00371108
0.00519556
0.00236624
0.00732033
0.00191666
0.00397679
0.00668808
0.00406174
0.00640937
0.00520054
0.0043515
0.0058388
0.00349163
0.00705576
0.00639693
0.00361256
0.00100121
0.00710029
0.000742683
0.00228477
0.00205751
0.000746171
0.00412301
0.00392495
0.00206189
0.00338171
0.000787459
0.000822815
0.00090969
0.00315423
0.0047452
0.00354444
0.00288525
0.000840657
0.00244089
0.00360992
0.00544162
0.00425581
0.00408238
0.00306554
0.00558845
0.00413956
0.00126806
0.00190597
0.00555516
0.00246468
0.00105358
0.000678131
0.00378097
0.000574364
0.00183552
0.000647599
0.000828319
0.00449994
0.00299641
0.0067894
0.0063699
0.00472861
0.000732638
0.00120757
0.0046814
0.00476173
0.00695093
0.000889317
0.000872704
0.00699428
0.00223493
0.00358945
0.00698349
0.00218768
0.00701313
0.00692838
0.00418559
0.00471864
0.00152941
0.00624061
0.00695436
0.00492001
0.00515026
0.00512615
0.000993067
0.00191208
0.00683299
0.00120268
0.00601873
0.00635158
0.00632694
0.00175331
0.00447173
0.00197706
0.00257661
0.00548253
0.00698389
0.00122852
0.000638446
0.0043693
0.00379305
0.00193044
0.00523144
0.00560976
0.00294233
0.00269985
0.00294507
0.00681553
0.00244564
0.00106752
0.0074237
0.0010619
0.00512398
0.00394849
0.00664912
0.00198045
0.00264241
0.00682108
0.00420284
0.00122555
0.00315028
0.00186946
0.00451305
0.00523641
0.00450819
0.00352437
0.00436856
0.00301087
0.000674294
0.00450115
0.00250927
0.00177162
0.00175686
0.00105665
0.0017142
0.00405758
0.000536954
0.00671377
0.00635825
0.00396814
0.00276531
0.00375721
0.00136878
0.00129964
0.00316658
0.00449619
0.00435656
0.00312227
0.00352683
0.00386662
0.0103884
0.00138168
0.00389818
0.00374201
0.00284097
0.00180443
0.00604855
0.000542583
0.00387684
0.005372
0.00386731
0.00390815
0.00881594
0.00653574
0.00329895
0.00386329
0.000681423
0.00269151
0.00474639
0.00361691
0.00546913
0.00348186
0.000754708
0.00462405
0.0022207
0.00539926
0.00176891
0.00286743
0.00376016
0.00546094
0.00528992
0.00357869
0.00217881
0.00380249
0.00159722
0.000736207
0.00518069
0.00678002
0.00478717
0.00102081
0.00512787
0.00269766
0.00695575
0.00165965
0.00162059
0.00367307
0.00295884
0.00434279
0.00690923
0.00514754
0.00313685
0.00114428
0.00214643
0.00112396
0.00643509
0.00217789
0.0024036
0.00297716
0.00349928
0.00524931
0.00167801
0.00163605
0.00364678
0.000898777
0.00350058
0.00349699
0.00417841
0.00472834
0.00360114
0.00466548
0.00119191
0.00438237
0.00414411
0.004278
0.00584624
0.000771127
0.00262193
0.000690225
0.00151221
0.000816722
0.00206876
0.00382554
0.00125641
0.00341874
0.00122945
0.00198281
0.00202961
0.00152153
0.00289959
0.00505341
0.00416569
0.0074683
0.00140102
0.00366811
0.0033781
0.00429244
0.00130114
0.00565195
0.00424209
0.00581834
0.00746034
0.00289683
0.00177096
0.0029348
0.00306488
0.00513172
0.00230788
0.00650952
0.00312415
0.0030549
0.00651469
0.00228741
0.00229213
0.00419936
0.00200023
0.00376579
0.00332814
0.00204411
0.00290527
0.00306608
0.000217123
0.00065587
0.00173146
0.000767817
0.00327036
0.00322595
0.000598357
0.000923586
0.00477802
0.0010069
0.0033012
0.00418021
0.000549169
0.00260037
0.00684858
0.00315476
0.00142925
0.00583688
0.00067495
0.000338812
0.00220973
0.000816857
0.00221381
0.000927513
0.000837393
0.00531908
0.00443879
0.00275176
0.00181431
0.0036325
0.00721474
0.00202652
0.000680612
0.00437976
0.00162945
0.004233
0.0020001
0.00612093
0.00578313
0.00246724
0.0023506
0.00413331
0.00173673
0.004827
0.00142079
0.00691362
0.00562847
0.00457832
0.00228395
0.00489929
0.00703908
0.000767045
0.00196252
0.0018014
0.00368303
0.00249817
0.00233624
0.0012056
0.00396683
0.00112806
0.0030551
0.00499476
0.00309682
0.00253417
0.00094516
0.00194743
0.00172633
0.00587785
0.00477204
0.00197438
0.00396818
0.00282944
0.00499496
0.00740451
0.00614957
0.00384956
0.00307751
0.000807944
0.00387355
0.00049409
0.00372227
0.00433828
0.00297733
0.00506664
0.00368744
0.00398563
0.00440594
0.00192981
0.00554808
0.00141889
0.00692121
0.000363398
0.00134916
0.00141643
0.00197095
0.00410262
0.00530619
0.00342487
0.00488389
0.000626065
0.000739091
0.00337639
0.00216882
0.000991659
0.00091972
0.00231267
0.00114935
0.000609688
0.00350747
0.00462782
0.000555744
0.0038171
0.00443954
0.00416845
0.00115389
0.000541121
0.00385972
0.00361903
0.00128872
0.00255625
0.00136128
0.00074793
0.00324357
0.00108736
0.00116987
0.00334685
0.0044762
0.00112994
0.00578096
0.0016571
0.000233413
0.007036
0.00426772
0.00375705
0.00521431
0.00299149
0.00301578
0.00724115
0.00295785
0.00411741
0.000808336
0.00157054
0.00444209
0.00141329
0.00604504
0.000386185
0.00675419
0.003503
0.00232479
0.00518653
0.000980647
0.0038833
0.00302375
0.00235956
0.00385459
0.00391875
0.00563948
0.00210921
0.000679122
0.00578773
0.00148254
0.000707467
0.00237534
0.00350513
0.000992443
0.0016685
0.00478123
0.00518143
0.00102109
0.00172966
0.00227495
0.00081549
0.00258599
0.000911484
0.00345946
0.00276737
0.0021366
0.000996128
0.00536128
0.00540401
0.00210304
0.00428461
0.00255693
0.00408198
0.00129209
0.00503975
0.00355061
0.00575594
0.00143697
0.00560393
0.000605615
0.00217973
0.00556621
0.00739776
0.00187626
0.00162506
0.000869535
0.00192736
0.00202582
0.00109095
0.000856662
0.00397883
0.000922356
0.00507787
0.00281865
0.000410007
0.00149384
0.00308877
0.00346558
0.00561307
0.00146068
0.000767142
0.0015687
0.00287368
0.00755871
0.0070119
0.00177985
0.00392242
0.00379481
0.0062778
0.00102523
0.00312591
0.00161466
0.00409803
0.00153765
0.00398486
0.00310417
0.00108973
0.00182163
0.00237351
0.00247098
0.00542432
0.000397439
0.0016393
0.00151732
0.00141834
0.00540153
0.00523639
0.00103466
0.000794226
0.00162726
0.00268252
0.00279251
0.00159139
0.00238794
0.00154211
0.00531302
0.00129288
0.00131924
0.00532446
0.00116545
0.00334453
0.00254577
0.00272033
0.00126279
0.00246296
0.00571444
0.000687778
0.00330106
0.000654303
0.00261004
0.00361227
0.00303358
0.00190832
0.00127133
0.00231313
0.00389281
0.00291541
0.00117627
0.00381956
0.00415483
0.000684003
0.00676073
0.00358316
0.000853267
0.00343261
0.0026462
0.00238329
0.0023898
0.00117381
0.00359539
0.000155747
0.00225387
0.000770027
0.00294957
0.00111959
0.00268233
0.000880004
0.00138206
0.00136995
0.00307778
0.00395872
0.00741052
0.00402069
0.00358824
0.00288714
0.000716307
0.00375765
0.00595757
0.00416121
0.00481975
0.00298111
0.00415602
0.00708007
0.00745264
0.0029856
0.00096504
0.00656938
0.00278224
0.00236007
0.00520396
0.00627784
0.00282817
0.00217943
0.00747109
0.00539575
0.0033134
0.0035028
0.00574402
0.00387983
0.0011534
0.00385613
0.00328954
0.00549813
0.00680455
0.00204889
0.00462434
0.00579181
0.000841504
0.00207547
0.000955591
0.00649221
0.000932855
0.000422283
0.00561036
0.000386435
0.000774707
0.000556561
0.00391346
0.00462938
0.00424164
0.00138576
0.00677559
0.00439658
0.00446991
0.00386123
0.00270079
0.00344546
0.0034269
0.00102993
0.00430507
0.0026776
0.000822754
0.00400547
0.000317137
0.00165375
0.00123537
0.00628667
0.00301458
0.00193033
0.00566682
0.00458798
0.00192728
0.00691598
0.00293721
0.00166599
0.000440274
0.00714965
0.00148178
0.0050304
0.00297952
0.00288646
0.00517951
0.00133463
0.00456658
0.00208403
0.00440793
0.00129424
0.000279388
0.00384795
0.00678575
0.0023721
0.00460411
0.000897592
0.00374558
0.00373782
0.00437478
0.00413703
0.00537022
0.00721449
0.0037201
0.00218299
0.00516006
0.00218445
0.00396395
0.00376288
0.00704281
0.00229823
0.00304402
0.00399235
0.00505102
0.00446593
0.00447195
0.00307309
0.00413425
0.00435481
0.00572782
0.00233437
0.0026037
0.0074721
0.00383084
0.00352605
0.00502924
0.00379813
0.00320084
0.00368898
0.0036822
0.00387602
0.00554611
0.00383351
0.00566781
0.00462176
0.00614972
0.00203744
0.00222522
0.00196174
0.00361922
0.004681
0.00404354
0.00119415
0.00510891
0.00492512
0.00532344
0.00147086
0.00298333
0.00123035
0.00122923
0.00126029
0.00316851
0.00441729
0.0040034
0.00411196
0.00618373
0.00118826
0.00392501
0.0062405
0.00404397
0.00314608
0.00390734
0.00150038
0.00392238
0.00235749
0.00268876
0.00336017
0.00598432
0.00432341
0.00367185
0.00373536
0.00445938
0.00297121
0.00324206
0.00275428
0.00365155
0.00508203
0.00493862
0.00211179
0.00189166
0.00460913
0.00408308
0.00229864
0.00371468
0.00227624
0.00636842
0.00509505
0.00229297
0.00455387
0.00561405
0.00461868
0.00667292
0.00630151
0.00335972
0.00424561
0.00216499
0.00433516
0.00229074
0.00573966
0.004249
0.000990464
0.00394916
0.00419679
0.00487813
0.00500266
0.00393144
0.00424103
0.000317614
0.00346515
0.00362072
0.00579603
0.0050744
0.00493485
0.00700644
0.00602317
0.00350165
0.00404242
0.00603741
0.00648951
0.0027303
0.000975879
0.00126735
0.00298762
0.00174133
0.00350275
0.00380159
0.00353507
0.00222341
0.00193855
0.00322948
0.00391761
0.000826726
0.00469231
0.00391027
0.0037978
0.00393836
0.0058854
0.000298624
0.00455303
0.00355024
0.00743041
0.00261138
0.00249156
0.00040723
0.000226969
0.00453046
0.00557546
0.00679764
0.0039353
0.00360642
0.00481586
0.00020611
0.00141552
0.00463737
0.00250716
0.00128375
0.00478241
0.00525212
0.00345816
0.00675917
0.00488256
0.00644104
0.00418152
0.00277912
0.00383468
0.00417279
0.00505113
0.00185896
0.00418579
0.00743716
0.0015174
0.00571919
0.00334432
0.00286449
0.00104899
0.00169088
0.0034228
0.00287963
0.00480824
0.00284779
0.00283079
0.0059115
0.000580693
0.00167639
0.00287974
0.00385534
0.00339964
0.00381844
0.00377899
0.00109917
0.00702985
0.00649352
0.0057417
0.00538231
0.000854901
0.00125664
0.00126063
0.00180572
0.00297114
0.00287971
0.00705316
0.00673331
0.00454909
0.00481479
0.00500837
0.00544477
0.00699061
0.0010547
0.000761373
0.00693086
0.00570139
0.00258995
0.00249937
0.00285891
0.00694228
0.00482694
0.00176568
0.000889469
0.00338906
0.0020109
0.00370279
0.00149193
0.000548417
0.00307195
0.00600304
0.00683842
0.00617166
0.000889495
0.00515777
0.00435008
0.00416206
0.00702509
0.000887604
0.000382562
0.000469463
0.00164081
0.00451408
0.00580739
0.00667391
0.00216842
0.00371279
0.000907447
0.000841044
0.000853251
0.000513927
0.00083215
0.00165835
0.00646728
0.000779976
0.00739759
0.000327083
0.00390476
0.000767188
0.00444257
0.00166384
0.00531943
0.00289809
0.00224757
0.00225489
0.00442744
0.00559535
0.00398885
0.000878202
0.00104075
0.00500269
0.00516385
0.000469405
0.000468405
0.0035532
0.0016526
0.000738038
0.00150661
0.00456237
0.00654284
0.000887296
0.000725998
0.00152528
0.00703777
0.00136774
0.0060791
0.000776258
0.00108592
0.000584952
0.00235034
0.0055001
0.00147984
0.00642498
0.00460364
0.00372765
0.00212214
0.00575574
0.00350221
0.00435771
0.00376231
0.0041035
0.00645332
0.00614727
0.00326268
0.00653137
0.0055881
0.00418165
0.00378834
0.00150416
0.0037674
0.00236831
0.00400692
0.00485921
0.00384666
0.00093712
0.00340612
0.003298
0.00184867
0.000556848
0.00413834
0.00409827
0.00304446
0.000957226
0.00166667
0.00126705
0.00454943
0.00625861
0.00434476
0.00334379
0.00532551
0.00336056
0.00310919
0.00361631
0.00683254
0.0044705
0.00445011
0.00438521
0.00312645
0.00419905
0.00363464
0.000642968
0.00342006
0.00394258
0.00410943
0.00287537
0.00108216
0.00289175
0.00370925
0.00444257
0.00306498
0.0012403
0.00112415
0.00374908
0.00319325
0.000366244
0.0014915
0.00203694
0.00402607
0.00146634
0.00307894
0.00397579
0.00264673
0.0011146
0.00470538
0.00404425
0.00244957
0.00630029
0.00235083
0.00268118
0.00306349
0.00332929
0.00194439
0.00404185
0.00584244
0.00682642
0.00176382
0.00321984
0.00428121
0.00622903
0.0048551
0.000793607
0.00293939
0.00332232
0.000437129
0.00172324
0.0053531
0.00342147
0.000937188
0.00162408
0.00227209
0.00681062
0.00289791
0.00101187
0.00486126
0.00704109
0.00066254
0.00177774
0.00131954
0.00289236
0.00456808
0.00451933
0.0015259
0.000627294
0.000736738
0.0048859
0.00532063
0.00060183
0.00508392
0.00175045
0.00307868
0.00149432
0.00093409
0.0045075
0.00335221
0.00116193
0.00396955
0.00485164
0.00446493
0.00355885
0.00543788
0.000871686
0.000286766
0.00344224
0.00355459
0.000707248
0.00051348
0.000672205
0.00201305
0.00106859
0.00194477
0.000536334
0.00352553
0.00353175
0.000847204
0.00227151
0.00230505
0.00108701
0.000957809
0.00042434
0.00545405
0.00502616
0.000759899
0.00657631
0.00422513
0.000810143
0.00519947
0.00324908
0.00397333
0.00295128
0.00499708
0.00605769
0.000458252
0.000562019
0.00236642
0.00069306
0.00239294
0.00355943
0.00428452
0.00427207
0.00327839
0.00426187
0.00499672
0.00387311
0.00451205
0.000689369
0.000636982
0.00412473
0.0016617
0.00384192
0.00420218
0.0025378
0.00351507
0.0036327
0.00440452
0.000483822
0.00107216
0.00424061
0.000618751
0.00279534
0.00140548
0.00289168
0.00338015
0.00103873
0.00279743
0.00104932
0.00394473
0.00290093
0.00290034
0.00613108
0.00113162
0.00692825
0.00527725
0.00232202
0.00424454
0.00142537
0.00328856
0.00244505
0.00338361
0.00085191
0.00383072
0.00340691
0.0036319
0.00687237
0.00401598
0.00340701
0.0017381
0.000445192
0.00273542
0.000735146
0.00338254
0.0042785
0.00502138
0.00439518
0.00484387
0.00454856
0.00329216
0.00119822
0.00174566
0.00118695
0.000606202
0.00424292
0.003877
0.000156652
0.000857096
0.00479267
0.0048678
0.00121439
0.0037401
0.000697417
0.000441835
0.00265336
0.000792586
0.00128148
0.00273186
0.000731282
0.00164759
0.00558249
0.00348356
0.00101626
0.00125285
0.00608936
0.000937977
0.00641782
0.0026294
0.00427302
0.00261853
0.00180395
0.000813936
0.000996011
0.00589224
0.00568912
0.000237466
0.00669966
0.00455117
0.00115171
0.00562288
0.00276225
0.00430013
0.0031394
0.00052131
0.0014447
0.00093523
0.00166543
0.00315235
0.00107951
0.00549644
0.00470034
0.000990453
0.00640889
0.00362775
0.00261667
0.00496905
0.00125398
0.000636348
0.00656959
0.00219694
0.00687034
0.000723765
0.00382876
0.000569524
0.00277385
0.00293699
0.00549417
0.00247614
0.00265379
0.00613296
0.00430586
0.00319115
0.00691229
0.00137976
0.00322812
0.00347015
0.00621733
0.00385705
0.00346069
0.00239899
0.00285782
0.00178872
0.00301415
0.00338731
0.00367614
0.00139708
0.000547539
0.000782348
0.000692162
0.00112794
0.000813022
0.000959798
0.00250766
0.000214963
0.000722738
0.00141435
0.00170447
0.00249983
0.00103132
0.000967414
0.00222495
0.00144352
0.00206375
0.00603324
0.00252863
0.00170169
0.0037633
0.000907449
0.00330064
0.000616381
0.00182368
0.00114906
0.00137541
0.00140294
0.000741088
0.00179134
0.000643394
0.00261149
0.0026991
0.00383494
0.00163583
0.00489711
0.00535288
0.000911741
0.00326641
0.000943194
0.00181309
0.00502753
0.00233279
0.00388868
0.00147392
0.00122434
0.00655453
0.00539435
0.00157455
0.000923031
0.00362668
0.00265988
0.00117048
0.00106018
0.0041167
0.00684026
0.00383426
0.00399861
0.000767046
0.00699146
0.000870105
0.000356305
0.00490427
0.00243826
0.00403848
0.00335146
0.00086311
0.00276364
0.000762787
0.00317596
0.00416761
0.000507425
0.00102009
0.00509501
0.00230174
0.00506463
0.00629635
0.00125547
0.00312762
0.000740314
0.00352972
0.00598113
0.00259208
0.00650574
0.00459467
0.00504225
0.0045507
0.00271592
0.00205681
0.00141461
0.00403801
0.00105496
0.00519328
0.00644464
0.00214523
0.00124
0.000809941
0.000842656
0.00191003
0.00193584
0.00103024
0.000899094
0.000819756
0.000822243
0.00296807
0.00299583
0.00390626
0.0013587
0.00500428
0.00264105
0.0030876
0.00129457
0.000505511
0.00348142
0.00266508
0.00347541
0.00427192
0.00335133
0.0035994
0.00579461
0.00443196
0.00248489
0.00284575
0.00263997
0.0052185
0.00286772
0.00151409
0.000741084
0.00414389
0.000562845
0.00744387
0.00282714
0.00684366
0.0043872
0.000875809
0.00268462
0.00111219
0.00360768
0.0033888
0.00321153
0.00433012
0.00459369
0.00401524
0.00314394
0.0109239
0.00727067
0.000760913
0.00286585
0.00118673
0.00278973
0.00106564
0.00546081
0.00445999
0.0033325
0.00378852
0.00286678
0.000940205
0.00619639
0.00406471
0.00121505
0.00246716
0.00243077
0.00252264
0.00243944
0.0022322
0.00206944
0.00475856
0.00739572
0.00633373
0.00191589
0.00143731
0.00447508
0.000489631
0.00679911
0.001714
0.00665915
0.00594128
0.00177509
0.00435086
0.00635559
0.000925052
0.00742105
0.00403145
0.00135602
0.0036014
0.00663836
0.00124793
0.00656219
0.0072737
0.00105164
0.0026874
0.00286046
0.0007303
0.00709933
0.00187385
0.00127917
0.00163578
0.000910648
0.00114157
0.00433466
0.00582476
0.00280253
0.0056321
0.00175953
0.00285077
0.00486447
0.00557059
0.00348112
0.00115395
0.0029537
0.00419771
0.00299101
0.0033907
0.0024351
0.00738818
0.00209993
0.00108486
0.00357638
0.00323443
0.00451295
0.00419104
0.00281773
0.00432332
0.00215515
0.00317376
0.000596907
0.00382571
0.00703047
0.000955143
0.00286875
0.000650021
0.000956794
0.00641858
0.00327969
0.0011823
0.00309252
0.000649086
0.00138011
0.000558352
0.0013718
0.000620427
0.00301865
0.00143054
0.00152417
0.000521933
0.00111598
0.00284556
0.000621329
0.00064476
0.00252009
0.000317226
0.00118227
0.00441184
0.0033692
0.00127425
0.00090811
0.0071453
0.00362329
0.000946022
0.00071397
0.00104919
0.00123867
0.0015172
0.000778019
0.00274687
0.00359208
0.00422364
0.00670117
0.00304828
0.00620359
0.000976263
0.00292314
0.00426945
0.000651733
0.0037367
0.00227343
0.00412889
0.00584121
0.00310894
0.00419109
0.00175902
0.00616401
0.00168249
0.000590355
0.00458479
0.00616055
0.00321647
0.00476453
0.000980117
0.00392796
0.00515454
0.00592574
0.000545241
0.00593429
0.00336246
0.00632623
0.00161395
0.00302628
0.00425279
0.00563295
0.00488363
0.00148216
0.00347439
0.00252717
0.00735417
0.00675987
0.00651226
0.00476847
0.00438142
0.00347556
0.00574746
0.00328031
0.00355186
0.00229332
0.0012143
0.00106155
0.00308809
0.00170523
0.00410449
0.00260591
0.00345418
0.00369346
0.00615771
0.00313816
0.00423766
0.00605409
0.00209593
0.00448561
0.00301163
0.00101965
0.00468964
0.00267677
0.00113127
0.00349952
0.00108876
0.00180593
0.00115329
0.000326726
0.00271825
0.00496814
0.00199787
0.000438456
0.00270017
0.0068567
0.0058294
0.00488994
0.00325538
0.0043413
0.00691914
0.00685099
0.00351923
0.00272262
0.00724168
0.00637352
0.00714689
0.00500629
0.00276704
0.00167754
0.00292997
0.00589775
0.0032173
0.000905821
0.00501254
0.00566312
0.00379358
0.000578585
0.000591797
0.0037487
0.00539701
0.00448117
0.0028865
0.00439089
0.000817747
0.00166197
0.00468178
0.00397998
0.00553359
0.00334659
0.0017453
0.00447359
0.00317465
0.00341039
0.00124517
0.00193359
0.00142875
0.000904521
0.000227759
0.00212346
0.00189267
0.00379712
0.00375258
0.00328482
0.00319843
0.00534318
0.00421632
0.000466167
0.00618905
0.00176038
0.000784028
0.00325537
0.00292547
0.00074705
0.00199354
0.00388747
0.00375874
0.00715569
0.00290562
0.00105134
0.00375655
0.00144864
0.00701634
0.00252934
0.000720328
0.000821538
0.00317649
0.00293498
0.0010297
0.00440345
0.000657411
0.000575825
0.00117678
0.00741959
0.00648299
0.000303119
0.00556157
0.00050158
0.00187439
0.00301064
0.00104893
0.00110178
0.00584904
0.0070203
0.000932944
0.00588349
0.00565093
0.00459551
0.00617884
0.00421588
0.00350783
0.00204788
0.00530186
0.000350412
0.00305817
0.00364833
0.00366771
0.000301936
0.00404939
0.000547194
0.00456522
0.00293742
0.00350921
0.00106348
0.00559099
0.0041468
0.00464622
0.000947841
0.00178902
0.00176955
0.00128442
0.00264162
0.00593939
0.00076995
0.00325055
0.00316122
0.00327989
0.00426704
0.00302547
0.0038009
0.00717861
0.000359256
0.0012238
0.00422926
0.00460583
0.00320562
0.00369522
0.00266745
0.00267959
0.00439782
0.00221964
0.00419851
0.00463067
0.00409587
0.0015617
0.00435427
0.00425955
0.004371
0.00340408
0.0067495
0.00536828
0.00462312
0.00274054
0.00402893
0.00269215
0.00252716
0.00346699
0.000760765
0.00467907
0.00260111
0.00156189
0.00118257
0.00147751
0.00355408
0.00716845
0.00175842
0.000825453
0.00391704
0.000973699
0.00395541
0.0069596
0.0026539
0.00171265
0.00377223
0.0041158
0.00719172
0.00464932
0.000341259
0.0046253
0.00628527
0.00232488
0.000494208
0.000509677
0.00337483
0.000286826
0.00149717
0.00112563
0.0022611
0.00122253
0.000511518
0.00458656
0.000788337
0.00383938
0.00485325
0.00742478
0.000490011
0.00200739
0.00663342
0.00547654
0.000981327
0.00384227
0.000489769
0.00480655
0.00287265
0.00400998
0.00287523
0.000619818
0.00717616
0.0031132
0.00278344
0.00525229
0.00363638
0.0054041
0.00280372
0.000449204
0.000453698
0.000758928
0.00138235
0.00124271
0.00556441
0.00589987
0.00482246
0.00359911
0.0067199
0.00137474
0.00702631
0.000857884
0.00414947
0.00626785
0.00552117
0.00468477
0.0063682
0.00318684
0.00292623
0.00719921
0.00305363
0.000858343
0.00499478
0.000990133
0.000914153
0.00620926
0.000310372
0.000540281
0.00272236
0.00287206
0.00355949
0.00119876
0.00458913
0.00191304
0.00115567
0.00511289
0.00156802
0.00696624
0.00193212
0.00394979
0.00222723
0.00209066
0.000870534
0.00332799
0.00374343
0.000644201
0.00122843
0.00190835
0.00147259
0.00566125
0.00185163
0.00398026
0.00178203
0.00317006
0.0061234
0.00125798
0.00259924
0.00229921
0.00646681
0.000555573
0.000803534
0.000537834
0.00543792
0.00387452
0.000834566
0.000542398
0.00188296
0.0036324
0.00248917
0.00101162
0.000651083
0.00167892
0.00454212
0.00529256
0.00423987
0.00462492
0.00399049
0.000544144
0.00492125
0.00163009
0.00309585
0.00655762
0.00256075
0.0025499
0.00463413
0.0038547
0.00488479
0.00227266
0.00204655
0.00468861
0.0056552
0.00217483
0.00301913
0.00274006
0.00192392
0.00218242
0.00354572
0.00580846
0.0055982
0.00508887
0.000738889
0.00347203
0.000916062
0.00212291
0.0035904
0.00478627
0.00320762
0.00703689
0.00242628
0.00747111
0.00195639
0.00233217
0.00358896
0.00411226
0.00235222