/*--------------------------------*- C++ -*----------------------------------*\
| =========                 |                                                 |
| \\      /  F ield         | OpenFOAM: The Open Source CFD Toolbox           |
|  \\    /   O peration     | Version:  2506                                  |
|   \\  /    A nd           | Website:  www.openfoam.com                      |
|    \\/     M anipulation  |                                                 |
\*---------------------------------------------------------------------------*/
FoamFile
{
    version     2.0;
    format      ascii;
    arch        "LSB;label=32;scalar=64";
    class       volScalarField;
    location    "0.0721333";
    object      omega;
}
// * * * * * * * * * * * * * * * * * * * * * * * * * * * * * * * * * * * * * //

dimensions      [0 0 -1 0 0 0 0];

internalField   nonuniform List<scalar> 
47425
(
59.3319
67.1702
71.331
160.013
143.813
70.5568
96.4383
100.576
49.394
588.796
135.914
43.7726
72.38
78.9379
95.4913
87.4342
68.1799
47.4902
1357.91
195.835
83.9667
44.4562
103.619
62.6083
45.2161
43.5827
77.2458
690.587
69.7157
54.9116
43.1483
44.4976
47.7433
68.1605
55.5045
66.3226
44.0764
67.5581
65.5623
74.0895
71.0474
118.21
204.728
144.994
1889.29
102.833
95.1178
77.5998
78.2949
46.7417
571.107
232.839
49.2267
692.324
111.979
122.597
44.4339
58.0476
78.8537
60.8531
898.27
1198.94
862.421
43.7463
49.3523
44.4808
61.4122
87.3008
737.006
44.1651
77.9366
52.1442
48.7722
90.0856
616.399
49.4036
868.889
80.5917
1331.76
273.126
633.654
64.835
42.915
46.9242
54.8029
81.252
54.0384
53.2518
127.254
401.543
43.9649
75.7291
41.6039
114.03
146.449
193.863
47.3382
52.8291
87.7045
77.7641
60.1052
91.9348
52.0022
96.8618
49.7381
52.1715
50.4451
93.1564
70.497
44.1582
341.908
61.9395
73.3521
154.489
43.7442
881.982
42.979
227.495
77.2826
62.2651
79.1772
48.5449
58.1023
62.9945
96.0176
57.872
84.6343
49.1901
104.821
41.7384
44.7353
94.4502
124.522
118.54
107.758
68.0158
47.51
61.1724
68.5731
96.3743
70.9431
129.47
70.051
92.2035
51.452
49.3287
116.362
62.6916
149.303
72.3639
92.4199
503.581
48.7557
693.442
46.0746
83.5686
59.2132
891.542
90.8258
70.9495
43.9638
43.0091
49.5071
46.1611
423.793
814.776
45.4695
623.499
105.829
728.979
678.338
84.5209
73.8605
45.4983
70.8726
65.645
726.081
69.7699
52.4294
43.0995
993.301
48.2227
59.934
45.476
46.1685
48.3906
56.4221
75.5717
148.503
56.6071
47.9246
71.6475
82.6995
77.0204
45.7203
42.0842
61.8686
71.4539
43.1404
83.1284
65.5687
122.879
66.3516
42.5211
49.0175
158.662
53.033
42.2769
86.6306
48.4399
62.9106
65.6285
47.2053
93.0411
63.863
63.5595
76.4487
252.954
46.3987
92.9486
288.058
120.018
134.013
96.0266
166.489
242.641
45.4764
128.854
48.1057
60.667
72.03
71.6817
101.766
49.3224
164.116
91.6217
332.925
110.824
277.217
180.432
82.9873
59.7087
41.758
101.419
44.4061
49.4524
68.2169
60.6022
42.7843
76.9285
41.7891
223.654
66.6382
49.2833
91.1797
42.039
45.2022
119.233
93.8696
48.3484
123.945
47.2074
78.3794
134.524
72.4045
88.9061
43.5728
72.5744
62.7372
81.5443
79.5983
242.587
318.975
48.6097
227.509
178.228
228.319
110.941
302.162
182.702
943.146
58.6473
906.289
122.128
79.1015
84.4974
103.401
90.407
89.6224
44.9762
627.495
43.5354
50.3438
56.2917
67.2121
96.8667
110.352
46.2256
65.0646
55.4164
86.2421
43.3148
84.6501
60.0013
830.159
1022.09
660.444
41.8621
47.9201
43.0911
99.2847
683.41
85.6939
115.428
279.068
72.4588
103.775
121.505
92.8943
445.067
243.34
43.7642
59.8889
46.941
80.4041
43.1054
77.6004
62.8927
52.3989
71.4851
83.3544
723.182
55.0512
74.0419
129.126
42.0983
720.883
49.6899
45.3269
52.7165
44.9243
45.3377
45.1838
52.1594
51.1811
50.1396
59.2272
46.6183
83.1106
82.2614
45.8854
44.7289
61.8988
46.7947
46.9187
46.1329
79.9371
42.7913
47.8337
93.3987
53.8269
60.4253
76.5932
94.0378
47.9285
48.3125
129.928
48.2153
66.528
43.9895
128.651
947.921
77.6104
43.0656
200.232
43.1051
104.362
93.078
72.5499
44.2764
63.5004
43.9017
42.2541
73.7852
84.8733
82.8568
82.8717
52.3319
48.7483
81.7185
48.0242
46.3117
79.5039
56.7484
65.1756
48.1647
61.6165
87.6955
67.871
48.6685
483.288
44.7093
431.169
68.7652
104.366
101.519
46.5463
144.728
45.8032
92.8928
46.067
503.153
364.545
42.5377
49.5616
79.5444
85.1663
82.0789
73.8598
80.4412
88.5512
66.4203
45.6685
100.342
70.5824
48.0849
91.505
77.574
51.9602
145.849
1242.17
45.5031
282.46
1026.53
88.6792
1052.64
725.258
47.094
79.5346
75.1648
78.3694
658.272
85.8384
49.3233
48.3574
74.3836
74.8063
79.5696
79.6643
489.035
727.381
155.223
65.5406
72.1715
125.281
57.5901
43.3186
68.4479
42.8497
83.9821
75.8087
132.705
69.2704
49.3502
80.0449
59.3754
76.3961
42.9351
64.4658
66.9296
66.6382
63.536
108.609
118.368
61.5546
82.329
42.847
545.336
129.917
75.2043
46.3439
132.927
243.084
46.7531
42.4119
46.8558
47.3004
67.2986
49.0694
103.983
84.0773
47.5388
55.0479
140.437
98.9985
46.6122
49.8584
56.8831
53.6835
48.8328
51.2273
43.2603
68.9673
59.2292
110.074
61.4016
45.7531
42.8748
42.8483
73.2986
125.72
44.0165
41.8544
55.6978
58.5992
57.6343
58.9518
68.4521
71.7272
51.4406
76.9249
100.902
429.49
60.8839
68.6972
52.6112
49.345
134.353
132.433
75.1877
50.2257
79.1934
105.991
46.4702
143.509
48.4578
261.826
47.3135
50.4071
58.2349
128.334
41.1912
71.998
72.8987
61.1788
42.7395
51.4057
1122.11
62.571
144.536
45.168
100.333
46.3097
58.6842
85.3717
72.5413
69.4918
44.7539
392.031
54.6772
58.7599
55.6787
47.9061
43.634
57.4672
119.13
48.3223
62.5172
67.2204
43.0852
268.614
44.1587
63.1341
477.704
71.0016
42.2342
337.617
586.807
43.3304
646.851
678.235
70.1598
46.5995
51.7471
43.8753
84.9921
87.17
694.339
43.7692
124.774
48.9755
116.644
56.24
85.3085
66.3824
486.969
307.179
51.497
93.7121
101.035
84.1803
120.532
123.866
47.7716
96.8782
132.906
98.6635
67.4426
137.587
51.0321
47.6043
138.32
92.3709
77.527
118.176
99.8048
67.8239
73.4174
60.4813
53.1527
67.6265
46.7345
47.7589
1305.28
62.1268
78.2038
1004.55
975.202
42.3929
76.0015
1600.64
166.951
93.8523
298.799
119.462
763.996
59.3781
48.0564
60.0455
175.3
113.729
112.841
46.0556
117.358
67.2769
82.78
48.037
79.0491
57.9111
460.551
710.538
120.471
48.6774
85.1472
42.644
109.483
47.4197
58.2106
63.5002
65.0555
44.1321
173.894
75.5043
47.3501
66.5876
184.187
710.229
235.471
85.6645
42.6574
74.3378
43.0479
720.815
69.7124
661.043
82.9626
112.039
66.664
68.1677
58.1172
87.1832
53.976
87.9492
56.8821
205.961
91.1839
49.2336
72.4324
88.829
498.547
66.6637
201.232
69.4897
48.664
43.3037
139.507
79.5596
72.3419
45.9319
62.6006
67.7805
71.5622
80.3895
79.0999
64.5967
126.134
197.059
70.5534
98.3559
67.282
111.815
90.431
47.9282
152.875
61.4823
76.9957
77.4595
43.9207
298.044
394.973
93.8907
65.9216
46.2672
90.2689
55.6255
133.973
43.4263
264.363
79.7578
43.9024
76.2681
46.1481
58.9574
69.2374
49.4971
88.3458
41.6444
45.3049
48.2426
165.146
41.1682
345.2
265.183
267.147
381.317
77.8548
224.813
58.7704
45.9167
143.503
313.503
406.209
104.506
62.2766
127.035
113.933
165.727
126.751
93.6559
54.1826
70.0854
103.662
111.717
55.6597
80.3487
317.209
57.0418
62.7048
153.541
118.91
115.168
183.433
729.104
457.864
220.963
243.976
80.6899
118.309
44.0953
45.9652
70.5571
431.579
173.961
70.3524
71.9596
42.4975
371.982
419.468
42.1707
167.49
88.8545
42.0474
163.954
41.9507
43.213
72.1483
71.5362
83.3773
47.4685
42.2694
60.6327
68.1696
66.7944
136.565
106.58
42.8138
241.48
47.8792
46.5575
47.1086
192.531
78.1585
219.265
118.944
54.3139
43.113
67.849
1415.12
70.9197
81.6971
69.9237
64.2558
61.1331
112.622
117.978
127.943
298.705
97.1781
810.623
49.4171
65.3391
56.416
64.1381
44.9961
164.215
123.986
44.1408
284.547
93.4747
71.6694
235.684
78.7098
54.7157
69.9664
68.4228
68.6446
111.387
321.743
65.9601
74.1435
205.559
218.938
662.298
213.634
87.7316
169.818
44.6987
47.0868
107.79
182.802
85.9135
82.2386
90.9358
102.574
47.889
67.9902
102.29
98.3419
89.277
357.843
478.61
91.9726
142.046
179.75
652.643
388.325
200.126
91.7745
67.1561
96.5894
91.8694
250.025
45.719
47.655
96.4888
380.498
119.708
77.4185
97.0771
53.5527
108.391
125.724
78.6073
522.466
53.8751
65.1113
131.331
97.2574
65.4222
66.136
104.734
105.274
88.9752
57.2765
123.405
44.4724
44.5298
44.7779
79.0541
57.5083
149.551
52.3571
213.953
283.951
254.371
99.446
83.702
44.9038
70.3035
113.611
488.357
250.994
856.715
44.9154
57.7624
54.4129
316.544
88.0348
328.793
236.385
230.491
131.838
214.302
89.8793
85.5936
72.572
46.052
126.362
67.0721
75.1819
260.324
71.2264
68.6527
50.9242
266.634
392.907
152.186
207.194
655.948
190.478
90.2294
67.4556
89.1228
103.643
183.023
186.882
412.345
45.7967
58.3205
72.0291
47.8175
62.4169
100.368
95.1475
54.3179
122.129
52.8662
75.7267
50.8417
47.2953
123.1
67.2294
113.999
44.1488
44.8734
160.923
46.2731
98.3125
103.987
43.8891
62.4301
99.7621
79.5017
68.4775
79.6206
508.556
183.331
123.612
106.435
1859.47
994.435
624.113
452.054
100.997
49.32
1204.59
412.121
53.3465
62.7726
105.973
86.3649
397.077
137.559
44.7526
112.422
58.5522
49.6571
201.665
961.012
137.932
1211.52
151.026
249.581
666.47
56.7411
75.9954
133.296
333.956
91.2499
45.5119
45.7464
759.342
112.524
371.414
73.1888
160.361
48.2683
53.0726
536.224
554.599
81.4251
52.2516
76.3103
551.515
43.5407
51.6345
430.439
549.538
72.596
43.4777
1043
696.802
588.248
98.9917
293.182
522.491
590.832
79.5548
86.4382
108.594
64.2826
106.817
531.985
1329.21
64.2176
60.2126
58.7292
51.9418
46.7622
81.1859
125.618
65.6182
49.5561
48.4122
95.7605
374.891
1198.44
51
226.424
105.064
72.0478
166.822
57.3234
89.8922
76.2301
45.8539
197.752
53.3905
529.519
43.4415
787.487
448.874
637.656
201.959
102.428
62.232
101.966
66.6748
221.145
1452.71
103.641
395.169
176.941
491.095
161.487
755.636
615.669
90.7835
70.927
1676.39
88.539
48.8585
73.1863
638.628
1112.57
79.2825
52.2047
482.887
76.2302
676.257
764.496
107.415
112.538
836.379
102.735
44.178
619.357
51.3911
476.385
989.807
43.0753
69.6807
83.8121
56.5163
122.404
101.246
42.2443
121.029
89.2218
117.484
57.6227
42.7897
201.411
226.631
585.389
50.8558
93.886
233.031
45.0405
848.165
85.6053
111.447
150.937
464.007
86.3296
344.261
181.229
146.708
56.8764
500.341
223.842
272.57
88.1407
163.122
62.5066
76.032
73.0813
350.653
220.215
111.393
721.104
150.1
109.447
260.667
122.233
142.154
707.041
307.417
64.8683
155.018
83.8658
148.415
308.851
732.244
58.2897
45.3248
62.3949
472.686
63.5149
294.678
58.0288
62.3105
47.6552
153.98
54.5157
204.957
311.706
53.8112
60.1233
91.6333
79.647
969.324
415.024
116.262
754.248
350.244
121.981
237.278
64.2449
56.5901
924.307
56.5382
351.945
373.319
44.9933
58.5741
107.105
96.2749
56.2586
70.9122
156.582
72.1422
77.7375
66.1784
80.5611
235.344
66.4081
189.253
153.693
220.763
55.6864
728.629
441.637
53.8491
585.009
255.601
56.8798
104.757
622.708
216.012
46.0073
180.114
479.685
202.68
530.406
57.1069
582.998
117.366
54.7326
68.9652
107.491
187.849
120.157
65.2563
234.056
50.9606
229.669
106.095
1305.2
142.32
80.3978
117.929
268.177
55.106
294.95
110.249
107.743
585.73
78.5629
78.737
1121.81
43.1229
102.526
370.678
62.1246
293.978
526.221
150.196
69.9498
83.0622
942.492
247.008
493.818
266.491
77.4778
69.8214
99.2009
686.433
682.311
309.134
88.134
48.2485
85.5947
86.5785
129.504
329.776
92.5116
55.4799
62.4154
61.2111
44.5715
85.0543
43.6762
46.8172
120.005
79.5873
45.6978
127.534
234.09
60.4206
47.4531
129.638
64.2985
48.1057
54.6112
99.2323
93.4027
49.4787
96.9017
530.089
87.6001
48.5152
54.3462
43.322
249.926
66.5862
52.9404
644.148
529.585
288.497
47.501
625.796
147.421
62.9728
953.399
90.9566
934.738
90.5051
66.6122
81.4944
66.7452
44.5137
82.0334
83.4007
90.769
113.341
88.724
102.935
165.216
79.782
81.8844
431.182
86.512
1423.62
70.5606
700.553
46.1194
117.633
176.446
51.8533
67.7976
189.866
42.4806
507.233
332.012
1159.69
50.4915
618.511
59.1426
108.318
177.097
58.6057
592.053
89.2849
294.594
72.7615
751.949
696.689
79.2563
43.1155
459.508
67.9255
453.702
85.1055
95.014
69.5743
72.2167
56.1793
44.264
88.5488
290.798
75.0454
176.537
82.4878
86.9055
41.5222
154.786
392.346
89.205
338.324
124.757
67.5587
119.323
78.0783
73.5183
55.3023
149.204
130.525
48.5681
84.9874
82.6883
66.7589
92.8864
388.726
355.214
80.0561
88.7835
324.837
86.9417
52.1815
64.0825
47.7498
164.293
165.079
203.932
104.433
69.2725
74.2576
64.1528
56.8373
58.1506
58.2929
485.265
129.909
663.97
516.515
632.012
58.0173
67.8194
73.0082
71.2993
47.7413
327.023
81.3698
46.496
77.7519
111.638
77.2867
296.373
75.9859
156.182
115.604
96.1756
49.4698
70.0238
88.25
86.8782
67.6624
111.564
97.3856
177.484
86.4212
68.9089
78.7063
148.935
168.148
64.9242
79.2526
133.372
96.0692
168.821
46.34
56.5368
134.832
68.491
53.5743
75.2488
44.0201
48.3426
88.5176
73.5924
381.511
71.4535
88.6211
50.1279
69.7663
622.398
78.6572
84.3383
59.8563
60.3722
86.7822
85.227
930.999
106.995
425.806
50.97
59.6301
70.4235
42.0004
48.3516
108.121
80.2139
47.9872
44.911
305.732
106.83
513.701
118.527
254.414
104.414
78.4332
109.153
545.598
180.822
94.5984
77.9754
936.42
63.9422
79.309
85.2798
81.6583
59.7324
932.627
66.6034
89.4898
46.7636
122.347
54.5944
900.386
996.886
66.7289
53.1548
43.3493
89.535
92.1467
60.3913
1161.53
730.494
64.2112
136.585
468.869
64.193
179.682
122.95
43.3299
61.5084
46.4666
73.4666
206.48
84.6273
77.0448
44.5683
55.5523
74.2551
48.613
326.38
63.4577
142.516
169.566
445.128
331.48
101.053
134.642
76.4195
133.155
117.356
43.3218
600.514
336.702
131.227
90.9188
106.053
89.1888
86.6508
254.913
41.6596
44.9993
62.1876
65.0113
135.909
73.7726
355.878
385.796
45.1047
131.226
43.4324
42.7503
80.263
61.3263
63.1417
54.2138
42.0207
255.014
350.23
42.3562
60.6175
244.364
395.987
47.7576
42.1642
95.0434
177.831
920.017
92.8116
393.757
330.648
559.744
392.171
71.6889
48.981
42.4859
58.4305
952.364
56.4691
85.6803
79.7617
41.8528
668.636
1130.24
1107.41
195.904
285.826
50.3492
45.1104
53.2219
83.9842
722.174
586.015
434.926
533.604
410.241
54.3477
47.8919
850.286
47.8092
899.917
95.2422
896.739
79.4326
149.477
102.464
183.635
169.166
169.716
146.457
63.0031
88.7188
70.8424
65.2864
72.1043
66.053
1273.86
775.009
91.0113
347.02
651.98
336.678
67.1586
45.7664
612.717
494.988
512.05
43.2612
786.514
49.8332
1009.7
586.033
704.669
287.112
53.633
61.8197
46.3536
71.1593
86.6435
170.924
71.8802
84.5831
68.0933
93.7384
77.9852
45.3661
47.7086
122.814
45.116
51.7553
77.8649
100.021
96.2182
86.2554
151.37
90.0328
64.489
125.422
97.6024
89.6432
92.7479
144.785
1018.53
59.0878
333.849
69.1385
89.3231
492.314
64.0783
56.9481
47.0113
111.5
94.5907
54.2972
108.728
100.435
83.19
46.1281
66.7699
70.1756
70.9481
103.612
72.7872
97.4336
277.511
89.3461
79.6962
75.0604
110.284
77.6525
350.911
43.8772
67.6318
104.79
313.563
261.121
88.7264
100.841
934.547
229.543
185.409
89.9675
71.6347
108.558
87.603
53.6729
129.35
77.8618
86.9659
431.209
50.6725
163.913
127.749
108.715
106.181
200.994
77.6011
57.6069
43.8399
53.0132
99.2377
79.7138
454.556
62.4051
91.8258
127.911
103.531
874.697
56.2708
107.277
105.348
270.419
395.242
143.994
43.7237
135.444
65.3359
45.4436
42.6518
561.757
99.7646
57.8475
419.042
127.372
68.2746
146.194
732.302
1130.92
180.67
71.4093
798.207
88.2489
237.246
138.871
592.904
264.596
117.989
93.9955
520.253
90.9787
65.8261
83.0406
99.3053
53.8514
62.379
344.693
44.3497
100.715
557.963
154.931
567.082
87.7539
441.429
48.8099
1143.59
105.892
106.079
645.629
240.982
299.13
527.838
428.729
263.527
68.4116
70.0699
417.264
55.3822
85.1586
318.364
66.9144
57.2159
77.5547
161.873
70.4889
50.0193
736.709
485.765
183.781
288.468
166.844
92.7671
80.9686
80.9708
113.793
74.4176
57.2939
86.0228
62.9409
285.71
295.217
129.354
54.17
104.247
80.8602
125.786
105.268
97.4655
79.0224
286.1
58.4366
66.4801
281.318
131.422
585.527
201.014
98.7363
742.367
137.522
111.949
375.413
134.047
128.273
49.7073
530.371
42.5286
56.5362
50.5193
85.5027
67.3098
100.115
227.009
104.746
119.942
80.4643
110.561
99.3768
42.5605
377.237
152.711
576.365
1051.76
108.796
394.983
139.977
69.5542
461.337
68.156
60.9195
102.286
122.043
695.604
473.981
53.6689
315.817
356.077
93.114
1933.32
404.183
148.283
363.866
61.7543
88.4001
242.846
337.741
145.677
737.364
53.3772
51.9587
154.28
50.7602
48.1376
106.157
323.062
564.264
47.4302
138.149
43.3505
144.363
62.7694
143.766
318.493
93.0205
309.34
59.6346
63.3979
779.94
44.3023
53.6853
104.759
53.4325
122.899
250.019
46.1584
943.753
554.856
873.181
474.184
119.396
66.5263
53.1532
61.9073
85.4655
46.6228
85.223
148.576
62.0474
70.1611
659.941
45.5447
169.212
43.9847
135.858
71.4862
729.16
127.631
112.453
45.0613
129.476
150.682
48.8056
59.9883
97.8396
42.6321
197.207
96.8111
104.233
54.8302
44.9544
101.596
46.2332
126.928
438.89
44.2662
75.3998
50.0419
62.818
303.185
216.835
123.009
457.616
856.836
307.616
82.7465
445.107
335.262
657.861
73.9889
210.095
307.79
341.377
305.402
833.458
54.3239
44.5276
208.051
751.82
53.303
436.149
119.286
455.159
79.594
65.5705
653.416
580.623
296.491
56.85
276.771
130.396
375.631
44.2648
201.703
63.9314
56.7566
94.4588
95.5322
289.43
103.339
63.4648
160.676
79.5343
270.547
400.101
43.4838
76.6165
53.5696
866.896
94.0232
130.889
210.484
136.878
71.1872
43.5665
90.7668
75.7423
486.057
42.9501
104.343
312.924
64.5834
49.6822
77.2027
73.6648
687.822
137.762
209.768
95.1653
73.543
977.899
595.941
59.8581
142.934
60.0247
48.0337
409.174
90.7418
536.904
56.468
50.6018
94.4039
57.5842
46.8028
60.8219
71.034
135.699
252.772
261.78
387.559
69.5726
71.5942
46.9282
170.234
613.243
941.729
67.1618
418.433
178.699
684.316
76.5833
349.858
109.802
171.919
129.431
81.2859
257.164
76.4602
191.629
113.047
59.5249
1023.16
107.579
494.135
107.394
77.3885
108.67
156.971
69.449
67.9739
366.681
104.823
121.068
57.4743
122.85
496.81
126.112
79.0623
157.654
46.4742
63.0197
44.6039
74.4655
77.5212
147.272
69.8834
93.3098
95.4425
74.4477
75.7449
63.8739
73.5287
59.9672
411.109
48.9812
107.104
48.4174
67.2761
122.19
73.3017
53.8567
78.1382
99.0165
86.5985
125.553
349.355
47.2481
180.345
449.322
158.582
156.246
50.9011
156.802
92.5419
327.749
64.6361
44.3807
52.6127
168.108
55.2904
66.0067
872.424
220.73
370.986
44.3956
50.7398
190.159
81.1303
55.6361
135.214
49.1072
79.2775
53.9511
392.543
45.1571
155.014
45.1975
43.899
75.5175
66.9921
132.179
106.114
42.5429
301.219
64.0433
66.909
88.9437
805.596
65.1149
61.7965
125.124
62.4358
57.2901
121.987
60.1826
51.6639
107.57
212.908
124.802
82.5432
409.219
108.856
239.781
48.5038
182.4
63.9591
94.3989
236.921
49.488
118.358
66.1141
82.1147
154.375
71.0131
572.486
110.797
44.7776
520.403
131.392
988.002
305.237
218.036
86.1211
93.3789
122.129
366.042
59.5648
447.68
92.3636
350.2
65.2787
412.687
63.403
253.685
219.508
121.766
329.265
537.173
370.949
1117.76
536.925
386.722
468.072
461.109
324.812
42.7935
94.8606
334.708
69.0606
647.526
58.2526
508.146
622.353
117.547
99.2513
75.5939
43.7202
113.758
47.3052
250.784
130.653
82.8634
187.533
84.6004
153.387
72.1907
54.0131
110.79
48.618
217.821
47.6281
68.5586
706.647
65.4239
42.8533
103.731
63.7015
809.955
294.761
73.6048
69.6846
172.654
50.1681
85.2408
49.4911
50.6135
104.444
75.8877
55.1752
62.3153
315.256
88.1465
54.2338
43.3161
44.0185
45.9655
205.158
71.4549
94.8338
53.5555
82.2014
97.8843
55.2105
225.02
72.0482
47.7313
59.3393
82.3821
135.854
110.735
98.8042
49.9731
119.149
84.3507
51.8062
51.1594
75.7945
85.8164
101.971
67.9281
122.292
65.7562
89.8013
115.601
303.739
772.403
1114.67
121.361
60.3025
514.286
169.41
197.058
44.8727
50.9376
43.3459
89.7907
72.2928
43.4223
44.368
44.9462
110.363
42.3544
47.662
42.8621
59.6042
189.163
52.171
112.648
52.1701
97.2512
239.356
59.6782
53.7426
64.4912
1081.87
867.611
99.8161
67.1174
68.5052
59.1052
102.809
467.698
63.1619
67.4455
90.1003
42.7738
94.5796
50.2643
88.1144
111.108
91.1672
62.1513
202.38
263.861
63.5485
2067.14
264.945
198.106
61.4938
84.4949
98.9871
113.976
54.4102
74.9697
299.727
45.4404
190.603
629.086
104.627
123.211
625.808
63.9935
79.2318
91.0858
42.5672
116.425
408.208
91.4129
91.671
464.685
222.496
1049.09
626.733
99.6368
48.3817
139.539
68.0769
186.196
150.783
565.749
49.8488
45.6813
642.577
53.0385
191.926
78.1848
103.026
660.968
786.996
50.5927
43.258
921.174
50.1828
53.7257
65.9567
48.1078
81.0008
157.824
272.575
61.2084
578.999
103.689
51.6981
84.5992
722.199
79.0494
604.277
65.3497
61.6511
85.7856
84.3226
59.8858
115.935
64.7823
562.927
116.019
119.652
526.055
122.079
53.3425
710.395
114.23
104.756
84.2059
172.759
106.939
79.6189
44.6559
265.252
72.9678
71.9889
64.1446
124.625
84.2761
58.8163
45.78
67.3942
145.275
72.1176
65.9652
80.0744
481.701
72.319
71.4112
69.3105
92.8626
46.2923
63.9757
63.6109
131.499
104.568
141.149
147.889
89.3657
471.981
63.4577
56.4709
440.126
399.773
487.614
88.7453
333.063
52.2338
564.283
94.3536
304.796
95.2772
44.0085
114.193
198.015
93.0002
69.8713
43.1626
63.6088
417.757
63.842
49.6197
53.7302
1425.69
299.636
44.6237
1469.04
564.875
326.565
240.135
702.852
274.258
76.5457
277.992
87.9716
96.1843
393.556
933.449
62.4469
44.3592
54.5971
487.211
45.2272
933.01
136.826
127.873
144.227
124.13
332.772
42.4718
114.732
122.267
55.8557
104.186
53.4509
119.976
2019.32
1844.52
820.489
97.5438
699.779
43.3284
49.2263
62.3358
99.9349
44.2486
55.3463
43.3461
74.0046
89.7103
47.2319
54.5785
76.119
46.579
100.701
120.084
43.4339
114.325
120.259
43.7081
53.3125
873.066
55.9953
845.836
598.747
124.796
131.648
83.6778
122.267
68.4459
52.1246
605.418
58.6041
57.4038
47.5616
50.4813
78.1282
138.468
131.04
174.789
112.831
46.9537
568.289
60.849
326.557
388.425
63.6797
449.669
82.459
53.624
60.8608
57.409
62.6899
46.7134
128.606
50.8078
325.884
220.521
346.783
56.8641
56.6562
83.1302
300.389
496.801
93.4809
146.709
64.4525
284.206
64.1954
175.955
435.361
83.9878
56.2803
91.6105
943.302
62.7321
59.169
119.512
47.3452
136.82
124.698
140.321
84.3638
304.46
169.966
435.972
71.3974
280.957
424.246
312.217
53.5571
174.071
89.3891
102.164
53.6776
65.1646
63.0857
494.181
85.3968
98.461
289.963
82.3579
62.5912
96.4665
45.3193
142.184
48.2482
64.0408
163.729
103.56
78.8458
165.137
97.3575
94.5202
80.4009
125.516
44.3979
301.912
243.06
105.853
103.543
44.9077
273.671
59.7409
44.235
84.8322
46.7881
107.096
88.6826
50.2953
55.3123
98.3762
293.206
225.493
49.6423
812.812
44.6066
97.5313
95.0494
48.1617
767.398
147.25
664.671
49.9245
67.9257
538.622
678.167
86.8648
101.479
186.816
127.983
49.2032
101.678
63.2441
144.759
81.7984
133.184
49.8344
134.794
100.28
105.807
60.8802
87.6898
43.184
60.1329
590.339
403.505
105.775
106.669
99.9475
85.866
85.4656
163.411
43.7997
49.767
59.5186
85.8743
80.354
66.3271
111.165
51.6265
58.1432
51.8717
72.1935
57.8613
69.3642
193.767
86.9475
67.8413
973.262
77.4971
64.6128
77.9912
43.919
82.7077
206.093
45.8382
74.9337
80.8246
428.042
64.3534
63.3153
94.3756
1450.81
94.9269
156.758
118.407
65.0618
74.7843
78.4185
62.3081
855.097
93.9141
68.3196
63.2939
43.0251
282.878
46.0043
364.659
426.331
112.119
72.8035
59.3147
117.618
87.6838
56.5088
439.8
118.985
295.583
43.278
137.825
520.443
119.151
48.9566
99.0533
53.7696
523.696
56.4389
54.3567
89.3486
42.6967
60.2644
87.6412
51.6919
404.462
42.6992
380.201
46.0778
72.6339
66.6773
147.665
86.297
125.202
112.929
571.074
110.681
118.227
74.824
44.6978
104.199
58.5671
52.922
80.2011
75.8669
62.9906
122.133
46.9805
66.1307
47.3525
295.815
86.858
595.204
548.899
315.695
156.094
67.8748
70.4375
60.8917
192.586
89.4517
43.8764
42.2057
112.353
146.802
46.1655
71.0244
1035
127.988
66.0902
74.7545
494.594
840.129
59.2287
555.453
546.266
200.333
374.128
161.207
546.388
71.8828
217.512
739.322
74.5823
42.2933
61.6336
109.218
314.638
43.1298
44.1784
70.6426
142.185
152.614
893.867
108.569
1051.78
118.565
69.3457
83.7387
76.5077
76.6685
511.394
206.305
386.065
467.539
66.538
362.927
1110.91
65.7424
171.924
118.246
406.711
150.312
129.785
696.342
1037.82
108.685
626.06
125.107
434.399
80.902
44.0306
151.757
797.604
692.241
62.584
101.26
145.552
99.0519
257.265
48.5636
72.4346
962.834
374.896
350.536
68.9553
335.361
66.3506
348.311
55.7788
116.677
185.46
292.047
86.9037
122.601
281.578
105.569
863.849
71.1698
59.4155
395.145
46.4591
144.407
45.059
54.7593
43.1014
81.0753
433.482
438.649
321.493
58.397
63.3009
311.355
56.9845
529.564
72.4099
53.2531
80.1453
212.417
153.844
639.79
50.4433
72.2588
63.3296
270.651
99.3739
578.476
910.18
425.146
104.579
60.2498
432.984
327.873
150.82
46.7013
61.3737
42.5366
686.81
280.802
444.484
1173.49
240.703
94.0962
79.073
771.182
411.283
62.9277
87.5033
101.166
353.155
60.6361
47.3728
88.2219
81.0554
771.045
271.878
222.545
226.262
328.545
324.505
161.473
89.1924
830.678
404.59
715.04
200.529
349.729
666.938
149.647
57.4217
107.669
58.1491
59.2783
78.9039
77.2452
134.556
295.074
84.2844
178.511
181.867
146.521
113.115
191.178
114.822
102.913
128.264
768.049
1124.58
421.356
69.4521
117.664
82.4142
248.378
585.239
156.575
584.116
80.3323
485.634
419.133
173.996
47.1474
43.3394
69.6886
63.6682
707.668
95.7815
58.1298
469.484
71.9267
873.819
463.62
108.083
464.906
63.5336
45.3887
45.9982
42.7254
96.9228
60.6879
90.1683
129.197
72.9181
45.3394
141.946
639.616
541.409
43.8389
105.735
48.2807
62.2027
56.6863
658.122
48.1018
54.454
52.8948
103.771
45.5381
54.5278
99.377
56.0837
58.1565
52.4848
239.592
43.8773
56.5297
135.18
409.228
322.902
63.578
497.423
695.921
53.6836
52.3628
164.821
78.5589
331.274
71.9738
90.3851
82.352
252.966
67.7347
90.6498
1019.8
506.8
84.1468
629.036
46.067
46.1793
61.1362
45.4475
47.1979
70.1679
53.194
80.0093
215.452
88.7342
339.328
248.972
205.107
80.8009
43.199
549.419
129.633
82.512
539.907
101.117
688.603
61.3109
423.655
44.3709
183.092
85.8339
224.329
46.6914
85.0655
76.7454
606.913
49.0445
42.8805
193.863
81.1058
137.675
60.6284
73.3206
91.5375
47.0901
141.819
48.2103
63.3166
146.324
94.037
342.005
68.4217
45.4099
60.9946
44.4588
51.5471
305.553
42.783
96.1924
43.3154
218.768
114.282
49.4465
110.191
111.26
56.298
70.7542
75.8524
127.494
147.208
51.0972
48.3899
90.8437
66.6514
282.829
625.848
507.855
59.795
44.8127
58.4836
64.9329
89.3516
932.326
237.07
63.1066
52.7425
77.6882
46.0194
48.1105
76.2113
153.613
201.875
513.772
357.285
56.6226
78.0478
72.3794
42.9443
220.656
72.1365
116.755
112.562
49.0828
991.829
76.8263
57.4786
70.3282
73.1346
158.369
618.575
44.7181
460.584
54.239
732.945
125.024
533.006
69.4634
43.6056
60.3841
104.677
48.3905
48.5083
124.269
44.4118
43.6951
54.5109
60.9067
238.355
52.4707
753.215
70.4596
60.0286
157.288
171.477
48.3929
400.746
960.564
743.184
484.604
435.455
55.082
380.423
288.571
72.3503
57.0718
52.875
663.304
90.0627
95.6323
48.2717
78.4669
285.021
774.147
160.191
85.9612
45.7414
65.2239
214.477
45.3012
55.7658
617.317
451.085
236.679
771.185
73.7299
46.5389
69.6658
80.9708
1133.72
50.6314
45.7779
43.1795
266.945
46.571
49.931
90.4925
100.262
44.5551
112.424
45.7348
143.224
85.7692
140.965
49.8997
238.546
86.9206
111.396
161.742
110.169
215.673
48.2389
623.967
94.0699
284.946
307.26
319.229
85.625
127.701
207.365
65.5877
44.5751
50.9773
53.5281
85.8484
571.376
115.618
46.0238
82.1851
64.8944
48.5165
119.919
62.0523
133.899
102.738
46.4924
97.3579
48.4185
78.5925
296.699
590.466
71.6382
99.3628
80.0128
103.046
521.292
283.367
425.775
839.205
140.999
46.3369
47.8978
43.7044
104.345
825.479
79.3596
758.344
114.396
44.425
117.025
454.796
45.7502
46.1166
55.3745
74.3238
59.8564
246.861
75.6272
90.3511
317.457
52.6213
96.4611
65.8433
128.428
187.608
50.7822
691.584
81.6297
109.038
54.8276
124.203
45.7809
133.627
123.23
93.6677
90.6369
80.2482
66.2134
69.8429
49.8497
225.092
61.9582
49.9515
114.667
197.444
229.027
162.621
98.2783
110.406
193.693
70.9045
268.071
129.492
132.536
100.243
103.411
137.989
73.0042
152.804
370.475
98.519
53.2115
48.7803
278.035
88.9732
100.747
49.3028
99.1971
87.509
48.06
93.199
412.211
97.2012
71.4707
85.2265
666.858
76.5194
89.4163
147.588
58.1899
154.246
47.0341
779.198
85.5811
78.0981
81.9188
54.6384
112.442
54.6695
485.478
43.3328
76.1032
661.699
59.5588
108.578
196.84
99.0319
49.1594
593.944
59.1833
44.5011
102.608
129.358
61.123
336.878
44.6556
346.048
97.7338
43.5363
69.5884
116.007
729.699
182.762
71.8849
43.8202
130.879
409.001
307.585
116.133
123.082
976.627
213.116
272.097
127.204
80.8426
102.081
59.7943
515.966
1057.13
152.996
160.123
100.198
1105.11
457.533
550.01
397.457
185.574
64.4886
50.3033
152.802
73.7493
550.455
306.721
74.5115
905.266
106.131
115.361
71.2122
50.5658
104.717
87.0918
90.4005
80.6409
149.289
184.326
877.584
57.3933
119.11
641.312
616.14
182.268
175.863
61.4525
616.271
47.5185
65.8898
343.18
148.443
43.3606
331.618
426.184
72.5335
123.138
48.3115
93.1167
55.2158
80.9268
172.673
81.1004
611.624
43.899
50.1328
86.0089
476.329
172.919
122.569
161.971
294.149
120.935
78.2917
436.599
107.578
68.7148
216.687
796.381
233.907
59.5619
357.688
160.407
93.8659
65.7325
128.087
46.9678
112.353
79.7426
73.2684
64.0133
60.0818
85.5407
43.5008
43.4412
49.4743
100.246
49.8126
160.565
389.845
734.015
95.0815
87.8177
59.3382
48.5838
102.565
644.197
51.7788
142.526
71.9199
235.71
67.1594
138.2
222.37
434.697
47.7739
57.3197
277.892
52.9391
69.6429
138.543
95.4005
404.645
87.1386
246.314
471.3
203.878
641.723
197.407
379.474
97.2896
165.427
146.789
53.5681
489.376
139.492
84.0239
175.423
101.697
92.2134
43.6038
51.8535
49.4008
44.8063
87.8537
347.353
42.5623
952.441
110.013
350.095
113.8
380.291
1094.76
54.8282
249.168
821.492
152.612
350.107
76.7652
69.8141
766.961
999.577
288.815
168.68
51.8655
461.127
103.283
629.912
53.0509
53.2943
243.73
1017.53
60.9705
84.347
50.8047
241.006
528.71
47.7773
451.988
200.99
539.048
720.258
49.5526
340.417
74.0802
659.582
312.51
199.502
423.073
268.389
516.878
344.067
229.267
82.186
78.4586
74.2252
48.6867
53.6695
1427.13
74.1552
111.269
79.4579
81.3762
139.036
1172.72
150.952
218.22
294.278
155.883
250.761
124.294
43.8251
79.0495
1054.41
639.614
310.301
192.838
250.032
88.6126
491.189
61.1326
259.072
347.021
58.0155
548.635
90.9547
308.781
310.867
173.941
253.179
256.499
159.967
49.9559
134.094
60.5877
557.396
72.435
195.728
83.7948
268.134
54.8013
67.0754
326.269
119.778
283.551
44.634
1368.01
46.1349
59.0781
57.5348
54.4045
98.8435
520.899
182.334
100.753
657.876
73.8441
49.579
56.6286
873.44
88.1485
98.9812
849.283
364.653
910.458
549.687
177.209
247.536
157.111
185.604
732.71
65.7672
442.692
139.789
66.2065
180.157