/*--------------------------------*- C++ -*----------------------------------*\
| =========                 |                                                 |
| \\      /  F ield         | OpenFOAM: The Open Source CFD Toolbox           |
|  \\    /   O peration     | Version:  2506                                  |
|   \\  /    A nd           | Website:  www.openfoam.com                      |
|    \\/     M anipulation  |                                                 |
\*---------------------------------------------------------------------------*/
FoamFile
{
    version     2.0;
    format      ascii;
    arch        "LSB;label=32;scalar=64";
    class       volScalarField;
    location    "0.0721333";
    object      p;
}
// * * * * * * * * * * * * * * * * * * * * * * * * * * * * * * * * * * * * * //

dimensions      [0 2 -2 0 0 0 0];

internalField   nonuniform List<scalar> 
47425
(
0.765935
0.997756
0.0262757
-7.45376
-24.3554
0.0603785
-22.2211
0.0502428
12.0784
-40.2693
0.00919427
12.5443
-17.4799
-0.00136101
-3.28464
11.2296
0.0285402
23.0221
-118.662
-40.4218
1.45178
14.682
-0.0260001
0.898819
13.4455
0.858947
0.0865598
-49.1072
0.0186936
0.172087
14.6204
11.4172
12.7299
0.376892
-0.0011654
0.0204917
15.4069
12.5044
5.73067
0.972667
1.22856
-3.13037
1.14872
12.4219
-41.5156
1.02991
0.115824
12.3146
0.864312
0.479166
43.2166
-1.32991
0.211799
-36.4105
0.747977
7.52324
0.849703
0.0376597
-10.5798
0.0734004
-38.2391
-36.4407
-59.3285
19.8772
11.9286
1.91426
12.8077
-3.67042
-47.3984
21.9351
2.57372
0.710141
-0.0920026
1.54801
-50.9891
11.7567
-58.0506
0.185409
-69.4951
-24.4649
-52.8894
9.42234
19.7941
11.6422
1.67288
0.541509
-0.224432
1.08019
-6.09889
-30.2177
13.9047
0.876091
0.471758
0.512715
0.580264
0.759446
0.40088
0.587757
0.833277
10.5971
11.5172
19.7675
8.25764
44.7086
8.29052
-0.513595
1.17774
0.740725
1.44907
12.7733
-34.6397
12.4203
-0.923153
0.508889
-2.22548
32.7227
-1.81897
44.3538
6.99875
-4.90285
0.511438
12.7527
12.2871
-10.8551
10.2382
-2.38346
0.611284
11.8195
0.878304
0.580484
20.6906
-0.378964
53.5727
7.07146
-2.4544
-13.7461
1.61709
-2.30166
10.2676
-1.92629
12.794
-5.08772
4.9795
-2.08633
10.2243
11.8782
-23.1572
12.0452
4.9867
12.6772
-1.50899
35.3997
12.1201
-10.2593
20.2603
1.05536
-0.369086
-127.407
0.715597
0.295082
-3.68849
0.912816
0.618348
9.9124
-53.4023
-95.0453
12.1035
-51.6052
0.707138
-49.7986
-51.9709
0.513664
11.8732
17.4262
0.682177
12.564
25.2879
0.0400366
0.0894566
0.335772
18.6688
1.03317
0.0719417
0.112407
0.249101
11.507
9.31559
48.3572
0.384946
0.967053
12.6346
0.427747
-13.3965
12.8608
0.350589
-3.01291
12.8442
0.764031
-3.74811
0.739994
0.285554
0.0125637
1.74611
-2.71683
7.73552
0.84399
0.023846
-2.24292
11.3777
11.7662
0.711687
-3.19048
11.8366
0.870028
0.107902
-4.12964
0.754933
-28.5415
20.353
12.6406
-26.8856
-5.56858
2.57937
0.492097
1.18136
-24.7213
0.443871
-3.91364
-6.171
-10.6711
1.14303
0.150604
0.138276
12.4659
0.132824
11.546
-29.73
0.517324
-26.8582
0.146053
0.11582
0.388134
0.499909
-7.48522
7.20998
11.7665
0.703191
11.6648
0.701917
0.0496919
0.941228
-22.6666
0.0549489
12.8215
0.251438
0.175088
14.0031
0.292689
6.55892
11.6987
0.224737
12.3548
8.88931
8.80003
-13.0906
0.266391
0.0560812
-12.9424
0.287327
8.83532
9.41414
-26.9599
-29.519
9.346
-24.5331
9.50052
-25.7292
32.8261
-27.9637
30.9786
-35.1459
0.969956
-40.1883
0.612742
0.601014
-4.76968
0.580891
-0.00411071
1.31759
-2.01046
54.0306
18.7794
11.9517
0.0469043
0.100334
10.7176
-5.95724
9.66989
12.1737
-11.0845
0.919767
0.798333
0.174755
0.121422
-48.6337
-62.0333
33.3945
0.398664
0.720443
10.4472
9.72027
46.0052
-0.0116398
0.0146175
-18.9373
0.782266
0.458589
0.328058
0.158999
-34.3542
-18.086
11.0469
10.7228
0.0732131
0.514275
0.0709133
10.9514
0.892312
0.596996
0.173574
-7.74286
-55.7889
3.8821
0.0985772
12.6749
0.052696
-54.8631
12.3865
0.639133
0.734076
11.0113
10.7881
1.05877
12.639
0.562707
0.0157216
0.153181
15.0947
-0.0185475
0.162957
11.2821
6.49116
11.3859
12.2677
11.7198
-3.16146
0.39942
19.3463
12.0589
12.0471
18.0511
-5.49117
0.838455
0.124504
7.635
-0.172689
0.130075
12.0917
12.3743
9.00477
0.132981
-43.6492
-0.295414
10.1224
11.8907
9.94963
-4.41289
11.3909
11.7598
15.0092
11.6809
9.91558
0.818068
12.2441
0.92294
12.2757
0.0838539
9.30102
12.7221
0.0834928
5.33955
6.74243
-0.0023599
6.12809
0.454471
5.91551
12.7232
0.0440117
-14.3451
0.299496
-31.7674
0.44654
-36.5522
0.209944
1.60089
0.278388
0.227393
0.101665
0.0791627
0.188047
6.75614
-56.3238
56.1599
0.794394
6.25986
3.51823
1.97744
0.752312
0.0280886
0.471795
0.135035
0.650163
1.06901
1.91492
0.0486003
0.0792734
-8.69714
-6.15776
-2.66005
15.3227
-55.4293
-0.122348
25.5282
-54.7693
1.37924
-57.0252
-34.417
0.701263
-1.06172
-0.051588
-4.13575
-58.6105
0.704906
0.755615
0.493234
-4.69781
-2.36821
0.867122
1.0001
-27.5003
-56.5843
-28.1762
12.5601
18.0031
-3.7326
0.829953
-0.0781374
-14.2947
0.129447
12.5309
12.7986
12.8148
6.31234
12.7366
0.730194
9.9654
0.185888
-1.9754
0.532286
0.485699
12.5968
12.7177
11.5915
7.44657
10.7005
0.797487
-1.05802
-27.5403
11.6627
-14.3626
12.7593
-2.30661
-9.1491
12.297
0.751923
10.7418
12.0913
11.6753
8.63897
0.535217
-1.12208
10.8758
0.883685
6.7438
20.3139
0.781097
13.3487
11.585
14.8441
0.92752
0.306181
0.915059
0.132576
2.98303
0.0323963
0.137983
0.833493
1.0615
-1.12114
0.0976162
0.0765278
23.0219
0.0167745
1.40119
1.13142
0.84824
0.0410013
0.187438
10.773
6.97346
11.8526
11.8508
43.4224
0.0801455
0.0242472
12.0835
12.3094
-21.4223
-25.19
0.348205
1.12742
1.07166
-11.2564
11.4189
-28.4277
12.7275
-30.4153
26.2509
19.2271
0.0865488
-22.3659
0.247958
0.919336
0.375625
1.7879
0.128343
0.695533
-56.1605
0.255221
0.003637
0.311639
-19.7567
0.777749
0.0845106
-20.082
-16.323
0.198271
0.219729
-29.6115
0.347348
-1.09956
0.135718
0.386802
0.307637
-11.6736
-12.9589
18.9962
1.348
0.961631
0.0567105
-28.6688
17.9591
1.68932
-29.3721
0.0827924
0.238014
-29.6294
-41.9528
13.3874
-29.3724
-29.3296
0.214438
12.6756
0.113934
16.5219
11.6533
0.0977361
-45.0515
11.0885
0.0528154
0.613025
-17.5873
-10.9049
12.7211
6.03182
-51.7548
-26.9306
1.34917
0.533683
0.25323
2.09622
0.540561
0.512736
11.6494
7.73041
12.714
-2.48947
11.8559
-29.4842
5.24884
3.50484
-31.253
10.3985
0.511946
7.02486
9.82884
0.533538
12.1149
-3.22457
28.8404
11.8754
-1.54513
1.24665
-79.5222
8.83608
-12.906
-43.6647
-44.5584
0.202467
1.05619
-46.6154
0.0267704
3.29367
-28.7344
12.1676
-40.4949
0.188024
0.184051
11.9774
-37.5099
12.8232
12.8949
0.365431
0.16065
0.765991
-0.0120933
0.676878
0.916026
0.477462
-33.4249
-28.2204
1.58377
13.8097
0.235187
17.6777
11.173
12.8059
12.803
12.8641
12.7926
19.0539
2.58212
12.7286
9.29062
-5.7177
0.123809
-59.7152
-30.8225
-0.00649363
18.1346
4.23495
0.169723
-60.8473
-0.0180525
-52.9774
0.33435
-14.7964
-15.2779
0.667447
13.1567
9.21929
25.5732
0.329123
0.550217
0.354545
-18.8415
12.6615
-18.1687
0.321327
-58.1293
-13.5453
0.288582
-16.1616
12.7538
0.842824
5.48043
0.404481
-17.3957
12.6144
11.2857
-16.7366
0.255194
0.25919
0.0959669
0.70087
28.0367
26.5202
15.7341
14.9633
0.124
-0.0110732
1.69624
0.492054
-1.69026
0.142129
0.91105
0.0755939
0.948206
30.1057
-12.4389
0.0323376
11.5595
0.855127
0.777346
0.935038
0.0258241
-3.94108
-26.0776
0.8988
0.223524
0.0868767
0.896158
14.6989
0.0791765
-0.048308
0.6896
0.68158
0.959305
17.9397
34.9406
0.790787
-28.7298
-11.2954
-34.9893
-28.6841
0.35518
-5.40117
4.11591
0.150066
41.7881
-29.4023
54.1829
-12.3052
0.669778
-21.5422
0.394413
56.356
1.55861
-0.0729758
1.09778
0.18249
-12.4615
1.20315
0.854735
0.838095
-29.8087
25.1854
12.0316
12.3
44.1454
40.4679
-17.4463
-48.5555
-28.5787
45.5662
42.5097
12.1877
0.53507
17.6689
0.358517
6.13434
-29.4993
0.872057
5.32022
6.64086
0.2987
-30.2115
-30.0004
0.128855
5.44328
0.694414
0.373971
6.66667
0.328431
15.8166
0.0652774
0.58541
31.2018
0.184202
0.0373685
0.140317
0.357044
0.258516
51.2308
-20.7733
0.0710788
4.61976
0.614721
15.4987
15.9566
-16.89
0.364027
-28.2168
-18.2836
5.83845
1.98429
23.475
-44.887
0.0679753
0.0887781
-7.43443
0.858948
12.3692
3.84386
-0.0204233
12.8935
-32.136
-18.9165
-46.096
12.8652
25.9755
0.163692
-12.1988
17.2448
-17.6569
0.0291514
18.7733
-35.7763
-8.99384
-19.2448
-29.6393
-17.6621
0.16364
0.0919444
-13.6866
0.0697826
-19.0433
-27.8594
0.0244063
-21.1936
0.868019
0.888056
-39.4018
0.836895
0.697718
15.7618
15.5894
11.8057
-25.403
-7.29688
0.942566
-12.4341
47.2454
-0.806552
13.8514
1.13836
-0.531447
0.873745
0.843608
-31.2981
-57.5845
-10.5952
-0.495294
-19.6053
-20.1849
-30.2028
5.95906
0.862766
12.4318
12.62
0.999798
-13.5598
16.3596
23.4127
12.4849
-28.5518
-18.4975
2.62908
0.786431
0.434401
0.603286
32.3692
12.2107
-20.4208
0.273479
2.55362
12.3169
12.301
12.2003
12.0057
12.525
-21.1005
-3.87396
23.441
26.7964
17.1689
6.86108
-1.95503
34.8196
-0.0260102
-8.85416
-0.779395
-17.4287
-10.7391
-11.117
-1.02095
12.5292
15.0847
12.3375
0.635991
-36.8386
-32.5567
-44.5417
10.3515
-10.1604
5.27706
-21.5117
0.785874
-39.5204
0.707679
0.561478
-10.6929
9.09266
0.716935
9.5183
0.356857
4.82366
-11.9695
0.763156
-3.7321
-26.6962
-6.6444
-1.8054
16.8512
49.6261
-54.2391
40.1816
-29.1396
-60.1017
0.254751
0.776769
23.6604
0.437309
51.2781
0.471104
0.362818
-57.0603
14.6963
1.91701
0.323088
12.1105
21.7398
10.6409
0.735772
13.1224
-20.7896
9.50892
13.0292
13.2291
12.7579
0.759977
-15.4159
-8.10006
28.5698
14.1556
0.792532
10.2678
0.525
0.535081
7.78756
-11.3428
-4.18194
-12.0785
-12.0397
10.1938
-43.1105
0.649468
0.586506
0.615362
-49.5226
-51.5022
-26.682
-29.0741
-0.00192528
-1.09383
-40.7394
-30.1403
-6.59018
11.2561
0.644075
0.254024
-42.3671
3.67127
-2.30268
0.803544
8.70847
0.351795
31.3508
-113.574
-17.4114
-32.659
0.826827
54.1449
-55.1547
1.36428
10.5996
2.017
-34.3162
10.6289
-6.2938
17.4458
-28.407
0.850643
-30.2964
1.91143
-12.3404
0.484878
6.80866
-31.5889
-30.6225
9.90758
18.5324
-13.1005
-47.3313
9.31019
0.849822
-32.3352
-40.5064
11.4031
8.6502
-61.8661
-55.0724
-43.2524
10.083
-10.4661
-23.6847
-43.2367
9.54114
24.9371
-22.3936
-10.2574
-8.16064
-29.1308
-41.5881
-6.52795
7.5189
11.9691
12.1512
13.4696
9.91135
-3.96572
12.721
12.6811
13.5559
0.0140867
-28.605
-38.5977
10.5301
41.4446
-21.4099
11.0456
-17.6172
5.45245
9.94189
-10.6732
-3.38727
10.0976
8.99055
-55.146
13.0826
-36.631
-57.4616
-36.9893
9.62405
-12.7405
11.6086
1.2971
1.70616
-19.9979
-41.5997
0.593076
-29.7469
-20.8497
59.3036
-23.782
-48.4629
-31.1199
0.0197184
0.70228
-44.362
-0.42564
14.4332
0.0861347
-46.1252
-42.2688
0.00529638
-0.138847
-35.626
-14.0909
-44.5454
44.8865
0.37371
-5.67705
-48.6882
-0.741475
22.1648
-33.2679
14.5618
-60.1067
-19.6865
10.6753
0.32586
0.326085
0.222324
0.387061
0.411517
-0.819507
0.366878
6.98291
33.9943
14.7371
24.4835
-21.2395
-11.7624
28.5521
-4.7279
3.97107
-13.5923
12.8445
-71.4937
0.737473
0.493025
0.855837
-40.0565
0.716072
-61.9861
0.785047
6.20451
6.92272
-56.4252
50.3707
-30.3324
-25.7701
34.0188
-5.08784
12.2042
-10.5398
-26.7984
-27.8859
-28.8732
43.4914
12.0608
-19.5101
-30.7503
-6.83095
-6.93164
-40.3462
-30.979
2.30587
-16.7741
11.932
12.2108
-24.0795
-48.9638
-2.13325
9.80131
12.0913
-55.7455
12.2333
-11.9114
-13.7855
12.2169
12.4703
-23.3224
3.4276
49.7742
-21.9374
3.3626
29.4357
26.1888
9.43778
-90.0421
-43.0538
-17.5162
-119.34
60.9424
12.5368
-21.501
12.541
23.1758
-60.3445
2.35183
-58.2881
-31.097
-4.26731
20.5701
-8.66754
12.3878
12.4402
14.8556
-23.0245
3.41434
0.145998
25.8388
0.280559
-12.057
12.9268
-14.6802
-1.81061
-25.9368
15.4902
-61.5519
-43.9035
5.42443
-39.0253
-29.1588
0.150775
48.1291
-38.8974
-5.38601
29.1109
-12.188
-18.7612
-25.6817
-34.2287
7.04233
-47.2555
-23.5717
5.55269
-2.88154
0.511018
-25.9086
-5.08817
24.5451
-16.0144
0.771667
24.2334
0.651584
-62.8703
0.199862
0.209215
-8.18609
-25.3448
20.7843
-8.48799
-14.9078
-9.15559
-59.5722
0.11025
-14.9334
-67.2641
0.84409
-9.67101
57.1746
-8.10675
-31.2564
-54.0914
0.206026
10.0244
-0.0205886
-130.332
-29.4685
-28.5671
-28.9742
18.9844
-6.96695
-1.42501
-41.1252
-52.6807
-16.5435
0.412616
12.2626
1.13659
0.479907
1.88401
52.9335
12.6642
11.9772
-9.50807
0.525385
15.4771
12.8321
21.7258
12.414
0.416501
21.7333
13.2656
10.0583
-18.7346
1.34822
11.6862
9.5579
-12.0905
11.7834
0.507842
0.98822
10.2731
12.515
12.5434
-57.0545
11.7518
17.376
0.945058
0.270883
-27.3802
13.4422
12.9633
-54.3623
-51.4454
58.3759
14.3321
-55.9313
22.9356
1.0998
-51.8417
9.26656
-54.0074
0.70628
0.710965
12.2857
18.4254
10.437
0.776265
0.705107
1.1685
5.836
8.59722
0.791468
-20.6822
0.750838
-14.3269
57.4856
11.7716
-47.4313
-13.0937
-73.7545
0.891147
10.5086
0.137886
13.1629
0.968353
11.8377
1.11429
-44.0404
-26.4023
-39.9196
-5.08545
-11.8472
1.14859
1.7861
-33.6409
1.40435
-54.5037
-2.12423
-49.0166
1.4223
-60.4568
-89.756
-0.121289
0.0912733
-35.5904
0.264532
-35.8495
11.5205
0.81963
0.867317
0.143837
-1.14792
-1.7096
-14.2192
-33.4178
-8.89121
11.5465
1.12832
11.623
0.746283
11.5034
-37.2809
9.36333
-36.4417
0.558756
1.25632
9.05817
0.496307
9.33905
8.58758
0.197634
1.00408
12.3702
0.88802
-4.74794
0.870415
0.829541
-30.7741
-33.5571
-3.0651
0.256125
-24.66
0.752753
0.535836
0.424756
0.412914
0.121881
0.806248
11.7105
11.4274
0.861977
0.684195
40.9109
0.764286
0.843659
1.11437
-49.5997
0.0437662
-55.0924
-39.7051
-49.1796
8.66928
0.274408
0.231595
0.136884
0.901234
-45.6478
-13.1146
0.749806
0.72467
0.203596
0.19789
-28.1739
0.176903
-0.0207549
-18.0938
0.674037
0.479089
0.298778
0.478039
0.222318
0.358578
0.530851
-13.275
-18.5789
-0.00581721
11.6002
-4.36725
-11.4413
-10.1404
0.607647
0.900645
-13.0986
0.830847
0.0645294
1.19244
0.792823
-12.3517
0.028869
1.20755
0.645305
0.577956
1.24558
-7.50805
0.0060327
-45.725
0.589161
-17.4024
0.505856
0.0139589
-47.8642
0.0168733
-0.176254
0.0577886
0.745912
0.777643
-0.143375
49.9977
0.0203503
-36.4884
0.725815
0.238594
1.36273
0.712079
0.500754
0.137978
0.445335
0.707773
0.226463
-18.7254
-11.4065
-41.2506
10.0957
-15.3533
0.173413
0.825953
0.120642
-32.517
0.161409
0.193002
0.117073
-59.0392
0.104479
0.685164
-0.00705375
0.265458
1.16489
-149.151
0.0963921
1.18207
11.7287
-0.00680854
-8.21341
29.1518
24.6453
0.0424516
6.69976
0.0933983
0.846995
0.49569
0.220549
-57.683
-52.2408
0.0462887
0.760653
-45.7055
-0.0549
-8.45313
-24.2837
0.0777105
0.800049
4.56681
-0.0266566
-10.2982
0.0275741
0.533163
19.0573
1.95735
0.0568991
11.7453
-27.0762
11.7927
-30.4484
-26.4983
-30.1554
-26.3727
0.513697
11.7192
-20.2512
11.8638
-0.611091
15.9046
-37.3429
-28.0367
12.1756
-11.2333
12.1545
0.569781
0.979791
-29.2116
0.770661
0.477876
11.9926
12.0086
40.2782
43.2496
61.7285
-17.6585
27.3904
12.1904
14.2492
22.1845
12.0565
0.53643
0.136205
0.438657
-0.035282
-29.1738
-28.947
0.619469
2.16373
-5.13151
-55.0379
-2.75066
0.831861
-1.14015
-24.8471
-58.8959
0.635043
-41.0408
-10.4338
-32.1533
-43.579
-14.5299
0.280023
0.596688
12.6674
-60.4131
0.207775
12.7718
0.47778
0.184468
-51.6571
-51.4166
-54.182
-0.371685
-34.4191
15.6511
9.28704
0.917652
-17.175
-57.1626
-56.1159
-28.8352
59.3309
-29.0814
33.2235
11.631
-44.4102
12.318
-63.2671
11.7089
-59.1567
11.6061
-28.7818
2.13234
-22.4768
12.197
12.1268
1.17757
11.9871
11.8654
33.0068
2.21062
12.1027
11.8792
-71.8963
-45.9468
-16.2748
-27.026
-46.9486
-26.9412
0.934108
14.2919
-39.8164
-32.2689
-39.4224
13.2308
-52.6188
5.3945
-54.7384
-56.3482
-39.8493
-22.8895
14.5059
2.48006
8.74655
12.0413
1.53789
-33.8826
-2.66193
-0.759826
1.38756
0.13716
0.154346
1.05646
0.341432
-27.7334
0.300464
0.133844
0.485529
0.928288
-22.6793
1.01373
0.0456729
0.195953
1.4572
-12.8184
-8.49033
0.573151
12.5957
-33.1671
-55.6777
-2.91724
-47.4676
-13.174
-2.98337
-24.7952
36.3912
8.65792
7.91013
-9.38214
-0.0282615
0.138209
-5.19777
-0.0455341
-0.0569038
-1.62936
-0.00465141
1.43673
1.62895
11.3616
-6.5312
0.646401
41.9945
-0.0437399
11.9894
0.111521
-0.00627231
42.5023
-46.4251
23.5774
-0.048785
0.143646
-28.0184
-28.0824
-1.98673
0.806966
10.6431
-13.9863
0.180542
0.167741
-14.7498
11.8979
0.136454
12.5978
53.9661
0.312388
-0.164628
-18.4611
-2.69115
0.645332
0.594491
-0.300433
11.8495
11.8388
10.3159
11.9731
12.2948
3.65206
2.50545
-6.33862
-54.0643
4.41167
-7.52478
11.8919
11.7927
60.4494
2.56476
0.150236
0.062352
-22.333
-40.0771
4.82817
15.5413
-0.143101
28.4036
-6.32641
14.4289
-35.7867
46.8681
29.1685
-21.6053
4.1317
3.69899
-22.0103
-54.6825
-83.6953
-0.100971
-12.9853
-55.8486
1.63109
-16.9885
-9.05092
-40.8035
-27.8738
2.31436
15.2571
-57.4099
9.93847
-9.091
1.79794
10.2767
-1.78316
15.7517
2.002
13.9952
9.35169
-38.4707
2.83883
56.7396
-21.4958
54.6552
31.6178
-75.9439
12.8771
12.9206
-62.2841
-15.488
-2.89576
-32.5715
-26.9708
-0.448144
2.13488
1.76691
-33.1769
-4.36404
6.30825
57.5511
-9.90093
12.4703
-8.0554
-21.365
7.14992
7.23733
-37.2889
-31.8237
-29.4405
-29.202
0.44516
-18.7434
0.385884
-19.632
-11.4051
1.41733
0.0646168
-17.6976
-6.15882
-29.1341
-28.8903
-3.45698
6.36827
-0.252568
-13.7357
-24.2306
8.62351
8.33946
-18.3711
-28.6077
8.76351
-9.51751
-28.5325
0.699638
-40.798
-1.49818
-6.31694
-48.9541
0.872715
51.6143
-10.7921
0.017426
0.00317559
-1.10437
-56.312
0.755151
0.799968
-4.61453
0.331841
10.7515
0.632029
-33.1219
10.9345
35.5033
11.2067
11.1182
10.8887
0.774954
-19.2512
-10.4428
-11.8828
-53.9133
-2.83141
-42.725
-13.2279
-0.0227116
-58.1179
0.0234964
0.660856
-0.709068
-10.218
-57.3286
-28.5581
10.5473
37.2005
-15.7403
1.10172
-36.2479
-44.1091
-12.248
-46.0089
33.0868
11.7228
-13.2003
42.0573
11.7419
-71.7862
19.6019
10.5785
48.0463
33.6249
11.5363
11.912
59.5997
-41.7278
0.956889
53.3171
6.82777
11.8759
-11.316
11.7594
-33.0764
7.267
58.9989
11.9655
12.1188
36.1058
10.1278
17.6595
-5.20221
-3.45831
14.8538
-28.7947
23.4871
-23.8677
-57.4149
-73.8884
-27.4587
12.2036
35.9282
13.6994
4.06404
6.63212
11.4054
11.4768
0.616846
0.707243
40.0047
-45.117
12.3357
-30.351
1.1705
6.48342
-19.7113
-72.3399
0.755221
-17.4995
13.0705
5.41265
0.539472
9.91886
-9.53412
0.794949
1.02503
-25.4622
1.90759
0.767092
-8.54677
10.1128
0.722267
21.8263
0.717598
-21.9537
27.05
1.31933
15.3474
36.3639
-27.7498
56.2159
40.7851
-33.0503
-65.3304
-27.9821
-28.9343
-27.851
-27.9315
-30.9256
-25.1996
-35.9519
-28.1574
58.1106
-3.94125
-50.3897
10.9655
-0.785149
-40.3389
-50.0594
-5.17088
-29.3208
-18.2801
-28.4218
-16.1254
40.9435
-47.9421
-40.5686
-27.6048
23.4155
-27.4895
0.876897
-53.9807
22.632
5.45306
0.75694
-2.49052
44.9011
8.70532
-20.6414
-8.79561
12.5804
0.687525
-8.532
-27.6984
-33.0348
-2.37612
-6.21723
18.3025
-29.8612
-9.37294
0.825648
-24.7507
45.8827
-3.21406
5.03801
0.908374
1.82611
-39.7097
9.94794
7.80492
0.869364
0.88321
4.53625
-3.37601
-3.97928
62.0473
2.67726
-17.2479
-7.72723
1.49161
-55.7578
-54.562
8.67717
8.88745
8.06967
10.9695
-25.5894
-11.3361
55.7265
-9.04653
10.7478
-17.7634
-4.55509
-6.09111
8.47917
-13.8284
8.48098
-22.4931
-28.1483
-42.0771
30.9703
-14.2586
17.3055
8.75276
-57.8253
-71.6315
32.586
-53.9123
9.26969
-63.0814
32.3067
-3.09786
18.419
-21.2934
-0.130258
0.352696
-8.42418
-14.9094
-41.2846
-0.281536
8.32669
-95.5281
12.7218
-38.537
12.5735
-2.53833
10.099
0.692291
-1.45378
0.227877
-9.43503
7.62128
1.06061
15.1694
-0.512445
-50.3711
34.4341
11.0628
40.6406
12.0034
-1.03658
10.9967
12.7766
30.5787
-0.619659
30.476
0.880636
-0.454164
-21.4434
0.771325
0.271118
-15.8978
-9.38254
-28.7017
-5.0602
32.7707
6.66424
27.0088
0.735482
18.4546
14.5958
0.820396
0.770628
0.39435
0.890925
56.5377
0.373196
-11.2766
-29.8897
12.0669
12.4257
14.4858
12.276
-23.8073
-33.7611
-1.49501
-4.92861
-4.93623
-16.4688
33.6005
0.208834
-62.1387
-10.2258
-36.8238
-0.643714
8.51282
-24.594
12.1606
12.318
-21.6625
12.4136
0.503904
6.46219
-44.0297
17.1905
54.5632
-0.397944
-0.901425
33.6169
6.02225
0.267052
33.8751
7.69203
-16.22
36.753
-11.891
38.5948
-47.1186
1.23565
12.8055
-1.04252
-9.01375
-1.18553
0.875151
-1.88356
0.238594
12.8058
-36.3195
4.28459
0.774868
-39.5065
0.0553849
7.79714
12.2549
12.3842
24.5385
3.69749
-0.281053
-6.61925
-1.38876
-13.9472
12.0522
0.860329
-22.1945
59.1596
-22.2098
0.253457
57.764
12.2886
-53.2261
53.7652
-2.96556
4.99614
35.4535
12.418
-28.4734
37.7556
-28.6963
-6.59388
-28.4677
-15.0225
-37.3795
33.3106
-6.99326
60.0175
0.762574
-28.5409
-28.6482
-58.1685
-51.1274
-37.0787
-59.4063
-42.0496
-31.9979
56.656
9.48425
10.1913
49.6836
23.4615
-48.8971
6.80018
-51.1515
43.8737
0.945568
10.5685
0.0599309
0.875471
0.738422
0.721805
58.1151
0.703837
0.752104
10.6082
0.919009
0.885483
10.7421
-6.47257
0.839389
-8.3425
0.766409
6.82872
25.8462
-48.9342
-0.617041
1.59621
-7.30408
-0.605105
-40.3385
-23.893
-24.1008
-0.85339
37.5197
13.4978
-2.89513
-5.77366
7.76323
3.79322
0.898129
11.4954
10.9483
-28.3822
0.899674
18.2004
-3.65273
2.40997
11.5944
-1.62344
7.79265
11.5038
11.3231
-14.4643
11.0717
8.34276
51.6044
24.4306
12.9944
21.9692
10.7164
-1.91243
11.1595
0.871856
-4.24518
0.845649
5.01396
-0.00567836
22.6365
10.7175
-18.0618
22.4333
0.179349
9.58772
27.3802
-15.4535
33.3029
-27.6258
-54.198
-40.6855
-0.525074
0.0318273
-27.892
35.2625
-10.9129
-2.79778
8.77745
1.3357
-0.0449502
0.0628923
9.33419
12.6523
28.7568
8.60981
1.09491
11.4963
11.3129
0.0442513
-36.4575
34.7229
-0.0532225
7.50381
-13.1325
42.0277
12.6176
9.9831
-10.8693
-49.3293
-52.0501
11.7383
11.6735
-4.63947
-8.60808
-10.2171
-31.0995
31.4882
0.948493
0.274931
-1.62384
0.516498
18.7765
-17.8247
0.50081
0.368311
29.7064
0.39774
-9.84262
25.8733
-36.4445
-26.6756
0.553815
-12.1322
13.514
-0.00436351
0.625601
12.1929
8.96559
-2.5704
20.3397
3.49444
-47.0749
0.726644
0.651573
-35.7136
-3.66131
13.3446
0.66599
7.66683
11.8281
59.3714
0.649224
-11.4092
-37.5273
-41.3116
-94.6077
-62.045
0.668265
16.1105
45.8792
-0.0089018
6.94292
9.16797
-41.0677
12.9181
5.9878
-40.2949
12.7721
23.7136
-17.9561
9.05141
-40.6081
-57.7424
14.328
18.4294
-45.1349
14.6411
10.6063
2.23071
13.9877
12.1614
0.687489
-36.68
-7.45788
5.86667
13.7392
11.3013
12.5644
0.66284
0.0298453
33.8695
0.0535544
-9.24507
-0.175386
35.8907
12.3106
-13.0269
4.25903
57.1624
-25.1086
-30.2887
-43.1798
2.80512
-6.13436
-56.6796
-20.0423
14.005
-16.526
-8.2433
0.0116917
-10.4703
11.5739
4.40978
2.41316
0.108164
0.283337
-20.4492
-5.71003
-12.3955
0.718743
-0.347552
0.271668
-0.595207
-6.65796
12.8617
-45.5262
13.2482
-0.825592
-0.7881
11.0139
10.9842
12.016
1.15434
-0.726835
-11.2002
3.55198
-0.590272
-0.990869
-28.1941
3.41261
-8.22366
-41.0691
-29.4427
-30.2701
13.9142
-28.7192
17.8198
-30.7457
0.765858
-28.4793
0.662098
2.39192
-0.619459
-5.76193
0.770421
3.37374
-2.48365
11.5313
8.77826
13.0214
-5.60833
-6.50235
-50.7934
-28.3219
22.9683
35.8977
-35.9908
-27.0648
-30.793
-53.6411
-28.0435
-9.65877
-28.25
0.86746
0.627059
-49.1656
-57.9233
-5.84305
-0.796036
11.4078
52.2793
-3.68102
-57.4548
-1.58769
4.47439
-4.0867
-0.763053
-29.519
0.298029
0.572818
0.538886
1.81897
6.57614
-0.109677
0.934628
-46.2871
-47.4141
-42.4564
21.4981
-36.5265
12.3789
0.783489
14.1179
6.02442
3.85784
20.8308
11.6822
21.8756
0.647072
3.29102
4.88155
0.247156
1.61709
-13.5242
8.51742
13.1216
8.51409
42.1095
1.21299
23.22
-58.3012
-5.71368
-48.6631
40.4551
10.198
8.97447
6.07143
-16.0103
-9.6216
11.8118
-36.3637
7.16473
8.30053
-5.3173
17.6568
9.2329
-5.94079
-17.26
-15.6893
12.7994
-2.06504
-59.5504
-0.4209
-45.9543
-31.398
12.6836
-58.171
-7.93077
33.2308
-1.70185
12.6507
14.4566
16.9913
-7.20737
11.9077
-28.2555
-15.5654
-28.1842
-5.0392
-8.32993
16.0337
-27.6622
-25.0298
1.05791
0.239339
15.0536
-27.9969
6.26126
-4.56266
-46.9561
0.558457
0.271968
11.3489
-54.365
-6.32153
-2.67385
0.537365
-2.10024
11.0122
10.698
-2.24999
11.0716
-28.6177
11.0547
-58.2519
11.3386
-31.8142
-31.6421
-8.367
10.67
-9.14263
0.748481
10.6798
-2.88349
-0.19544
-9.07068
51.2148
0.140041
33.4612
-10.6192
0.10713
-3.83473
0.23727
12.2242
10.8731
11.9987
-9.44676
0.128829
11.5706
-1.32979
0.0791922
0.698137
-25.7999
1.13533
0.280952
12.3244
-27.5868
-30.5909
0.155769
-5.92318
0.63826
-30.326
0.41725
0.302399
0.416255
0.300975
0.589931
0.445109
0.0357099
0.634516
10.9591
-22.5723
-17.6293
12.2999
44.297
15.5654
12.0521
-0.0280745
12.7487
36.6062
0.0765375
32.446
-0.0438688
0.197875
-1.41576
24.2778
0.767067
0.0489523
54.2804
12.8288
27.2645
-10.697
-14.6045
0.159101
-3.87536
-0.0215839
0.828248
1.55726
0.577973
48.831
0.837853
0.533636
0.537242
11.5481
-42.363
-24.436
-5.31049
3.06788
0.143829
0.458683
14.6506
-30.8085
25.0589
16.111
2.78705
0.452587
41.6603
-14.7926
39.5164
31.1559
11.5316
12.1652
0.32866
-6.35496
1.10335
-15.2925
-13.6228
12.1663
-52.1148
0.594544
0.819657
0.796526
10.4869
0.820353
47.0325
-5.06506
44.9482
0.844735
-57.5518
-10.0891
-14.9834
0.727892
-45.1135
0.790884
27.6168
11.7501
31.4047
0.987981
-18.7758
3.90358
-47.9569
29.8922
11.7068
11.2913
-1.41359
-25.7644
11.3393
-59.817
-34.6541
11.767
33.0225
11.6308
-23.5215
42.5228
6.84048
-6.9505
42.443
37.0105
0.77671
2.3866
-56.1688
42.4354
9.55611
38.9007
-5.91202
-55.1117
29.04
-3.17591
-0.0208248
0.288584
0.0115703
0.160584
13.4952
-35.7583
-0.962369
-36.6032
15.9044
37.609
-11.6178
35.8858
-0.00840524
-0.0403051
-15.4519
56.9047
-19.5277
46.8495
15.7544
3.8088
23.9146
3.88939
16.3062
0.0421874
-0.0235739
0.00690649
-0.0153201
8.41855
-15.8005
12.8602
-33.1135
2.84995
-41.3918
8.91556
-23.8806
43.8208
-3.63087
-2.71546
0.164011
37.5396
0.0641737
22.3201
-2.4259
8.48995
-10.0523
-0.134631
30.9977
34.9834
-15.4814
0.16039
-0.317342
-39.6426
-62.7972
-8.38693
50.87
26.2672
54.1255
57.6039
43.2114
-39.4931
-1.84539
42.9806
-44.3182
-0.00906334
5.05607
0.0538772
-29.1122
-15.4789
-1.93456
1.12201
-9.60244
-0.0108501
11.0654
-37.1648
41.1105
-45.9001
11.0166
-2.4514
9.55491
0.800939
-6.95101
-60.0952
0.749609
-36.0328
-16.9761
11.3788
-59.5826
-48.0254
11.378
-13.4327
-14.7873
22.0391
11.4148
-14.6331
26.0068
-57.7292
-32.6601
-44.6476
39.1683
-37.0961
4.41104
24.9606
3.83138
-57.8608
-48.3104
-0.694613
-0.78056
48.4999
-3.51285
-38.8263
-2.86526
-17.8304
-65.6092
-31.1259
-29.248
1.77434
-29.3262
0.316993
-29.2394
14.0898
-23.0835
48.7492
-27.9464
19.8966
-32.7121
-27.5508
-20.8693
-46.2407
32.6748
30.4599
-35.2889
10.4607
24.9736
16.6476
5.65811
13.219
-2.80446
-31.1537
-80.3505
-29.5211
15.1873
18.9808
-41.535
23.0812
-30.9507
-16.3937
5.75568
5.53445
-31.4206
12.3866
-30.2586
13.7526
29.9405
32.0058
59.4713
28.7708
-29.8383
-60.0391
42.4872
12.3668
36.3206
-50.05
-29.106
50.56
29.8672
-4.3027
21.6331
23.772
-44.4301
-31.6701
-49.3844
15.0329
10.7394
35.151
-58.7621
43.5072
28.0144
12.7042
36.3601
-29.8598
1.55061
2.05469
12.6562
-13.4699
-55.2599
-28.1564
44.3898
-8.64593
-20.3152
-47.0035
41.6039
45.8886
37.5309
-35.4104
-98.6843
44.0948
-33.9469
-57.6269
45.5021
-1.9954
-10.3294
12.2189
0.429242
0.235324
-9.21572
43.133
-27.6152
1.15175
0.585696
0.294618
0.790248
-0.654033
3.82177
-34.09
-6.69548
0.178171
-55.314
-73.3557
-27.7054
-20.4073
-1.40252
-18.2307
-29.7013
-43.6129
0.24057
-35.7166
-2.48959
-35.053
-29.3988
42.2906
18.6995
26.0355
0.00449335
4.29227
-72.3527
-25.8421
-10.153
-48.5424
0.0193409
-62.2381
-44.5707
-26.9082
-44.3609
-5.55824
15.7668
11.6428
14.9932
10.8722
42.4354
0.0756208
-0.0193406
0.10293
14.5502
-10.321
-51.4974
-56.2119
16.066
36.8248
24.2736
29.0037
-0.660896
-51.9581
-5.95601
12.2055
3.56304
-1.47969
18.796
6.97232
-15.4415
14.5356
-11.7264
-9.90088
-8.00803
17.28
35.8089
-32.3696
52.0392
-27.1628
18.8201
-60.4918
-48.0391
-10.6881
14.6451
33.2471
-9.89184
-34.7964
6.77662
14.2651
-18.4843
-28.2039
15.6931
46.342
58.2239
-39.2077
-1.39343
-58.3769
14.4297
0.715799
-10.035
10.7908
7.06279
-16.2481
3.17153
7.88785
-43.9376
-9.92651
-27.6019
-14.4247
-28.3209
0.0928795
11.9555
-60.3037
-18.4871
0.00641965
59.2619
12.5402
45.2203
11.0242
-22.8851
16.7628
-0.442935
33.106
54.8544
15.2818
33.2395
-0.0419137
-47.3396
12.4528
12.2828
-5.79642
5.808
-38.5813
-5.13261
-9.61007
12.6106
3.52029
-23.3596
4.84557
9.4129
-7.88995
-13.4597
-27.5316
-0.0240513
13.8785
0.0062337
14.2171
-0.00145194
-21.0508
12.315
-24.2659
11.6975
-29.1355
-0.0393863
33.2447
-9.16461
34.6418
0.00916593
8.12845
0.0219825
-0.015631
-4.78819
7.45793
16.8355
33.0727
29.8653
-29.0631
-53.3672
40.977
23.6198
21.2788
4.56061
0.0189883
0.146979
-76.6495
42.4097
17.9583
13.9177
0.0981491
18.3408
0.144853
0.100233
-22.8201
-25.06
-39.3552
-34.3639
6.33063
1.54227
-5.2367
12.18
42.2064
10.6424
-18.0848
10.535
-7.28234
-78.6749
-16.5579
0.297997
3.189
-10.3239
-7.60346
-36.6274
12.6447
-35.5447
22.7216
-77.3928
-32.398
-29.8324
0.254679
21.426
2.00642
12.5144
34.1949
12.5716
-12.0642
10.5777
11.479
8.03454
12.4698
-41.2728
17.8336
2.91014
42.1386
11.8792
-23.8876
12.6645
12.5829
-29.6267
-79.1965
-30.6011
-28.6884
-29.7087
9.0933
57.5183
-29.0099
-3.75456
11.0459
18.7978
-29.696
0.52867
0.450329
10.5996
-24.2449
-28.6615
-49.6445
30.2934
-2.97507
0.963085
1.98743
-28.6156
27.3262
9.38001
-56.8902
-27.1532
-28.0556
58.7434
13.6821
10.2757
1.39782
13.7949
-53.935
16.3181
10.8302
18.5224
-2.7429
16.8945
22.0473
43.3784
35.105
10.2239
-18.4719
21.6216
-10.687
0.581784
0.524528
30.5527
-32.6347
-13.5924
0.504277
54.259
0.535164
-28.7241
29.8315
19.1345
37.9689
-27.9308
-20.1755
-28.4903
30.5371
-13.3842
-33.622
-6.47744
11.04
1.37749
13.6625
0.242781
13.3018
-0.0563079
11.0481
-0.00546693
-13.3867
0.269945
33.6662
1.81405
3.78123
-26.973
8.62715
0.742336
10.0623
-7.01081
-34.1819
-47.085
-21.6927
4.08607
35.7653
1.00779
57.1838
-34.2623
57.4626
50.9409
0.974636
4.1297
6.024
0.832996
0.956577
-92.1247
9.79778
-26.525
-11.5021
4.25165
0.367685
-28.5772
6.3943
6.33309
8.86547
6.2382
0.858383
-31.9461
-5.159
0.615734
-22.2839
1.05732
0.292192
0.772622
0.55961
-11.0723
7.30804
-57.6318
0.19211
0.583937
-12.573
-12.3644
22.424
-19.3089
11.8567
11.744
-0.0422988
0.230344
-11.3956
-17.7855
9.11939
0.199279
-3.30492
10.0432
0.131072
55.6858
0.0851206
0.7495
0.14992
-0.00244552
-30.9566
0.00973282
-28.0168
-9.40272
51.6109
4.15741
-1.8266
-3.66023
-0.210707
-9.06707
-38.0284
1.40391
0.118253
6.92248
-28.2137
0.0945594
7.62997
27.045
41.208
-11.5735
9.1704
8.43003
-42.6909
-25.7465
0.0127835
46.5896
-60.025
-23.0245
-8.74631
48.443
-10.6227
-11.688
31.0195
-66.6426
-3.6404
0.103895
0.0715822
-0.00724675
0.00183692
0.0140777
-29.2468
16.8563
0.0131006
-53.7804
-0.914969
0.077924
-10.8469
2.70374