/*--------------------------------*- C++ -*----------------------------------*\
| =========                 |                                                 |
| \\      /  F ield         | OpenFOAM: The Open Source CFD Toolbox           |
|  \\    /   O peration     | Version:  2506                                  |
|   \\  /    A nd           | Website:  www.openfoam.com                      |
|    \\/     M anipulation  |                                                 |
\*---------------------------------------------------------------------------*/
FoamFile
{
    version     2.0;
    format      ascii;
    arch        "LSB;label=32;scalar=64";
    class       surfaceScalarField;
    location    "0.0721333";
    object      phi;
}
// * * * * * * * * * * * * * * * * * * * * * * * * * * * * * * * * * * * * * //

dimensions      [0 3 -1 0 0 0 0];

oriented        oriented;

internalField   nonuniform List<scalar> 
92401
(
0.148416
-0.09766
-0.00687093
-0.0438849
-0.0634305
0.0606451
0.0394689
-0.0366834
0.0222015
-0.0396994
0.0429806
-0.0254827
0.00658749
-0.0131419
0.0129683
-0.00641393
0.00134804
-0.000534228
-0.00593132
0.00511751
0.0194174
0.00970887
-0.0252997
-0.00382663
0.00588046
-0.00483135
0.000298935
0.0322546
-0.0255563
0.0127192
0.0480779
-0.0386425
0.0324582
-0.0418936
0.000344708
-0.000698228
0.000131585
0.000221934
0.00468637
-0.0415678
0.0386007
0.0242495
0.0243506
-0.0872009
-0.0174462
0.0110488
-0.000162203
0.00655962
-0.0344136
-0.0400328
-0.016492
-0.0199839
0.0597004
-0.0232245
0.00213
-0.0667466
0.0646166
-0.00250315
-0.00776404
0.00205555
0.00348142
0.00222707
-0.000962484
0.00154968
0.000218941
-0.000806135
-0.0049655
0.0108976
-2.9002e-05
-0.00590311
0.0164768
-0.00577622
-0.0050073
-0.00569326
-0.0408076
0.00836833
0.0369902
-0.00455097
-0.0393558
0.0109207
-0.0547327
-0.0540882
-0.00275293
0.0549525
0.00188857
0.0907291
-0.0893371
0.0220254
-0.0234174
0.0502992
0.0601308
-0.071487
-0.0389429
-0.0326023
0.0511324
-0.0578859
-0.00275163
-0.00101556
0.0040248
-0.000257608
0.0314482
-0.0635609
-0.000489576
0.0612219
-0.0601721
-0.0324372
0.0313873
0.0125267
-0.0173315
0.00134188
0.0034629
-0.0360743
0.106706
0.061803
-0.132435
-0.0846926
0.107528
0.00897096
-0.0318068
-0.131069
0.0323541
0.0295931
0.0691214
0.0148832
-0.0621459
0.0373987
0.00986398
0.0602685
0.00927805
-0.0546633
-0.0442731
0.0101093
0.00250022
0.0316636
-0.0504141
-0.041176
0.0654841
0.0261061
-0.0332314
0.0406089
-0.0137931
0.00641569
-0.0202427
-0.102465
0.0657588
0.0569486
-0.0857118
0.0864555
-0.000743675
0.034184
-0.00544804
-0.076624
0.0478881
0.00105099
0.027184
-0.0201247
-0.00811032
0.0268849
-0.0503983
0.0235134
0.000173177
6.26553e-06
-0.00013322
-4.62231e-05
0.000800267
-0.0584445
0.0576443
-0.0685528
0.0429195
0.0623523
-0.036719
0.0901239
-0.0254257
-0.0128052
-0.051893
-0.000402029
0.0707139
0.000735744
-0.0710476
-0.0477096
0.0731704
0.0398419
-0.0653027
0.000555976
0.00111246
-0.000384827
-0.00128361
-0.0021391
-0.00352138
0.000170393
0.00549009
-0.0382751
0.0839599
-0.0462555
0.000570768
0.000338987
-0.000796225
-0.000551282
0.00100852
-0.0548048
0.0542141
0.000590685
0.075569
-0.00786668
-0.0186391
-0.0490632
-0.0991803
0.0916788
0.00467822
0.00282328
-0.0549059
0.0273562
0.0110935
0.0164562
-0.0028517
-0.0150197
0.00768264
0.0101887
-0.0125933
0.0259146
0.0374408
-0.0507622
0.000915383
-0.000370262
-0.000206134
9.8786e-05
-8.0921e-05
0.00078357
-0.000801435
0.00050578
0.000170081
-0.000418555
-0.000257307
0.0041581
-0.00920699
0.00505405
-5.16446e-06
0.0679075
0.00506167
-0.0171989
-0.0557703
-0.0150637
-0.00474264
0.0106679
0.00913841
-0.0409684
-0.0528864
-0.0547702
0.148625
0.00337712
-0.034507
-0.00316652
0.0342964
-0.000320096
0.000532242
0.000446628
-0.000658774
0.00430186
0.00449724
-0.0279562
0.0191571
0.0188182
-0.00649423
-0.00960286
-0.00272113
0.0417588
-0.0765368
-0.027531
0.062309
-0.0292403
-0.00312653
0.0102916
0.0220752
0.0122654
0.00826377
0.0130732
-0.0336023
-0.000365806
-0.000321943
4.30855e-05
0.000644664
0.0252309
-0.00973251
0.0365642
-0.000586832
0.000347048
-0.000665516
0.0009053
0.0441698
-0.0330918
-0.0681634
0.0570854
0.000421119
-0.000258146
-0.000162973
-0.00112169
1.62845e-05
0.000564212
0.000541195
0.000657163
-0.000195347
0.000292401
-0.000754217
0.0226858
-0.0230783
-0.0623221
0.0627145
0.0010693
-0.0126849
0.00288355
0.0087321
0.0430119
0.0585984
0.0185036
-0.120114
-0.112721
0.0258927
0.124953
-0.0381247
-0.00543303
-0.0446478
0.00376011
0.0463207
0.0549357
-0.030243
0.0261442
-0.0508369
0.0262259
-0.00332197
-0.153287
0.130383
0.00868275
0.0160805
-0.0287196
0.00395632
0.00068745
-0.00020158
-0.000750668
0.000264798
0.0381066
0.012337
-0.00134575
-0.0490978
-0.00255122
0.0843494
-0.085872
0.00407384
-0.0181775
0.04963
-0.116089
0.0846367
0.042517
0.00532408
-0.0532741
0.0426604
-0.000143477
-0.00233061
-0.0292562
0.0417112
-0.0101243
0.0709161
0.0171123
-0.031566
-0.0564624
0.131216
-0.144917
-0.0297394
0.0434401
-0.0151571
-0.0456807
0.0585072
-0.0824821
-0.00065726
0.0831394
0.00109318
-0.0978511
0.163111
-0.0663527
-0.00254356
0.00339313
-0.000627858
-0.000221719
0.0898116
-0.1491
0.0304648
0.0288239
0.00155175
-0.000437561
0.000903439
-0.00201762
-0.0872424
0.142822
-0.104038
0.0484586
0.0308931
0.0028208
-0.0413214
0.00760746
0.0861329
-0.0150257
-0.0827706
0.0116634
0.00574629
0.0317555
-0.0526589
0.0241665
0.0276087
-0.119105
0.0673294
0.0872083
0.113218
-0.0800785
-0.120347
0.001008
-0.000196246
-0.00092117
0.00010942
-0.0936508
-0.0286874
0.110818
0.0115198
0.00126442
-0.00594244
0.0160672
-0.0113892
-0.0140928
-0.0340517
0.0583123
-0.0101678
-0.00561646
0.0174228
-0.014577
0.00277066
0.000406015
-0.000681617
-0.000607473
0.000883074
0.0222259
-0.0263496
-0.00149274
-0.00188793
-0.000699476
0.00154836
0.00103904
-0.0577808
0.0604067
-0.00262593
-0.00258657
-0.00633708
-0.00213569
0.0110593
-0.0368853
0.028356
-0.0055636
0.0183382
-0.0472347
-0.0557961
-0.0513087
0.0415622
0.098343
-0.0885965
-0.00763781
-0.00180936
0.00512054
0.00432663
0.0468816
0.0110432
0.00224616
-0.0601709
0.000539036
-0.00955118
0.00702676
0.00198538
-0.0401424
-0.0539689
0.0115117
0.0825996
0.0647064
-0.0388768
0.0266308
-0.0524603
-0.00964888
0.0598065
-0.0587776
0.00862002
-0.0589456
-0.0339749
0.00781375
0.0851068
0.0162092
0.00493166
-0.0329423
0.0118015
0.0626479
-0.0630401
0.000392224
0.00185953
0.00178129
-0.00157203
-0.00206879
0.0406028
-0.0438796
0.00327681
-0.0584104
-0.0367875
0.1079
-0.0127022
0.000840042
-0.0099564
0.00986727
-0.000750916
0.00277374
0.00591491
0.0027419
-0.0114305
0.00172858
0.00667272
-0.00786227
-0.0245723
-0.0579704
-0.00894504
0.0914877
0.0258292
-0.00798133
0.018477
-0.0363248
-0.0839978
0.0925549
-0.101271
0.0927139
0.0780343
-0.0505086
-0.0275257
0.0016031
-0.0346367
-0.0101472
0.0431808
0.00818784
-0.00562421
-0.00955682
0.00699318
0.0464785
-0.0701954
-0.0621963
0.0859132
0.0740236
-0.0647092
0.0293661
-0.0386805
-0.0137477
-0.00891664
0.0332619
-0.0105976
-0.0581676
-0.0867641
0.0572796
0.087652
-0.0416055
0.0543323
-0.0111237
0.0976977
-0.0482782
-0.0494195
-0.00471769
0.0155277
-0.00262213
0.0010115
0.000686371
-0.000714983
-0.000982892
0.0473388
-0.0157941
-0.00524555
-0.0262991
0.00365978
-0.0019038
-0.000458311
-0.00129767
0.0053832
-0.0102049
0.00873802
-0.00391629
0.0723026
-0.0424166
0.025928
-0.0558139
0.00891718
-0.000427427
-0.00688218
-0.00160758
0.00166283
-0.000608344
-0.00105448
-0.0658071
0.0652231
0.000584083
0.0119472
0.00561642
-0.0966567
0.079093
-0.0118661
0.0143522
-0.010286
0.00779991
-0.0729672
0.0162823
0.0834716
-0.0267867
0.0185489
-0.097528
0.0755794
0.00339971
-0.0526693
0.0429852
-0.00838069
0.0180648
0.00878616
-0.00182595
-0.00298887
-0.00397135
8.87395e-05
-0.000790584
0.000701844
0.0283451
0.170817
-0.245586
0.0464242
0.000299914
-8.55701e-06
-0.0248748
0.0603195
-0.0527351
0.0172905
-1.50988e-05
0.00523847
-0.00447648
-0.000746897
1.79094e-05
0.00142126
-0.00163452
-0.0709334
0.000636533
0.0702969
-0.0323755
0.113763
-0.0477402
-0.0336477
0.000530995
0.000486366
0.00948159
-0.010499
0.000515817
0.0916291
-0.0921449
0.00240679
-0.00163134
-0.00122595
0.000450501
0.00138129
0.000705297
-0.000714267
-0.00137232
-0.0367188
-0.00154632
0.0324444
0.0187503
-0.063788
-0.0724008
-0.0162909
0.0065697
0.082122
-0.000629295
0.00201058
-0.100591
-0.0419763
0.112857
0.0297109
0.0271738
0.170405
-0.084997
-0.0578227
-0.0275852
-0.0182784
0.119136
-0.0434877
-0.05737
0.0397321
0.0299191
0.0386177
-0.108269
0.10467
-0.248945
0.109477
0.0347976
0.00164862
-0.001465
-0.00138547
0.00120185
-0.012296
-0.0354238
0.0555201
-0.00780031
0.0261568
0.0404116
-0.0263998
-0.0401686
-0.0353589
-0.0257984
-0.0197676
0.0809249
-0.053374
-0.0139525
0.0550305
0.00116779
-0.0120449
0.00920576
0.00167132
0.0553708
-0.0284426
-0.0508463
0.0239181
-0.0895338
0.105489
-0.050222
0.0342673
0.0167778
-0.0234065
0.00688279
-0.000254054
0.051784
-0.060053
0.0636397
-0.057162
-0.00349462
-0.0138048
0.0744614
-0.00534185
-0.0132294
0.00250675
0.0160645
0.000197094
0.0589272
-0.0583153
-0.000808962
0.135204
-0.0537797
-0.00245166
-0.0789721
0.0598519
-0.00755523
-0.0489709
-0.00332575
0.0509115
-0.022076
-0.0699116
0.0410762
-0.01001
-0.00174816
0.0150906
-0.00333241
0.0054166
-0.00169395
-0.00477905
0.00105641
0.00257876
-0.0441642
0.0407605
0.000824884
-0.000774998
-0.0862534
0.00345525
0.0196926
-0.0129248
-0.0631382
0.0465227
0.0166155
-0.0595502
-0.0170396
0.0109793
0.0656105
-0.100823
-0.000751749
0.104193
-0.00261812
0.00371608
0.0238029
-0.0128285
-0.0146905
-0.0713221
0.149766
-0.0659898
-0.012454
-0.00470974
0.0132998
0.022485
-0.0310751
-0.0521987
0.100195
0.0391571
-0.0871533
0.0292563
0.00145404
-0.0144721
-0.0162383
-0.0363617
0.0380239
0.000916528
-0.00493766
0.00752417
-0.0102102
0.00762374
-0.000260963
-0.00457596
0.0102201
0.0359988
0.037834
-0.0738328
0.0010857
-0.00190639
3.79251e-05
0.000782768
0.0199914
0.00833586
-0.0192016
-0.0091256
0.0226038
0.0108099
-0.00179917
-0.0316145
-0.0525476
-0.00198991
0.00704506
0.0474924
-0.000196547
-0.0439676
-0.000990547
0.000538327
0.00153792
-0.0518373
0.0370161
0.0519638
-0.0371426
-0.0448836
0.0302857
0.0176858
-0.00308795
0.00137223
-0.00359045
-0.00991754
0.0121358
-0.00977523
-0.00508549
-0.00300958
0.0178703
-0.0436593
-0.00489042
0.0121881
0.0724211
0.0396252
-0.0720766
-0.0399696
-0.0454404
-0.000261891
0.0457023
0.0861896
-0.0486819
0.0595925
0.0036745
-0.00764707
-0.0372297
0.0412022
0.0359594
0.0113076
-0.00531426
-0.0419527
-0.000476509
0.000342046
0.00102082
-0.000886355
-0.0168457
-0.0449911
0.0618368
-0.000221615
-0.00137659
-0.00411083
0.030793
-0.0230077
0.00617582
0.0278716
-0.0416945
0.0978809
-0.0906658
-0.00203967
-0.00517539
-0.021481
0.101454
-0.0185549
-0.0614183
-0.0320504
0.00680346
0.013849
0.0113979
-0.0391329
0.0359393
0.0138849
-0.0106913
0.0325707
-0.0251261
0.00134318
-0.00878784
0.0192305
0.0725108
-0.122782
0.0310404
0.0762995
-0.0752745
-0.0243153
0.0232903
-0.143414
0.00207818
0.00363722
0.137698
0.0305612
0.012391
-0.0412497
-0.00170256
0.0399296
-0.0576567
0.0203874
-0.00266031
0.00214764
-0.0012183
0.000246814
-0.00117615
-0.0146527
-0.00112198
0.0733982
-0.041642
0.0188074
-0.0505636
-0.0119499
0.0477453
0.000417072
-0.0362125
0.00517647
0.0958474
-0.0932225
-0.0078014
0.0495047
-0.0989586
0.0579435
-0.00848956
-0.0483507
-0.000394786
0.0367956
0.0150844
-0.00342182
0.00866663
-0.0203292
-0.0234217
0.0477919
-0.0133104
-0.0110598
-0.0483072
-4.35072e-05
-0.00556432
-0.122868
0.175884
-0.0474513
0.0101158
0.00980334
-0.0635646
0.0436454
0.0494687
0.00547715
-0.04483
-0.0130457
0.00676519
-0.00366076
0.00994123
-0.0578089
-0.00070415
0.0585131
0.110537
0.0443588
-0.136849
-0.0180461
-0.00936811
0.000285093
-0.00396264
0.0185622
-0.116229
-0.0225769
0.120244
0.0126953
0.0665019
-0.0693939
0.0028196
-0.055845
-0.0105392
0.000533709
0.00193098
-0.0026863
0.00205626
-0.00178
0.000257449
-0.0507557
0.02616
0.0737958
-0.0492001
-0.00193399
0.000978332
0.000971945
-0.0342016
-0.00772778
0.044749
0.00029757
-0.000300587
0.000356262
-0.000900525
0.000122192
0.000422072
0.000248335
0.0021055
-0.00181749
0.00146194
0.000139797
0.000215751
0.000341382
-0.000148667
0.000722668
0.106173
0.122454
-0.0802119
0.000161404
-0.000731049
0.000911027
-0.0528637
0.0527076
0.000156153
-0.0105836
0.0760793
-0.0714735
0.00597779
0.00169496
-0.0196839
0.00528799
0.0127009
-0.0603649
-0.00308238
-0.017257
0.00401795
0.0474838
-0.0342448
-0.063
-0.00288108
0.0658811
-0.00701601
-0.0166374
-0.0127539
0.0364074
0.000340594
-0.000393614
-0.000544666
0.000597686
-0.00390951
-0.00741779
0.00912481
0.0022025
0.0549848
0.043906
-0.0175077
0.0483299
0.089581
-0.0380506
-0.0998603
-0.0127114
-0.0442451
-0.0189968
0.0185841
-0.0539123
0.0543249
-0.0111793
0.0287594
-0.00582156
-0.0117586
-0.0150869
-0.0134678
0.0134161
0.0151387
0.0966697
-0.0947276
0.0188109
-0.0207531
0.00122362
-0.00440268
-0.000456208
0.00363527
0.00122026
-0.0668964
0.0656762
-0.0724919
0.00336395
0.0667075
0.00242041
0.0389289
0.0383076
-0.0772365
0.0191153
-0.0599835
0.0281568
0.00198859
-0.00112584
0.000467329
-0.00133008
0.000244289
-0.000175989
0.0011005
-0.0011688
-8.81108e-05
0.000441299
-0.00102283
0.000669642
0.0639884
0.0566482
-0.0392023
-0.0814342
0.00591552
-0.0870267
0.0824406
-0.00132946
-0.0137838
0.00069788
0.0265033
-0.0134174
0.0535346
-0.0526767
0.0191011
-0.019959
-0.000537292
0.00139771
-0.00070034
-0.000160079
0.0202989
0.0479002
-0.0490838
-0.0469351
-0.00170748
0.00101983
0.00149249
-0.000804844
0.0013445
0.0807452
-0.0820897
-0.0499699
-0.0150971
-0.0222543
0.0873213
-0.0499825
1.2632e-05
0.0116394
0.0167567
0.0167137
-0.0451098
0.000550274
-0.0027425
0.000441394
0.00175083
-0.00178942
-0.000513601
0.000595542
-0.106146
-0.0093237
-0.0430925
0.158562
-0.00972472
0.00726399
0.137006
-0.134545
-0.0386646
0.0418983
-0.0646843
0.0614507
-0.0797558
0.0794321
0.000323628
0.0012569
-0.0499671
-0.0305508
0.0671687
0.0192702
-0.00599668
-0.0804421
0.0506874
0.09497
-0.157317
0.0116593
0.0416052
0.0158445
0.0332431
-0.0906928
0.103982
-0.10844
0.0433875
-0.00364226
0.0133222
-0.0120964
0.00241646
-0.00143608
-0.000140177
-0.000573283
0.00214954
-0.0028907
-0.00566796
0.00173378
0.00682488
0.0607836
-0.00616893
-0.0183511
-0.0362636
-0.056745
0.028215
0.02853
-0.0929028
-0.0076619
0.0119548
0.000690958
-0.000561831
-0.00156521
-0.118143
0.0265393
0.00518133
0.0864223
0.00127125
-0.0533254
-0.0102689
0.0623231
0.0456
0.0291693
-0.101591
0.0268213
0.0384425
-0.0433924
-0.0190956
0.0240454
0.0483672
-0.0600415
0.0501169
0.0316496
-0.0563532
0.0496092
-0.0249056
0.0347122
-0.0360242
0.000273156
0.00103887
0.0161917
-0.142168
0.091287
0.0346893
0.00143241
-0.0617737
-0.00389432
0.0521129
0.000342283
-0.107361
-0.0339229
-0.00868181
0.00688293
0.0357218
-0.0485744
0.0443788
0.0500255
-0.0458299
-0.042368
0.0820808
-0.0397127
0.0103922
-0.101961
0.0481762
-0.0170446
0.00744709
0.0246562
-0.0150587
-0.0880977
0.0936776
0.0362242
-0.0418042
0.0586981
0.0328467
-0.0827999
-0.00874492
-0.0460706
0.141595
0.00413559
-0.0996602
-0.000546628
0.00291931
0.0036584
-0.00603108
0.0536734
-0.0719902
0.0829599
-0.0646431
0.00781768
-0.0389928
-0.00827725
0.0394524
-0.0433472
0.0313747
0.103307
-0.0913347
-0.0499878
-0.0264419
0.0528605
0.0235693
-0.00956717
-0.000463085
0.00619691
0.00383334
-0.0111476
0.023837
-0.0183769
0.0056874
-9.24034e-05
0.0742355
-0.0741431
0.0148973
-0.0439925
-0.0194791
0.0480616
-0.0343158
-0.000593294
-0.0131524
0.0016448
-0.026574
-0.0210056
0.0459347
0.0345425
-0.0344826
-5.98616e-05
0.0611758
-0.0417179
0.064315
-0.0837729
-0.0990764
0.097248
0.0984981
1.82108e-05
-0.0108534
-0.00176698
0.0126022
0.0494397
-0.00024485
4.32928e-05
0.000245012
-4.34543e-05
-0.000526271
0.0486265
-0.112011
0.0639109
-0.00856757
-0.000662514
0.00499676
0.00423333
0.026886
0.00996079
-0.0368468
0.00122858
-0.000926055
-0.0088701
-0.0326534
-0.0391783
0.0134213
0.057243
0.0010102
-0.0582532
0.072844
-0.0441346
-0.0511891
0.0224797
0.001661
-0.0252151
-0.020719
0.0693866
0.0430316
-0.0395742
-0.00805016
0.00929695
0.133476
-0.119485
0.0368588
-0.0508496
-0.0450177
0.036487
0.0218883
-0.0133577
-0.0525677
0.0524126
0.000155053
-0.0477771
0.0296443
0.0107216
-0.0467615
-0.0108381
0.046878
-0.00214299
0.161172
-0.161105
0.00207569
0.107658
0.015936
-0.0160653
0.0507592
0.00858005
-0.0512136
-0.00812565
-0.0145419
0.00470768
0.0107461
-0.000911867
-0.00956499
-0.005418
0.00471545
0.0102675
0.0659825
-0.037704
-0.0525991
0.0243206
0.0295444
-0.0153014
0.0240489
-0.038292
0.026728
-0.0936238
0.0896022
-0.0227065
-0.00592143
0.000479977
-0.00910043
-0.0943327
0.106914
-0.0229028
0.0103217
-0.0114634
0.0480883
0.0140454
-0.0506703
-0.00408405
-0.000694787
0.00321812
0.00156072
0.0840076
-0.00467725
0.0508218
-0.130152
3.78851e-05
-0.000680801
-4.44836e-05
0.0006874
-0.0671052
0.0588901
0.0742222
-0.0660071
0.00322614
0.000753775
-0.0022214
-0.00175852
-0.0776627
0.0754847
0.00217802
0.0634289
-0.0600674
-0.00336152
0.0605083
-0.000787269
-0.059721
-0.0107473
0.123542
-0.000587395
-0.112208
0.0098775
-0.0311061
0.032868
-0.0237845
-1.49108e-05
-0.0562257
-0.0675184
0.0115483
0.0663883
-0.0104182
-0.013342
-0.00214444
0.000117797
-0.000418101
-6.33516e-06
0.000306639
0.00122641
-9.21663e-05
-0.000259082
-0.000875164
-0.0634862
0.00786614
-0.0015052
0.0571252
0.000362254
-0.00548999
0.00195356
0.00317418
0.0122787
-0.0147333
-5.35359e-05
0.00250811
0.0082306
-0.00673678
0.0107849
0.0557275
-0.00957361
-0.0226194
-0.0235345
0.0361555
-0.00532945
-0.0363887
0.00556264
0.000107192
0.0668497
-0.000298532
-0.0666584
0.00758324
-0.0713206
0.0191666
0.0445708
-0.0431884
-0.0316858
0.0415824
0.0332919
-0.0353932
0.021703
-0.0911413
0.104831
-0.000981328
0.0153258
-0.00785097
-0.00649348
0.0489799
-0.0587897
0.0472938
-0.0374841
-0.0626329
-0.00677985
-0.00803853
0.000980646
-0.000326861
0.00437052
-0.00502431
-0.0121754
-0.0027492
0.00176909
0.0131555
-0.00822286
-0.00937312
0.0108867
0.0067093
-0.000145061
-0.0022383
0.00146105
0.000922306
-0.000288909
0.000360148
-7.12386e-05
0.00168261
-0.0740019
-0.0275993
0.0999186
-0.000149765
-1.71339e-05
-0.00146678
0.00163368
9.60758e-05
-0.000295526
-8.94593e-05
0.00263231
-0.0656323
-6.18173e-05
-7.80959e-05
0.000500061
0.00059704
0.000188541
-0.000376948
-0.000408634
-0.028206
0.0632383
0.0785057
-0.113538
-0.00923545
-0.00220725
0.00728264
0.00416006
-0.0146554
-0.000344435
0.00576434
-0.00537289
0.00550854
0.0133029
-0.0134386
-0.000369638
0.000550464
-0.000242643
-0.0666282
0.0673874
-0.000759252
0.0303857
0.0472271
-0.0600851
-0.0175277
0.0115134
-0.0753902
-0.0213606
0.0852374
-0.0136439
0.00273004
0.00554095
-0.00455516
-0.00645614
-0.00263258
-0.0166278
0.0586294
0.0128704
-0.054872
0.0692624
0.00487153
-0.0540595
-0.0200745
0.000243327
0.000413099
-0.000719686
6.32603e-05
-7.17222e-05
-0.00020184
-0.00267382
-0.00117234
-0.00138858
0.00523474
0.0650918
-0.0459288
0.01205
-0.031213
-0.000849859
-0.00268982
0.00138867
0.00215101
-0.0171982
0.0103098
-0.00277676
0.00966513
0.00129372
-0.101489
0.101356
-0.00116061
0.00316608
0.000800978
-0.0106413
0.00667421
0.0103903
-0.0108796
0.00155143
-0.00106211
0.00992488
0.00404035
-0.0107992
0.0367734
0.0562772
-0.0279588
-0.0272754
0.0548039
0.02819
-0.0557185
0.0277555
-0.0550309
-0.00085659
0.000597475
-0.0329723
0.0124732
-0.0100477
0.0792174
0.0234274
0.00742527
0.0696764
-0.0542224
0.0978591
-0.113313
0.00484294
0.0925781
-0.097421
-0.00697559
-0.00724217
0.0136171
0.000600641
-0.0342418
-0.0869231
0.0275961
0.0935688
0.021861
0.0615944
-0.0243361
-0.0591193
-0.0235278
0.113239
-0.0529374
-0.0418497
0.0448983
0.0517553
-0.0558329
0.0558157
1.72006e-05
-0.0391045
0.0367321
0.00237235
0.0396396
-0.0779895
0.0726159
-0.0342661
0.0675833
-0.0842112
-0.00998951
-0.00812591
0.0111398
0.000755362
0.000626535
-0.000501322
-0.000880576
-0.00581133
-0.0426504
-0.00737117
0.00123313
0.00149014
-0.00262816
-9.51118e-05
-0.0574083
0.0518747
0.0855301
-0.0799965
0.0365266
-0.0336468
-0.00287975
0.0130372
0.0192947
-0.0135059
-0.018826
0.00421687
-0.000404267
0.00218733
-0.00599994
-0.0644319
-0.000761573
0.0200973
0.0450962
-0.00294911
0.00667513
0.00049086
0.038975
-0.109388
0.104735
-0.0343227
0.0460634
0.0133659
-0.0593719
-5.73035e-05
-0.00364925
0.00697492
0.00170764
-0.00503331
0.000142613
0.0606225
-0.0607651
0.0381352
0.00664951
0.0150865
-0.0598713
0.00432193
-0.00733949
0.0026133
-0.184165
0.0282615
0.163369
-0.00746517
0.0398812
-0.0109449
-0.0289363
-0.00126254
-0.00151797
-0.00117403
0.00395454
-0.042063
0.0462048
0.125071
-0.129213
-0.00191711
0.000690472
-0.00192625
0.00315289
0.091452
-0.00213222
-0.0432564
0.000504333
-0.00125844
0.00204925
-0.00129514
-0.0190925
-0.116644
0.0161084
0.119628
0.00370423
0.0524335
-0.00409645
-0.0520413
0.0486711
-0.0703399
0.0605328
-0.038864
0.0319153
-0.0365413
0.0486937
-0.0440677
0.00833143
-0.00150264
0.0056224
-0.0124512
0.0012578
-0.0443963
0.0533696
-0.0537021
-0.0362088
0.0971621
0.0177785
-0.0244395
-0.0905011
0.0465845
0.0187083
-0.133729
0.0684359
-0.00188413
-0.0086432
0.00631708
0.00421024
0.0277874
-0.0498367
-0.00325035
0.0288354
-0.0266043
0.00737535
-0.00587795
1.35076e-05
-0.00151091
-0.0862972
0.00264696
8.24774e-05
0.0713537
-0.149216
0.0777794
-0.0276569
-0.0874857
0.0410418
0.0741008
-0.0728318
0.0203839
0.00314746
0.0493005
-0.0431943
0.0290536
0.0103141
-0.0826628
0.095604
-0.0129412
-0.020972
-0.00946723
0.117747
-0.0873074
-0.00364685
-0.00382087
0.00611308
0.00135464
-0.0258024
0.0591797
0.0406464
-0.0721682
0.0280335
-0.000820964
-0.000410888
-0.0010388
0.00227065
0.0465863
-0.0490332
0.0545598
-0.037652
-0.0071866
-0.0448826
-0.123482
0.0477057
0.0757767
-0.0429206
-0.0325212
0.0276647
0.0030488
-0.0022195
0.000856073
-0.00168537
0.00290347
-0.000451391
0.000596726
-0.0864453
0.00360641
0.0828389
0.0613515
0.012603
-0.122313
0.0483581
-0.0710515
0.000533652
0.0705179
0.00131729
-0.00165978
0.00852378
-0.00818129
0.0486432
0.156499
-0.226457
0.0213148
0.00188214
-0.00233457
0.00138246
-0.000930029
-0.0916435
0.0649426
0.0265302
0.000170643
-0.000590422
-8.05539e-05
0.00204344
-0.00137247
-0.000625833
0.00835371
-0.00851579
0.000787912
0.00763016
0.00789931
-0.0147808
-0.000748641
0.0407915
0.0124793
0.00304818
-0.00279093
0.0016249
-0.0985514
0.105226
0.00723847
-0.0139134
0.0123407
-0.0673008
-0.0233512
0.0783113
0.0020009
-0.00458942
0.0876907
-0.0851021
-0.0394667
-0.036171
0.08548
-0.00984231
-0.0407203
0.0245577
0.0406132
-0.0244506
0.0535645
0.0206782
-0.0721221
-0.00212063
-0.00125158
0.000175917
0.00143755
-0.00036189
-0.123543
-0.0432145
0.0396366
0.127121
0.0483749
-0.0376533
-0.031935
-0.0376242
-0.0309889
0.100548
-0.00183389
0.00426458
0.0004546
-0.00288529
-0.0309907
-0.0804603
0.0286713
0.0827796
-0.0297064
-0.0285239
0.0205783
-0.000729095
-0.0033243
-0.00164044
0.00311305
-0.00381164
0.00233902
-0.0057616
0.00558641
0.0253923
-0.0774138
-0.0854054
0.137427
-0.000531208
-0.000120091
0.0003212
0.000330099
0.057216
-0.0603627
0.0480934
-0.0449467
-0.0149414
0.0446075
-0.00784872
-0.0218173
0.0869615
-0.0863027
-0.0187846
0.0181257
0.0265618
0.0223254
-0.0635338
0.0146466
-0.127352
0.0739031
0.0184238
0.0350251
-0.00532883
0.0032336
8.79004e-05
0.00200733
-0.00821086
0.00967702
-0.000148874
-0.0134725
-0.00372192
0.017971
-0.000776624
-0.0618177
-0.00490963
0.0140369
0.0526905
-0.00817387
0.103055
-0.00509354
-0.0897881
0.00897058
-0.0473882
0.0807455
-0.0423279
-0.00147054
0.00418216
-0.00149172
-0.0012199
-0.0152348
0.000341287
-0.00206825
0.0169617
-0.105957
0.00462412
0.013147
0.0881859
-4.95444e-05
-0.000302157
0.000532191
-0.00018049
0.0373032
0.00800711
0.0271108
-0.00506401
0.0463987
0.0527544
-0.0940891
-0.000221889
0.000401087
-0.000228743
-0.000512788
0.00219369
-0.00149517
-0.000185735
0.0172771
0.111333
-0.0479394
-0.0806707
-0.000253721
-4.84356e-05
0.000132547
-0.000386268
0.0617699
0.0170004
-0.0921815
0.0134112
-0.157164
0.0860126
0.0772051
-0.00605348
-0.0181095
0.000184449
-0.0515707
0.0694958
0.0248759
-0.0145316
0.0167233
-0.0270677
-0.0664592
-0.0231
0.0895592
-0.0779889
0.0386577
0.0393313
-0.00182842
-0.000396419
0.000742483
0.00148236
-0.0378945
0.0409956
0.00776948
-0.0108705
0.0464795
-0.0544718
0.0079923
-0.0604799
0.0336613
0.0450318
-0.0182131
0.00453228
-0.00278957
-0.00158064
-0.000162071
-0.00326627
-0.0024726
0.000410038
-0.042211
-0.0417868
0.0470142
0.0141749
0.00264036
-0.0638294
0.00199022
6.40858e-05
-0.00172123
-0.000333083
0.00363295
0.00610489
0.0024414
-0.0121792
0.00710178
0.0228199
-0.0409062
0.0109845
-0.0190122
-0.0154797
-0.0092418
0.0437338
-0.0749625
-0.00987955
0.0292346
0.0556075
-0.00183168
0.0151886
-0.00829959
-0.00505732
-0.05294
0.000615718
0.0333121
-0.000232451
0.0253479
-0.13571
0.126339
-0.0159766
0.0285918
-0.034571
-0.0518015
-0.027111
0.0548665
-0.000377731
0.0405854
0.00368499
-0.0438927
-0.0551255
-0.05996
0.115086
-0.0032301
-0.00102942
-0.00176565
0.00602517
0.00316522
-0.0047885
0.00171121
-8.79362e-05
0.0368995
-0.00637185
-0.0281654
-0.0023623
-0.00326871
-0.00231473
0.00235334
0.00353376
-0.0108189
0.0659968
-0.0587117
0.076123
-0.000276107
0.0272281
0.00979381
-0.00686074
-0.0301612
0.0586302
-0.000805538
-0.0578247
-0.0530372
0.11368
-0.0284241
0.0596858
0.0200935
-0.0513552
-0.0168525
-0.0255084
0.0178398
0.0245211
0.00308216
0.00377221
0.000860199
-0.00771456
-0.0342155
-0.0379653
0.0993388
-0.0271581
0.0452845
-0.0367185
-0.000587903
-0.00797809
-0.0492255
0.116077
-0.0516417
-0.0152095
-0.00133652
0.00160793
-8.22857e-05
-0.000189123
-0.00054481
0.021442
-0.00484965
-0.0160475
0.00306672
0.00378215
0.000276189
-0.00712506
-0.00029118
-4.15458e-05
2.54161e-05
0.00030731
3.92579e-05
-5.9681e-06
-0.00032447
-0.00924427
0.0230632
0.070305
-0.084124
0.0799444
-0.0811965
0.00125207
0.000288327
-0.000282336
-5.99086e-06
-0.0127324
0.000978404
0.00231021
-0.00132791
-0.0019607
-0.0084423
-0.00630378
0.00637798
0.0083681
-0.055757
0.0273328
0.000297654
0.000224733
-0.000788374
0.000265987
0.0335267
0.0551357
-0.0352461
-0.0534163
0.011772
0.159425
-0.179844
0.00864695
0.0582937
0.0632959
-0.0619038
0.00192922
-0.0136535
-0.00185928
0.0135836
-0.033404
-0.0301133
0.0635173
0.0311186
-0.0645227
-0.0544041
-0.0449863
-0.0654924
0.164883
0.0497593
-0.0555691
0.00580978
-0.0728653
0.13472
-0.0714285
0.0329517
-0.0300039
0.0860206
-0.00352983
-0.069016
-0.0134748
0.0697071
-0.0700732
0.0116175
-0.0112514
0.000131952
-0.00623708
0.00718062
-0.00107549
0.000669385
-0.00455508
0.00678971
-0.00290401
-0.000238161
0.000222041
0.000653295
-0.000637175
0.0222209
0.0233279
-0.0337938
-0.0117549
-0.00540847
-0.00491905
0.00621603
0.00411149
-0.0108842
0.0321017
-0.0428014
0.0215839
0.00113982
-0.00858201
0.010702
-0.00325981
0.0485155
-0.00415419
-0.0443613
0.0380461
0.0357393
-0.126564
0.0527783
-0.0978988
0.0599833
0.0759616
0.0329809
-0.099761
-0.0469272
0.107884
-0.0370678
-0.0238889
0.00163662
0.00922113
-0.0124564
0.00159861
0.0272872
-0.00232662
-0.0249606
-0.0305185
0.0435746
-0.0038999
0.0202787
-0.0314657
0.000946809
-0.000199402
0.00110594
-0.00185335
0.0117549
-0.0383592
-0.00058363
0.00017456
0.000353125
5.59453e-05
0.00279589
-0.000411368
0.00107941
-0.00346392
-0.00074454
-0.00253648
-0.0782489
-0.0127535
0.0015364
-0.0119099
0.023127
0.0201045
-0.0905388
0.0208797
0.0495546
-0.00340772
0.0581421
-0.0818144
0.0270801
0.000730061
-0.00045384
0.000371153
-0.000647374
0.0791978
0.0125728
0.00228195
-0.0940526
-0.000381659
-0.000787568
0.00128952
-0.000120297
0.00498324
-0.000827471
-0.0690954
0.0649396
0.00675822
-0.00115682
-0.00504472
-0.00055668
0.00649434
0.00462321
-0.00368495
-0.0074326
-0.1104
0.0963905
-0.0875264
0.101536
-0.054109
0.109242
-0.055133
0.00230777
-0.0437158
0.00867125
0.0327368
0.00372891
-0.00352484
0.000689232
-0.000893297
0.0493326
-0.00278477
0.00119747
-0.129524
0.00244949
0.0740377
-0.0341429
9.12214e-05
0.00121077
0.0325305
-0.02625
-0.00749126
0.0781822
-0.0307729
0.0342077
0.00417128
-0.00510956
0.000101294
0.000836986
0.0343117
0.0238188
-0.0758299
0.0176994
1.29344e-06
6.69118e-06
-7.1112e-05
6.31274e-05
-0.000473559
0.00152523
0.00544267
0.000168784
-0.00807796
0.00656262
0.00568662
0.074625
0.0407457
-0.0370555
-0.0783152
-0.130908
0.141795
-0.00930769
-0.00157979
0.0315445
-0.032678
0.00113353
-0.0368237
2.96667e-05
0.000368485
-0.00322785
-0.00225019
0.0146584
0.20676
-0.158925
-0.062493
0.029341
-0.061035
-0.0180552
0.0497492
-0.00308626
0.0389554
-0.00104367
-0.0851949
0.0472831
-0.0231671
0.0101623
-0.0380443
0.0476716
0.0461791
-0.0558064
-0.0667907
0.0894099
-0.15191
0.129291
-0.000201248
4.56806e-05
-0.00145377
0.00160933
0.000182172
0.0023158
-0.000623659
-0.00187431
0.0432584
-0.0144503
0.0380154
-0.0668235
-0.00356939
0.000337491
0.0034465
-0.000214603
-0.0118117
0.0104767
-0.0367092
0.0121813
-0.0462381
0.00593243
-0.00325295
0.0185656
-0.021245
-0.137444
0.0188478
0.129448
-0.010852
0.0311868
-0.0215751
-0.0136174
0.00400573
0.0345285
-0.0529226
0.00658239
0.00442349
0.00766797
0.0520863
-0.0641777
0.0247171
-0.00708265
-0.0251507
0.00751627
-0.0794481
-0.00845111
0.014932
0.00124958
-0.00112027
5.28642e-05
-0.000110331
0.00283585
0.00198525
-0.00471077
0.0184368
-0.0321056
0.0383858
0.0179835
-0.143327
-0.0230021
0.148346
-0.113463
-0.0150375
0.0260867
0.102414
0.0571685
-0.0350011
0.0285454
-0.0507128
0.111764
-0.00611298
0.00317852
-0.108829
-0.0169843
-0.0370797
-0.0042188
-0.0163699
0.00824903
0.0123396
-0.00131846
0.00045997
6.96644e-06
0.000851522
0.0152914
-0.0777219
0.0624305
0.108735
-0.00710063
-0.112381
-0.0264103
0.055841
-0.0464149
0.0397611
-0.12222
0.0150189
0.0674404
-0.00394778
-0.0122304
-0.0269202
0.0430984
0.00381023
0.0501629
0.0859085
-0.134307
-0.0017646
0.0492366
-0.0829454
0.0889965
-0.0552877
-0.0959797
0.0959338
-0.00738079
0.00742676
0.00251923
0.00451097
-0.0949175
0.0878873
-0.00176956
0.0036235
0.00611674
-0.00797068
0.000251397
-0.000967126
-0.000287727
0.00100346
0.0890869
0.000718573
-0.0174344
-0.072371
-0.000800014
0.000764205
2.81263e-05
7.68247e-06
0.000743807
0.00330622
-0.00231181
-0.00173823
-0.00182245