/*--------------------------------*- C++ -*----------------------------------*\
| =========                 |                                                 |
| \\      /  F ield         | OpenFOAM: The Open Source CFD Toolbox           |
|  \\    /   O peration     | Version:  2506                                  |
|   \\  /    A nd           | Website:  www.openfoam.com                      |
|    \\/     M anipulation  |                                                 |
\*---------------------------------------------------------------------------*/
FoamFile
{
    version     2.0;
    format      ascii;
    arch        "LSB;label=32;scalar=64";
    class       volVectorField;
    location    "0.0721333";
    object      U;
}
// * * * * * * * * * * * * * * * * * * * * * * * * * * * * * * * * * * * * * //

dimensions      [0 1 -1 0 0 0 0];

internalField   nonuniform List<vector> 
47425
(
(10.2516 0.204925 0.00558528)
(10.0989 -0.225448 -0.00553994)
(10.0032 -0.00290801 -0.0132784)
(11.5969 -0.535347 -0.240122)
(12.6203 0.347512 0.724112)
(10.0333 0.00759701 0.00225612)
(12.5207 0.187465 0.713327)
(10.0266 0.0103152 0.00211021)
(10.0047 0.00865874 0.00585045)
(1.54748 3.92268 -1.78797)
(10.0047 0.0125627 0.000131052)
(9.9882 0.0650937 -0.00686248)
(12.3136 0.329263 0.250846)
(10.0089 0.00206517 -0.00775812)
(11.1904 0.111882 -0.14895)
(10.1198 -0.216754 -0.00783687)
(10.0227 0.00317284 -0.00868198)
(8.79526 -0.542335 -1.51321)
(8.70937 1.33559 -5.12993)
(13.6995 -0.506403 -1.10593)
(10.9393 -0.703088 -0.620869)
(9.80194 -0.0422723 -0.0276696)
(9.95706 0.021332 -0.00244057)
(9.95887 0.00986141 0.0116756)
(9.90454 -0.0839434 -0.00635752)
(10.0111 0.0305145 0.000313363)
(9.99062 0.0249926 -0.00374943)
(11.5421 -0.40578 -8.94743)
(10.0003 0.0228232 -0.0026494)
(10.019 0.020896 0.0184525)
(9.70097 0.746497 0.0117969)
(10.0437 0.092395 -0.00216528)
(10.0019 0.00668008 0.00604985)
(9.99207 0.00282618 0.0102086)
(10.0095 0.00605149 0.00522205)
(9.96733 -0.00621999 0.0119222)
(9.74299 -0.0203291 -0.0902229)
(10.0017 0.0165812 0.00764858)
(10.5531 0.434308 -0.0141302)
(10.0904 0.0626604 0.0109759)
(9.85957 0.164435 -0.0074623)
(9.45043 0.196633 -0.932493)
(5.78317 -2.73601 -0.779568)
(9.98337 0.0133679 0.00526119)
(-0.0261755 -1.89386 0.149817)
(9.97149 0.0817328 0.00520622)
(9.96653 -0.00472454 -0.0157821)
(9.9954 0.0294331 0.00589304)
(10.1092 -0.0706691 -0.000905657)
(10.0685 0.0164209 -0.00641599)
(2.16091 -0.61128 -5.91131)
(9.01877 1.22939 1.39469)
(10.0461 -0.0120733 0.00813518)
(6.58219 -5.00227 1.74433)
(9.99662 0.052938 -0.00881752)
(10.2133 0.0152606 0.0298149)
(10.2674 -0.173965 0.0320818)
(10.0167 0.00599839 0.024404)
(12.0239 1.38089 1.57325)
(9.99267 0.0257094 0.0136858)
(5.45009 -4.95077 1.19764)
(5.3526 -0.695884 2.30917)
(3.66286 -2.50103 0.417833)
(9.05358 -1.18885 -0.0931352)
(10.0074 0.0107165 -0.00696414)
(10.8341 -0.362959 0.000370074)
(9.98713 -0.0113449 -0.00663455)
(10.7447 0.23258 0.612075)
(7.86108 -3.97642 2.06528)
(8.99226 0.562161 0.304376)
(10.815 -0.640668 0.139824)
(10.064 0.0126055 0.00511367)
(11.0129 -0.159057 -0.0186912)
(10.8687 0.287729 -0.638952)
(3.55484 1.33713 0.138725)
(9.99894 -0.00376345 0.000640945)
(3.82798 -2.28974 1.10771)
(9.97724 -0.0205007 0.00568601)
(6.29599 -2.49853 1.4226)
(11.9705 -0.0925722 1.53275)
(3.96361 0.90406 0.263848)
(10.2252 0.342371 -0.0140713)
(9.18499 0.143239 -0.334036)
(10.0137 0.0124316 -0.00652983)
(9.6419 -0.000868595 0.10781)
(10.306 -0.0678546 0.017062)
(10.8339 -0.120069 -0.0455417)
(10.1688 0.122383 -0.00688081)
(11.1368 0.0299034 -1.62234)
(11.0685 -0.697037 2.08837)
(9.757 0.445386 -0.0499424)
(10.6916 -0.00589285 -0.0369862)
(10.0528 0.000455371 0.0110473)
(10.1788 -0.0560021 0.00514548)
(10.1326 -0.0568305 0.0147886)
(10.0781 -0.0083893 0.00441304)
(10.0471 -0.015847 -0.00719328)
(10.3725 -0.315037 -0.00454312)
(10.2179 -0.0367701 0.0130955)
(10.0416 0.0177632 0.0286289)
(10.0216 0.0368757 0.00215773)
(8.74695 0.118145 -4.14949)
(10.3006 0.186148 -0.00303286)
(5.32187 1.95444 -0.786745)
(10.3079 0.163014 -0.0336767)
(10.7355 -0.769879 0.0546501)
(10.1494 0.275144 0.0672257)
(10.1887 -0.0685416 0.00973276)
(8.82271 -0.124953 -0.387051)
(9.95732 0.0754114 -0.00233688)
(-0.466879 -1.25371 -0.519003)
(10.0086 -0.0819561 0.00370423)
(10.6699 -0.962496 0.108343)
(10.3346 -0.0213867 0.000194261)
(10.998 -0.444154 0.0305595)
(1.80039 -4.16157 -5.92526)
(10.9967 -0.398273 0.018813)
(4.07526 0.0352747 -4.4366)
(10.3866 0.159649 -0.000746238)
(11.188 0.383356 0.429433)
(10.4183 -0.0568172 0.00103195)
(10.0002 0.00381925 0.00571273)
(9.99957 0.052847 -0.00484235)
(11.8433 0.766559 -0.735543)
(10.0709 -0.0517623 -0.00165162)
(10.9468 -0.825191 0.0707584)
(10.251 -0.10084 0.00265553)
(10.0072 0.00392504 -0.00698509)
(9.94493 -0.000616425 0.00489175)
(10.0062 0.0314482 -0.00951384)
(9.19968 -0.314136 0.304036)
(10.6332 0.42779 -0.0416072)
(4.29444 0.04963 0.481837)
(10.372 -0.522685 0.0271002)
(10.0133 -0.156718 -1.00009)
(12.1588 -0.528768 -0.934307)
(10.9089 0.881992 0.265311)
(10.9641 -0.862449 0.205042)
(10.1494 -0.0940254 -0.00512561)
(11.152 -0.0103041 -0.0549294)
(9.98212 0.006925 0.00282305)
(12.0822 0.263618 0.297984)
(10.5133 0.0432506 -0.0376139)
(10.6949 -1.22855 0.15893)
(10.2001 0.226239 -0.00801473)
(10.0046 0.00525444 0.00583999)
(12.3965 0.175464 0.851016)
(10.0121 -0.0294245 0.00608516)
(10.4684 0.0232429 -0.0155123)
(9.97572 -0.017349 0.00663335)
(10.6126 -1.25615 0.0196389)
(2.93356 -0.384626 -6.92813)
(10.0071 0.0147731 -0.010329)
(5.62771 0.0934259 -11.5044)
(8.97895 -1.18028 -0.763814)
(9.97116 0.0885502 0.0110294)
(11.0211 0.462524 -1.70076)
(7.40109 -3.95004 -2.66134)
(10.1417 -0.0664575 0.0167134)
(9.98878 -0.0152953 -0.00495334)
(11.267 -0.268439 0.00733614)
(10.0177 0.0528045 0.00596)
(10.0117 0.0104873 0.0160316)
(10.1584 0.303951 -0.00312598)
(12.111 0.18643 -0.484876)
(-0.381572 -1.74389 -2.08704)
(10.0141 -0.0286453 0.000823077)
(3.94483 1.17915 0.105018)
(9.95221 -0.011567 0.0266684)
(12.1974 0.723452 -4.34168)
(5.01365 0.910848 -0.0606689)
(9.99107 -0.00248323 0.00448671)
(10.0006 0.0235798 -0.00347693)
(9.45205 -0.989625 -0.666977)
(10.2893 -0.0288575 0.0303523)
(9.30872 -3.05228 -1.38866)
(2.77553 0.974562 -7.71236)
(10.0033 0.0265995 -0.0045853)
(10.0263 0.0184448 0.000124244)
(10.0464 0.0105692 -2.21712e-05)
(2.61793 0.433812 -11.0491)
(10.065 -0.130887 0.0210193)
(10.0106 0.0202899 -0.00803713)
(10.0169 0.0090648 0.0124636)
(10.0381 -0.00259556 -0.00243089)
(10.0264 0.023553 0.00417)
(10.2159 0.0868145 -0.00193409)
(5.66129 -0.52659 -0.680554)
(9.832 0.0038612 -0.0059985)
(10.1497 0.178994 0.061292)
(10.0008 -0.010238 -0.00381777)
(9.98009 0.00129022 0.0019743)
(12.2561 -0.713752 -0.683379)
(9.99688 0.00156929 0.00365009)
(10.021 0.00599023 0.0270573)
(11.196 -0.00298559 -0.0339967)
(10.0017 0.00101574 0.00748306)
(10.0099 -0.00501688 0.00706427)
(11.3627 0.0702067 -0.0373252)
(10.3626 -0.249186 0.0739036)
(9.97909 0.0084069 0.00699526)
(10.4105 -0.0487542 0.0146612)
(9.27286 0.283912 -0.145186)
(11.1594 -0.15763 -0.0350621)
(10.3238 -1.47758 -0.958393)
(10.664 -0.0154145 -0.0460738)
(10.0009 -0.0102575 0.0124581)
(11.1362 -0.058667 -0.0347566)
(9.99988 0.0909686 -0.0139611)
(10.0026 0.0131263 -0.00314376)
(10.3258 -0.168307 0.00696618)
(11.1349 0.118799 -0.0104215)
(10.0067 0.0251015 -0.000877587)
(9.95867 -0.0127594 0.0201361)
(10.7307 -0.0611866 0.0299352)
(11.382 0.121863 -0.166758)
(10.8124 0.0233801 -0.0615462)
(11.212 0.184432 1.7611)
(8.71037 -1.29548 -0.686068)
(9.94515 -0.0383347 0.0101339)
(11.8388 -0.489892 1.53807)
(11.1956 0.179977 0.182669)
(10.0075 -1.28227 -0.999563)
(10.8939 0.163254 -0.0199987)
(10.6548 -0.00772181 -0.0320976)
(11.931 -0.73106 1.44882)
(10.0351 0.0067877 0.0067827)
(11.2993 0.13672 -0.0654627)
(11.4809 0.240598 0.0865933)
(12.001 -0.000634112 -0.3062)
(10.8139 0.0251052 -0.0621515)
(10.0125 -0.019342 -0.00547739)
(10.5231 -0.0917755 -0.00938092)
(10.0012 -0.00447886 -0.000469549)
(9.77274 -0.00633516 1.16852e-05)
(10.0198 0.262615 0.0104761)
(11.7775 -0.0403447 1.57458)
(9.98294 0.0372454 -0.000999636)
(12.0987 0.0220789 1.4025)
(9.76226 0.000212234 -0.0436771)
(9.85601 -0.0113953 -0.00284574)
(10.0049 0.0139974 0.0146992)
(10.0676 -0.0219088 0.00565065)
(11.7849 0.780063 0.0601401)
(10.4104 0.443163 0.0157139)
(10.0077 -0.0027172 0.0118791)
(10.363 -0.0755613 0.00321358)
(10.0107 -7.86919e-05 0.0029672)
(10.03 -0.0168288 0.00627747)
(9.97225 0.00337363 -0.013968)
(9.99876 0.0616288 0.0155267)
(11.951 -0.40887 1.55016)
(9.96448 -0.00904918 0.00832253)
(10.0032 0.00420496 0.00572324)
(9.91871 -0.00200148 0.0129858)
(9.97117 -0.00460963 -0.00817238)
(9.85251 0.0701761 -0.0293669)
(9.73265 0.0141681 0.0108985)
(10.4406 -0.680302 0.125064)
(10.0098 0.00104784 -0.00700656)
(9.73879 0.0223662 0.00566624)
(9.99856 0.0257163 -0.000611582)
(10.2334 0.0552459 -0.0110876)
(10.1297 0.0133781 0.00666334)
(11.8891 0.0432881 0.832982)
(10.3497 -0.505522 -0.12957)
(10.0314 0.000923691 -0.0129405)
(11.9686 0.0654499 0.660081)
(10.0203 0.000216278 -0.0045929)
(10.2506 0.084774 -0.0107302)
(10.1997 0.0558563 -0.000753943)
(12.1833 0.150645 1.16582)
(11.6569 0.136738 1.40514)
(10.1648 -0.167461 -0.0227592)
(12.0415 -0.152546 1.53708)
(10.0606 0.00396421 0.0068883)
(12.1132 0.00900521 1.36382)
(6.65137 3.36347 2.19878)
(11.6307 0.0163914 1.4848)
(5.92943 1.27919 -5.25996)
(4.7289 -5.09928 1.0811)
(10.237 0.176294 0.00577165)
(3.739 -4.81089 0.349622)
(9.87425 -0.00794719 0.0168377)
(9.99206 0.00265088 0.0107697)
(11.3268 -0.166072 0.0230472)
(9.89592 -0.00702997 0.019906)
(9.96716 -0.000252458 -0.0164515)
(9.80636 -0.193631 0.000490834)
(11.0313 -0.535483 -0.108473)
(1.38628 1.7392 -3.68409)
(9.23155 0.811442 -0.00947869)
(10.0029 -0.00158566 -0.00212303)
(10.0122 -0.00558768 -0.0203814)
(10.0036 -0.00171633 -0.0181569)
(10.2094 0.382405 0.428637)
(11.7144 0.877735 0.240411)
(10.202 -0.703488 0.100288)
(10.016 -0.139407 0.0137073)
(11.915 -0.13717 0.118098)
(10.1239 0.163039 0.0301205)
(10.0744 0.0314071 0.0126816)
(9.95588 -0.0108108 -0.00110738)
(10.0223 -0.0074337 -0.0121909)
(10.2926 4.12528 -0.537825)
(5.93365 1.78814 -0.408522)
(1.50604 1.20814 -6.35787)
(10.027 0.00294675 -0.00931395)
(10.0873 -0.0414155 0.0163175)
(10.0505 -0.639362 -0.0616651)
(10.1699 -0.506273 -0.157753)
(1.25709 -0.750142 -5.89164)
(9.98357 -0.000355922 -0.0150533)
(9.95541 -0.00298429 -0.0206496)
(10.8823 2.35169 0.821337)
(10.238 -0.14146 0.0192167)
(9.86163 -0.00456165 0.0047848)
(9.81878 -0.00655122 0.0149102)
(9.90733 0.000656933 0.0146989)
(12.5121 2.44408 -1.00593)
(11.2754 2.05063 0.724651)
(10.029 0.188866 -0.00753473)
(10.1064 0.142833 -0.00727738)
(10.0204 -0.00360745 0.00402997)
(10.2857 -0.0328191 0.0101264)
(10.0498 0.00363313 0.000654496)
(10.0864 0.247115 -0.0023333)
(10.1271 0.0495476 0.00592058)
(10.0463 -0.0135074 -0.0116737)
(9.98919 -0.0117517 0.00852515)
(11.4736 -0.066396 0.259008)
(9.40873 0.207192 -0.245133)
(10.6131 -0.734077 -1.38945)
(9.99453 0.0161726 -0.00938824)
(9.96594 -0.00745007 0.00746845)
(10.0297 0.0134702 0.0172416)
(9.51994 0.590953 -0.262347)
(9.97366 0.1055 0.00209124)
(10.0327 0.015967 0.00696895)
(10.0223 -0.0147454 -0.0131355)
(9.99762 0.256325 -0.0444729)
(10.0044 0.286754 -0.0444504)
(10.1282 0.0908352 0.0155245)
(9.93881 0.274288 -0.033177)
(10.0453 -0.0166621 -0.00539549)
(10.0379 0.0106864 0.00139623)
(10.0049 0.00607705 0.0162757)
(9.65579 0.46002 -0.196838)
(9.95611 -0.00366304 -0.00888293)
(9.96532 -0.0250521 -0.000555684)
(9.98828 0.235919 -0.0426428)
(10.4264 -0.468071 -0.0763662)
(10.0867 0.248843 -0.0184837)
(9.94736 0.204526 -0.026356)
(9.99662 0.190245 -0.0403544)
(11.1976 -1.36953 -0.209195)
(9.94667 0.00654112 0.00335322)
(9.19836 0.249708 0.0596605)
(9.97333 0.151588 -0.0219307)
(9.99541 0.0218298 -0.00814124)
(9.50209 0.318532 1.94757)
(11.5351 -0.0457527 -0.498078)
(10.1012 -0.0310075 0.00338824)
(9.94162 -0.00352551 -0.00516806)
(10.3581 -0.437799 -0.00800658)
(10.7464 0.481101 -0.0637384)
(9.79562 -0.00126007 -0.00758636)
(10.0112 -0.00649683 -0.00879242)
(10.0034 -0.140443 0.0127349)
(10.2524 0.745536 -0.119376)
(9.83324 -0.00880338 -0.00805995)
(-0.939579 -1.7533 -0.277977)
(10.7367 -0.103755 0.0207562)
(10.0679 0.980243 -0.0987524)
(9.97933 -0.0017856 0.00750777)
(10.0607 0.86592 -0.0741009)
(10.9339 0.0720312 -0.767457)
(10.0123 -0.00345408 -0.00185524)
(10.0033 0.00581404 0.00423425)
(9.77261 -0.0165516 -0.0736911)
(10.0115 0.00319686 0.00450241)
(10.0779 0.877147 -0.124808)
(10.1236 -0.0974895 -0.0122764)
(10.0059 0.023924 0.0063384)
(9.94969 -0.0296019 5.61343e-06)
(10.0022 0.0182217 0.00598575)
(9.99352 -0.0121154 0.00803124)
(10.2309 0.18006 -0.00554107)
(10.0009 0.00668621 0.00863407)
(9.97656 0.0248607 0.00804169)
(10.5625 0.92334 -0.343984)
(10.3656 1.13074 -0.393615)
(9.96235 -0.00921915 0.00307806)
(10.5043 -0.53138 0.0187042)
(9.97812 -0.0143317 0.016742)
(10.4897 0.866324 -0.301363)
(9.9619 -0.0696104 0.00545753)
(9.97024 -0.000439378 9.95999e-06)
(12.2408 0.523513 -0.49587)
(10.0324 0.00400476 -0.0143912)
(10.6889 -0.106753 1.28322)
(10.0583 -0.000230879 -0.00254279)
(9.88325 1.37969 -2.43548)
(9.94605 -0.00283981 -0.00585514)
(10.7064 0.13509 0.0117772)
(9.95664 -0.00355994 -0.0181255)
(10.0229 0.0245485 -0.0157493)
(9.82531 0.00649271 0.00658568)
(10.0372 0.00985838 0.00854616)
(9.97401 0.00274389 -0.0120421)
(10.3641 1.01161 -0.301594)
(1.19315 -1.76976 0.892513)
(2.03906 -0.683373 -2.62678)
(10.0832 0.0692782 0.00406105)
(10.3732 1.52669 -0.945097)
(10.7507 0.757349 -0.342255)
(10.8514 0.713898 -0.332707)
(9.99475 -0.0177607 0.030735)
(9.98694 0.00838903 0.0011908)
(9.96738 0.0180857 0.0112025)
(9.8827 -0.000370192 -0.00969759)
(9.95613 0.00588928 0.00276331)
(10.1524 -0.233504 0.00801604)
(10.8603 0.652521 -0.22808)
(9.95127 -0.0218013 0.000301911)
(10.0368 0.00617058 0.00605204)
(11.5314 -1.16263 0.127949)
(11.5763 0.525142 -0.230747)
(11.2011 0.588523 -0.189067)
(8.12174 -1.32695 -5.19726)
(-0.0311002 3.71796 0.597853)
(10.6642 -0.313859 0.0401059)
(7.46014 -0.977973 -5.74263)
(-0.0905108 3.53648 0.861462)
(9.80751 -0.209218 -0.00433536)
(-0.138497 3.61949 0.759812)
(9.34111 -0.683597 1.09454)
(10.0141 -0.0550666 0.0109315)
(11.1003 0.662316 -0.356431)
(11.0462 0.719234 -0.384542)
(11.3429 0.622738 -0.347879)
(-1.007 2.70655 1.04266)
(10.2071 0.127564 0.00654806)
(10.0159 0.0190542 -0.00275538)
(10.0025 -0.00503681 -0.0104134)
(11.418 0.65771 -0.460402)
(11.2875 0.700565 -0.525882)
(10.0954 0.0190472 0.0189876)
(10.1196 0.124961 0.0255145)
(9.77292 3.31626 2.11957)
(-0.894907 2.72477 1.0557)
(13.0467 -0.523522 -3.16444)
(10.0065 -0.0145944 0.00823626)
(8.83366 -0.759648 -3.36367)
(10.2417 0.446665 1.22262)
(10.0021 -0.0654423 0.00402359)
(11.0159 0.473206 -0.0555749)
(12.1105 0.230394 0.260992)
(10.9975 0.383315 -0.0443838)
(9.99488 -0.0182648 0.00492646)
(9.99861 -0.00491583 0.00693755)
(9.9829 -0.00686134 0.000562876)
(10.4675 0.41511 -0.0112904)
(9.99927 0.00189738 -0.000394366)
(10.0006 -0.0237184 0.0376809)
(10.1579 0.0746177 -0.0195846)
(9.95838 -0.00370558 -0.0144222)
(11.179 0.252369 -0.0675562)
(10.0194 -0.00938028 -0.0176136)
(9.98063 0.0405583 0.00348146)
(9.9963 -0.0196736 0.00160633)
(10.0059 -0.00735613 0.00864466)
(9.96186 0.000877949 0.00497891)
(10.3945 0.340899 -0.0162401)
(10.1068 0.0526206 0.00413565)
(10.0914 0.0116261 0.0253894)
(11.0934 0.260561 -0.0586844)
(8.84475 3.75648 1.69285)
(9.97257 -0.00395572 -0.000689604)
(12.0297 1.52863 -1.51641)
(9.9971 -0.00817665 -0.00253637)
(10.9989 -0.0514523 -0.046336)
(7.08608 -0.788523 2.38217)
(9.77712 1.44846 -0.639904)
(10.0093 0.03026 -0.00291153)
(9.84552 1.52776 -0.713462)
(10.0079 0.0260154 0.00680128)
(10.0352 -0.0126942 -0.00688783)
(10.091 1.31046 -0.942282)
(9.97936 -0.00252096 0.0123557)
(10.7657 -0.21913 0.0182888)
(9.96571 1.20744 -0.660872)
(10.3054 -0.0766525 0.0308197)
(10.6471 0.0900351 -0.281159)
(8.26103 0.31417 -4.22301)
(10.0872 -0.0414671 0.0175533)
(9.62662 1.91199 -0.666156)
(10.0502 -0.0154704 0.00504369)
(9.03884 2.04136 -1.09162)
(10.1258 -0.133512 0.0374476)
(10.0119 -0.0107906 0.00988346)
(9.99687 0.0198268 -0.000943992)
(9.99294 0.0105487 -0.0129932)
(10.7206 1.10881 0.850025)
(9.96549 0.0086911 -0.0121068)
(9.99497 0.0146902 -0.0174912)
(10.0246 -0.0344031 0.0114989)
(9.94993 0.088562 0.0377114)
(11.1608 0.689644 -0.0137819)
(10.0209 0.00645212 -0.00261765)
(10.0109 0.012045 -0.000288137)
(8.63522 0.31638 -0.642525)
(9.97685 -0.00484577 0.00875532)
(9.82482 0.128597 0.00528205)
(10.1 -0.180364 0.052366)
(10.0782 0.031984 -0.00816892)
(10.0682 0.000659373 0.00783971)
(9.95485 0.0198361 0.00731254)
(10.0986 0.0349363 -0.00289903)
(10.3711 1.34795 -1.09988)
(10.0035 0.00993692 0.00692511)
(9.98897 0.00450957 0.00285252)
(3.03284 -0.547129 -5.91639)
(9.98924 -0.00773879 0.00943249)
(10.0159 -0.00917112 0.00413445)
(9.98497 0.133632 -0.02385)
(10.0042 0.0111219 0.00696147)
(12.6531 1.369 -0.834963)
(12.7673 1.0614 -0.599466)
(9.96669 -0.00897893 0.00113747)
(9.90917 -0.120057 0.00977157)
(9.88712 0.0176989 0.0211904)
(11.5576 0.125019 1.26457)
(10.0502 0.0622817 -0.00913293)
(12.7808 1.24593 -0.695989)
(9.9994 0.00617965 -0.00332277)
(-1.77359 -0.505677 1.41605)
(8.16794 -0.552442 -0.741801)
(9.14059 -0.904644 1.77959)
(10.0092 0.0162683 0.0149658)
(12.7121 1.18768 -0.64003)
(10.0583 0.0236995 -0.00703916)
(10.1553 0.120976 0.0271637)
(9.99393 0.00184606 -0.0348188)
(9.55614 0.146201 0.0911419)
(10.031 0.000116167 0.0117229)
(10.0164 0.0282482 -0.0120788)
(6.28279 -1.3495 -0.739188)
(9.99395 -0.00175582 -0.0144508)
(9.93591 0.0116924 0.00675756)
(10.0135 0.00771126 0.0215534)
(12.5302 1.50233 -0.753108)
(10.054 0.0233227 0.00477837)
(10.012 -0.0143007 0.000664253)
(12.3721 1.43643 -0.787958)
(12.3069 0.924901 -0.336982)
(9.99215 -0.00962741 0.0122816)
(10.036 -0.0122192 -0.000470333)
(-0.163739 1.96231 0.483931)
(10.0478 0.00784413 0.00443048)
(10.7344 -0.384934 0.122018)
(10.0082 0.0019181 -0.0112247)
(10.0544 0.0113779 0.0350948)
(10.0483 -0.0176715 0.0010623)
(11.9454 1.04698 -0.416614)
(11.404 0.251084 1.43569)
(9.21803 0.727424 0.768937)
(9.87769 0.116944 0.136862)
(10.0498 -0.0813782 0.0185494)
(10.019 0.00313762 -0.0106608)
(12.6388 -0.490422 -0.132306)
(9.31321 0.244934 -0.452746)
(9.71571 0.0671771 -0.0552656)
(-0.0559429 1.77836 0.315144)
(10.0166 -0.0205334 -0.00779421)
(10.0386 0.0114928 -0.0143982)
(-0.325164 1.68233 0.460162)
(12.1478 1.7296 -1.24982)
(9.89872 0.0759055 -0.00250577)
(0.0279399 1.90404 0.35048)
(0.0203659 1.93332 0.471835)
(9.99836 0.0127473 -0.00897539)
(9.99764 0.0144191 0.0016313)
(10.0258 0.00100889 -0.00557562)
(9.60037 -0.351239 -0.00930821)
(9.99794 0.003944 -0.00702023)
(9.97148 -0.0170651 -0.00395654)
(10.5108 0.0324904 -0.348404)
(10.0111 0.270087 0.00715112)
(9.93509 0.017017 -0.00126783)
(10.0383 0.0130825 0.0158744)
(12.5804 1.273 -0.351173)
(11.8562 1.32812 -0.414923)
(9.96935 0.0104355 -0.000359617)
(10.488 0.382578 -0.0302656)
(-3.77773 -2.35547 -0.135268)
(-2.07923 -3.13822 1.44802)
(10.8695 0.418252 -0.120795)
(9.93868 0.00125103 0.0108685)
(10.2614 -0.100054 0.136504)
(11.0296 -0.0968848 -0.787165)
(9.85571 -0.000599873 0.0126013)
(9.85682 -0.00213352 0.0121456)
(10.0507 -0.0335981 0.006081)
(10.3492 0.140831 0.00148778)
(9.97975 -0.013276 0.00681218)
(10.8641 0.287815 0.324175)
(9.99945 0.00281018 0.000360651)
(13.1134 0.787405 -0.677775)
(10.3471 1.53269 -1.19719)
(10.7606 0.398231 -0.0641685)
(13.1361 0.973751 -1.01912)
(10.071 0.0349826 -0.000241649)
(9.99413 0.00477712 0.0130214)
(10.387 0.789425 0.137401)
(10.171 -0.102417 0.0306457)
(10.0131 0.0104065 0.00447381)
(10.0042 0.00720589 -0.00331036)
(11.1976 0.513069 -0.574014)
(7.95027 -0.793817 -1.5275)
(10.0179 -0.00559635 -0.00831571)
(11.0032 0.140748 -0.00970768)
(9.9669 0.23211 0.0112657)
(11.3076 -5.27518 -2.45744)
(10.4334 -0.89985 0.852832)
(11.8177 0.0271353 0.95434)
(6.55297 0.363439 0.27165)
(6.32329 0.328449 0.115813)
(10.0577 0.0192159 -0.00138562)
(9.92815 0.282523 -0.053503)
(4.47885 0.20913 -0.200597)
(9.9788 0.0107156 -0.0015231)
(10.0506 -1.74468 -3.59735)
(7.85553 0.256536 1.88879)
(9.98432 0.0014076 -0.00226049)
(10.016 0.671429 0.403996)
(10.0113 0.00171051 -0.0113874)
(10.0351 -0.00338075 0.0169903)
(10.0175 0.0016448 -0.000855847)
(13.3741 0.534483 -0.171927)
(9.97667 0.0104265 -0.00392191)
(9.98473 0.00444016 -0.00121828)
(10.0567 -0.0256384 -0.00327441)
(9.82662 0.000841865 -0.0154851)
(10.0537 -0.0138488 0.0281335)
(9.9915 -0.000736376 -0.00769102)
(10.0487 0.0189295 0.00814189)
(9.89143 -0.0506721 0.000761139)
(11.0093 1.17168 0.696522)
(9.36752 -0.757696 -2.56244)
(12.4226 3.72288 1.82443)
(10.7716 0.54273 0.0237087)
(9.64064 1.48451 1.29977)
(10.0161 0.00226429 -0.00262512)
(9.28754 -1.00636 0.0541522)
(9.97525 0.0137828 -0.000335509)
(10.0004 0.00213937 -0.0105303)
(10.0031 0.00396331 -0.00802343)
(9.99973 0.00127857 -0.00733565)
(9.98461 0.0183716 -0.00514889)
(9.1985 0.432464 -0.910306)
(11.1561 0.785046 0.217984)
(9.98623 0.0141497 -0.00527908)
(10.2155 -0.575417 0.0612976)
(11.2561 1.64997 1.99856)
(9.99006 0.00973926 0.000443217)
(2.40753 0.599479 0.89466)
(13.3174 -1.00108 -3.09054)
(9.96592 -0.0113919 -0.0073898)
(9.32174 -0.568309 0.00213887)
(10.456 0.0212927 0.0411667)
(10.0212 -0.00952411 -0.00797855)
(3.10539 1.19485 0.737603)
(10.0048 -0.0113093 -0.00441843)
(6.20627 -1.9713 0.0858452)
(9.97535 -0.00218495 0.00500001)
(11.8191 -0.00416133 1.15067)
(12.1416 0.400802 -0.0329267)
(9.96766 -0.0207575 0.000974171)
(9.92007 -0.00998693 -0.00875672)
(10.1696 0.607382 0.0388382)
(8.65026 -0.635252 -2.35058)
(9.92709 0.000369651 0.0171859)
(10.0265 0.00888805 0.00286794)
(10.3424 -0.000598345 0.0039602)
(12.3551 -0.0710259 0.738295)
(10.0013 0.00387833 0.00221288)
(12.3868 0.328318 0.25571)
(10.4837 -0.0165473 -0.00507703)
(0.368376 -0.317407 -0.271365)
(12.0889 0.323685 0.0802455)
(10.4168 -0.0124173 0.000476305)
(12.2151 0.32442 0.19435)
(10.0006 -0.00340352 -0.00368933)
(10.1169 -0.144742 -0.000810371)
(10.5325 0.417235 0.0181758)
(10.4607 -0.0521814 -0.00613578)
(12.3977 0.40679 0.0739826)
(9.99878 -0.0217345 -0.000212478)
(10.071 -0.224387 -0.0201534)
(12.2447 0.392714 0.0318806)
(9.95926 -0.0395454 -0.00013387)
(10.5017 -0.0556875 -0.00326633)
(9.98631 -0.0195419 -0.0127878)
(10.0348 -0.0152762 0.0137028)
(6.91169 0.36274 -5.25007)
(6.73696 -0.145566 -5.85436)
(9.67022 0.0929832 0.358587)
(8.87014 0.373865 -4.28293)
(9.99165 -0.0219038 -0.0160336)
(9.96709 -0.0182988 -0.00669015)
(10.8567 0.655704 -0.271048)
(10.4812 -0.174158 0.0220765)
(7.84684 0.111924 0.675621)
(10.0146 -0.0376775 -0.0140027)
(10.0598 0.04733 -0.016468)
(9.98689 -0.0260455 -0.00440487)
(10.0164 0.0596986 0.006719)
(5.29428 0.227502 -6.51886)
(3.60184 -1.11264 1.66247)
(9.97651 -0.0271407 -0.00405384)
(10.0164 0.0406461 -0.00689437)
(10.0171 -0.0676145 -0.00707656)
(9.9089 -0.0398452 0.00817894)
(10.1959 -0.159425 0.0393654)
(9.97219 -0.0273432 -0.00413167)
(11.3093 -0.0195237 -0.0280636)
(11.8028 -1.30546 1.24876)
(10.1336 0.0198211 0.0095461)
(10.0416 0.0260037 -0.0193623)
(10.0075 -0.0262184 -0.00917196)
(10.0111 0.0422282 0.00406096)
(9.70612 0.210389 0.0283365)
(10.0172 -0.0229931 -0.00812929)
(10.7351 -0.167423 -0.0227623)
(9.95509 -0.0125721 -0.00264791)
(10.012 0.0262817 -0.013501)
(10.0747 0.0553401 -0.00167845)
(9.27151 -0.883883 -1.31278)
(5.18018 0.696102 -4.91802)
(10.0637 -0.0799945 -0.00712534)
(-0.0909482 -2.06638 0.320758)
(10.0254 -2.55688 0.797495)
(13.2807 -1.2011 -1.18178)
(-0.119687 -2.11874 0.280381)
(10.3968 0.0523019 0.0100313)
(5.65342 -0.325783 2.12363)
(10.5879 -0.508206 -2.66188)
(10.9181 -1.63074 0.374461)
(5.68882 0.305432 -3.89896)
(-0.236847 1.81109 0.79763)
(1.51215 0.640225 -3.71282)
(11.5173 -0.0530107 0.68178)
(10.7907 -0.0135538 -0.063576)
(11.4256 0.0268895 1.33229)
(9.91759 0.00538108 0.00559323)
(3.71985 -0.269406 -0.419337)
(10.8567 0.0647611 -0.349938)
(10.7069 -0.0204273 -0.00203894)
(9.97721 -0.0548214 0.0372043)
(10.0075 0.0184606 -0.0407836)
(11.5911 0.122597 1.22681)
(10.0126 0.128133 0.0561097)
(10.1991 -0.0412505 0.0180153)
(9.95104 0.0190893 -0.00189638)
(-0.595198 1.10735 0.187081)
(8.11831 0.279704 -2.57132)
(10.0143 -0.00725126 0.00811354)
(9.98438 -0.00484015 0.00441777)
(5.03443 0.289668 -2.52163)
(5.93193 0.141479 -3.18042)
(10.7451 -1.3377 -1.17569)
(-2.23787 -2.7228 -1.09334)
(5.14162 0.212737 1.98383)
(4.05116 -0.00336746 -4.01664)
(3.77958 -0.0622293 -4.87563)
(10.0054 -0.00407888 0.0102922)
(9.80602 0.000293243 0.0031678)
(9.46741 -0.0273829 0.0219863)
(10.0166 0.00155434 -0.0100824)
(10.4157 0.0424239 -0.0174834)
(-0.298583 1.93125 0.441159)
(10.9985 -0.0351532 -0.265993)
(10.4678 0.0370296 -0.0206715)
(10.336 0.0393062 -0.00937153)
(10.0515 0.014678 0.00137943)
(-0.263375 1.86302 1.00995)
(-0.485065 1.96011 0.957818)
(10.0501 0.0230718 -0.0171446)
(10.4152 0.00418173 -0.0315173)
(9.93224 0.0164497 0.00342561)
(10.0355 0.000510151 -0.00810113)
(10.3629 0.0192086 -0.0111016)
(10.0385 0.0065484 -0.0194225)
(9.692 -0.0012276 -0.0740431)
(10.017 0.00586349 -0.00855923)
(10.0154 -0.00504536 -0.00898827)
(7.00526 -0.760026 -3.23459)
(10.048 0.00309978 0.00653519)
(10.0326 0.0108981 0.0124243)
(10.0156 -0.00321401 -0.0176091)
(9.85755 0.00111084 0.00598969)
(9.87258 0.00486661 0.00753795)
(4.27794 -0.575255 -2.55733)
(12.6819 -1.24848 -0.712484)
(10.0268 0.000164891 0.0120061)
(10.8885 0.42739 -0.217526)
(10.0195 0.0288354 -0.0138601)
(9.68541 -0.334226 0.0971993)
(9.65188 -0.421959 0.149464)
(12.2897 -0.0501733 -0.0654373)
(9.86189 -0.00529702 -0.00377006)
(-0.169908 -1.09093 1.16228)
(12.3727 -0.162536 -0.104715)
(10.4905 0.131446 -0.00616929)
(10.837 0.389537 -0.0405825)
(8.12625 0.310164 -3.5203)
(10.8278 3.10063 1.43812)
(9.98345 -0.00946001 -0.0086499)
(9.98376 -0.0106276 -0.00496992)
(11.5419 1.73886 2.12566)
(9.99616 -0.0460683 -0.00832094)
(9.99923 0.0331228 0.00521778)
(10.8596 0.773266 0.343901)
(9.97088 -0.0117627 -0.00626051)
(9.98354 -0.00316313 0.00142964)
(-2.69541 0.644556 1.63739)
(12.5486 0.648466 -0.183723)
(10.5919 3.51784 -0.442251)
(10.0018 0.000673227 0.00483779)
(7.72665 0.580761 -2.73337)
(10.0099 0.0038207 0.00392208)
(12.0734 0.0425806 -0.294394)
(9.49586 -0.408529 0.243043)
(12.3506 -0.0779238 -0.0522806)
(9.92091 0.00131844 0.00510777)
(9.3066 -0.439945 0.200583)
(-1.23606 -0.350653 1.40946)
(11.5348 1.85629 2.60482)
(12.5524 -0.427704 -0.894272)
(-0.78044 1.36182 0.902512)
(12.3164 0.288677 0.236213)
(10.5721 0.195605 0.0370856)
(9.96007 -0.0117912 0.0108343)
(12.2289 -0.165894 -0.253805)
(9.98518 0.0103229 0.00532526)
(12.5126 -0.0939926 0.0649648)
(-0.101239 -1.32149 0.71094)
(9.98883 0.0139115 0.00704071)
(12.8868 0.0740631 -1.31373)
(9.88849 -0.000189363 0.00651128)
(9.88215 -0.00445755 -0.000290537)
(11.3223 -1.36468 -0.242102)
(9.92221 -0.00846673 -0.00526372)
(10.2522 0.121022 -0.0109165)
(8.10512 -5.78277 0.00505127)
(9.51338 0.453537 0.0292568)
(9.99458 -0.241291 -0.0303199)
(12.7937 -0.618423 -0.018884)
(10.619 1.55649 1.13421)
(10.0267 -0.0173674 0.0132143)
(11.7904 -2.62942 -1.0267)
(5.26365 -0.89932 -0.237878)
(10.743 0.031046 5.02555e-05)
(9.62967 -0.731824 -0.912297)
(10.031 0.127989 0.0272218)
(10.571 0.21829 0.0152165)
(9.96949 -0.0141154 -0.00656427)
(10.0014 -0.0192631 -0.0048611)
(-0.418274 1.20914 0.00879287)
(0.898451 -4.52674 1.90694)
(12.2127 -0.816535 0.292824)
(10.166 -1.46288 -0.610706)
(12.393 -0.929788 -0.438427)
(1.09514 4.769 1.0351)
(-0.720098 0.582246 0.0543728)
(9.26928 -3.61767 4.22668)
(10.0067 -0.0152086 -0.0033418)
(10.0025 0.0121715 -0.00974632)
(9.98899 0.013971 -0.00394636)
(9.82243 -0.0341608 -0.0123822)
(2.16793 1.11699 0.619335)
(9.61155 -0.5482 0.156204)
(8.96366 -0.667976 1.01965)
(9.98736 0.0208228 -0.00911304)
(-0.180902 -1.6182 0.122303)
(12.4411 -0.0736905 -0.055398)
(10.4655 0.136642 -0.319624)
(10.1372 0.0357867 0.0101552)
(10.0249 -0.0176789 0.000315756)
(10.1356 0.0328752 0.0126202)
(6.26141 -1.86279 -3.3131)
(10.0048 -0.00302361 -0.00708716)
(4.27585 4.39008 -0.648674)
(10.0312 0.0105408 -0.00497261)
(10.329 -0.640678 -3.14977)
(9.98814 -0.00367243 -0.00294385)
(9.99888 -0.00613841 -0.00623389)
(10.0092 -0.00974676 -0.00737573)
(10.0145 -0.010139 -0.0112054)
(9.98809 -0.0119155 0.00334879)
(12.673 1.49724 0.504875)
(11.685 0.334343 0.7853)
(8.93352 1.48911 2.36866)
(6.98463 4.06288 2.36818)
(9.36216 1.20654 0.426919)
(10.4329 0.554599 -0.0639913)
(11.1976 1.23947 0.0219487)
(6.65604 -0.453195 -3.00236)
(10.6693 -0.148402 0.0341744)
(12.5076 -0.381848 0.0757728)
(10.6932 -0.755829 0.0530067)
(12.224 0.0467298 -0.0511537)
(8.2245 -0.208164 4.38036)
(5.84282 -1.61911 2.44257)
(10.6744 -0.301059 0.184118)
(9.99943 -0.00948253 0.00510517)
(9.57464 0.94428 -0.339869)
(10.0041 -0.0053725 0.009935)
(10.2167 -0.0181331 -0.00140199)
(12.8898 -2.41749 3.01086)
(12.5135 -0.382009 0.756831)
(-1.23569 3.53704 -0.0740319)
(10.1212 -0.957259 0.199774)
(11.904 -1.00424 -0.542429)
(10.5387 -1.06708 -1.20001)
(9.89492 -0.402544 1.38698)
(10.2504 -0.0290093 0.00961014)
(-3.86211 -3.16454 1.12578)
(10.069 -0.00501983 0.00319562)
(10.1421 -0.0136211 -0.000721738)
(10.7852 -0.209795 1.2789)
(9.68087 -0.120175 4.64851)
(10.2819 -0.0404302 0.0150605)
(10.3066 0.552066 -0.436399)
(9.98933 -0.000568366 0.00426436)
(10.5356 -1.40914 0.583077)
(10.9624 0.0406511 1.46264)
(9.96362 -0.00875739 -0.001748)
(11.1585 -0.43174 -3.13)
(9.7604 1.83049 -1.93944)
(11.9601 0.453143 1.46489)
(10.9615 0.418601 -0.163441)
(9.48755 0.126553 0.265432)
(3.12778 0.951664 -3.88992)
(0.338842 3.58653 2.96693)
(5.26157 3.2104 0.668099)
(13.3294 -0.839748 -2.94218)
(4.61939 -0.9033 -0.345824)
(9.77706 -0.00357008 -0.0161494)
(9.88774 -0.0123021 0.00167366)
(8.29871 1.74479 2.68393)
(9.95163 -0.00198527 0.000913363)
(4.53229 -0.823941 -0.323766)
(9.81922 -0.00269326 -0.00579972)
(9.80328 -0.0125635 -0.00515287)
(-0.0795084 -1.71926 1.0388)
(9.52389 -1.32463 0.808417)
(10.8838 -0.598617 0.112693)
(9.98515 0.00538807 0.00398237)
(10.0002 0.0182279 -0.00019595)
(8.34502 0.35841 -2.89836)
(10.013 0.0151764 0.00847765)
(9.96813 -0.00148654 0.00148701)