/*--------------------------------*- C++ -*----------------------------------*\
| =========                 |                                                 |
| \\      /  F ield         | OpenFOAM: The Open Source CFD Toolbox           |
|  \\    /   O peration     | Version:  2506                                  |
|   \\  /    A nd           | Website:  www.openfoam.com                      |
|    \\/     M anipulation  |                                                 |
\*---------------------------------------------------------------------------*/
FoamFile
{
    version     2.0;
    format      ascii;
    arch        "LSB;label=32;scalar=64";
    class       volVectorField;
    location    "0.00482047";
    object      U;
}
// * * * * * * * * * * * * * * * * * * * * * * * * * * * * * * * * * * * * * //

dimensions      [0 1 -1 0 0 0 0];

internalField   nonuniform List<vector> 
47425
(
(9.92017 -0.37086 0.0228309)
(9.58311 -0.86487 -1.21367)
(9.6648 0.132083 -0.252162)
(10.755 -0.274262 0.328087)
(11.0336 0.0947297 0.65051)
(9.68587 0.236936 -0.0654583)
(10.8697 0.0651947 0.691883)
(10.0075 0.308026 -0.137139)
(10.3705 -0.205569 0.201841)
(7.67319 3.0066 -0.512403)
(10.0188 0.273644 0.292552)
(10.3804 -0.115707 -0.498961)
(10.9322 -0.00512443 0.252789)
(9.85047 -0.156263 -0.266503)
(9.13089 0.55668 -0.605833)
(8.35441 -0.134484 1.54505)
(8.75109 0.0420812 -0.224645)
(8.8224 -0.349986 -1.07126)
(9.50581 0.378875 -4.05444)
(12.2014 -0.23521 0.137894)
(10.6425 -0.37462 -0.323433)
(9.66789 0.301278 -0.392621)
(10.0127 -0.436541 0.574155)
(9.74575 -0.0611758 -0.0275041)
(9.33683 -0.403244 -0.385022)
(10.5159 -0.311333 -0.0436465)
(9.84146 -0.0581117 -0.0670662)
(12.234 0.110876 -7.27494)
(9.82816 0.547453 -0.040829)
(9.20631 0.235607 0.324907)
(9.77564 0.296153 -0.165769)
(10.0036 0.105598 0.0587822)
(9.8603 -0.578935 -0.192143)
(10.07 1.52877 0.0538757)
(10.145 -0.397765 0.628242)
(8.82645 -0.365273 0.468981)
(9.75551 0.252551 0.016536)
(9.05616 1.19155 -1.48291)
(10.0472 -1.41429 -0.476891)
(9.92811 0.0421167 -0.264394)
(9.94399 -0.0185477 1.56082)
(9.47977 0.0753547 0.18633)
(9.44834 -0.267158 0.0752938)
(9.44488 0.0520014 -1.06222)
(3.02466 -2.13331 -2.369)
(10.5076 0.335862 0.775615)
(9.9526 0.349605 -0.136248)
(9.51708 -0.239075 0.167484)
(9.85968 -1.4227 -0.137745)
(9.99083 -0.0860239 0.269649)
(2.26243 -0.383696 -4.91467)
(9.80862 0.313585 0.273225)
(10.295 -0.174885 0.470142)
(8.14059 -3.57218 0.410754)
(9.40712 0.367647 -0.977721)
(10.0116 -0.553657 -0.187101)
(9.88286 -0.0375038 -0.283959)
(9.5677 -0.486156 1.00398)
(11.9911 -0.242961 -0.515307)
(9.63602 1.05373 0.0632934)
(7.62165 -3.50805 -0.234897)
(6.69063 -0.651593 0.702812)
(7.68451 -5.31913 -0.043974)
(9.3221 -0.575589 0.321586)
(9.25042 0.635331 1.47515)
(10.2122 -0.0746828 0.144912)
(9.33833 0.418901 0.66841)
(9.97502 -0.437112 0.717854)
(8.9387 -4.48205 1.66647)
(9.22094 0.162013 0.87399)
(10.4823 -0.266294 0.224409)
(10.6275 0.0242791 0.235497)
(10.3067 0.0187816 -0.0474737)
(10.7422 0.0765844 -0.679199)
(8.43084 5.05257 0.525164)
(7.45492 0.212184 0.321361)
(7.80214 -5.73364 0.453288)
(9.45426 0.411589 -0.040437)
(8.48985 -4.43058 1.55242)
(10.8097 0.0194385 0.996646)
(8.71559 5.56929 0.675784)
(10.1523 -0.464761 0.184599)
(9.40044 -0.0771122 -0.0350624)
(9.96252 -0.291355 0.820932)
(9.25114 0.551949 -0.481904)
(8.98242 0.412307 0.130582)
(10.0409 -0.0982176 0.266039)
(10.1 -0.57496 -0.407513)
(9.67529 0.344342 -0.305976)
(10.6974 -0.054376 1.4963)
(9.92173 0.0100682 -0.311904)
(10.2684 -0.816395 -0.0424258)
(10.3076 -0.0232224 0.431058)
(9.92106 0.468728 0.31439)
(9.16711 0.19607 -1.35335)
(9.87624 -0.519053 -0.194207)
(9.97264 -0.102164 -0.147164)
(10.5058 -0.216117 -0.231917)
(10.2153 0.301499 0.717301)
(10.2704 1.21793 0.823476)
(9.02698 0.126198 -0.0725556)
(8.887 0.225443 -2.94491)
(10.2741 -0.112581 -0.313221)
(5.59596 1.61189 -0.08257)
(10.1461 -0.224934 -0.0832456)
(9.48197 0.387758 0.759203)
(9.12142 -0.0254529 0.05948)
(9.67847 0.387284 -0.134296)
(10.1601 -0.0685677 0.307955)
(10.2147 -0.905464 -0.184141)
(3.9762 -0.287839 -1.0814)
(9.86268 0.52248 0.292069)
(9.892 -0.413394 0.253875)
(9.62834 -0.24076 0.490115)
(10.2198 0.206328 0.337394)
(1.91374 -3.86303 -5.13514)
(10.3442 -0.144125 -0.318292)
(4.38181 0.0778075 -3.40916)
(10.6544 0.986068 0.185658)
(10.2544 0.199967 0.220044)
(9.24503 0.142731 0.0797201)
(9.30749 -0.244323 0.700323)
(9.8365 -0.0744123 -0.0158039)
(10.9776 0.427123 -0.270073)
(9.0304 1.4009 0.498379)
(9.73437 -0.321257 -0.00427042)
(9.96746 0.410521 -0.1404)
(9.37778 0.157551 0.695569)
(9.31801 0.710205 -0.77703)
(10.0045 0.302338 0.386873)
(9.44739 0.1196 -0.0246397)
(9.72593 0.755368 -1.20106)
(4.92568 0.116909 1.49323)
(9.93177 -0.271145 0.299506)
(9.98859 0.158619 -0.0264682)
(11.3392 -0.263393 -0.355696)
(10.4649 0.210885 0.162316)
(9.74082 -0.311086 0.0425702)
(9.32469 1.44458 0.413506)
(10.7863 -0.173534 -0.54673)
(10.0337 1.14724 0.916774)
(10.8481 0.0751414 0.530195)
(9.99823 -0.701439 -0.0890387)
(9.88581 -0.350324 0.279728)
(9.76695 -0.0918881 -0.4738)
(9.95874 -0.629451 -0.109528)
(10.7076 -0.00918966 0.884981)
(10.3688 -0.228985 0.49921)
(10.1429 -0.0195132 0.649288)
(10.3488 -0.174502 0.051967)
(9.94305 -0.376695 0.313296)
(3.1985 -0.374739 -6.17432)
(9.71111 0.154683 0.789193)
(6.48803 0.151342 -11.0892)
(9.13609 -0.827494 -0.198698)
(10.1835 0.00417718 -0.185429)
(10.5566 0.359693 -1.05101)
(8.6796 -3.06293 -2.05122)
(11.0762 -0.459914 -0.746273)
(9.85594 -0.618145 -0.347898)
(10.3376 -0.175138 0.334379)
(10.1497 0.507491 -0.734267)
(9.68961 0.639672 -1.41683)
(9.77149 0.347021 0.288353)
(12.3101 -0.0146662 0.700562)
(4.57821 -1.29836 -1.46261)
(10.492 -0.0878157 -0.673844)
(8.66423 5.05997 0.549189)
(9.85376 -0.819506 0.140394)
(12.6153 0.284872 -3.00969)
(9.14688 5.00468 0.262796)
(9.34467 1.91148 -0.735523)
(9.96788 0.263063 -0.216209)
(9.60392 -0.653142 -0.335158)
(10.6351 -1.83377 0.338381)
(9.5638 -2.37425 -0.765308)
(3.09588 0.487207 -7.07488)
(9.93877 0.28009 -0.746938)
(9.88094 -0.11426 1.04057)
(10.111 -0.280327 -0.0492359)
(2.77804 0.0195477 -10.8906)
(9.40434 -0.208447 -0.865099)
(8.79392 -0.336808 0.273421)
(8.72379 -1.44413 -0.219661)
(10.0162 0.0329542 -0.0173501)
(9.11616 1.14259 -0.24445)
(10.3957 -0.241326 0.290252)
(5.9315 -0.118905 0.134825)
(9.10427 0.0413301 0.780756)
(9.60609 0.40553 -0.301556)
(10.0952 -0.509517 0.0933935)
(9.57791 -0.606961 -0.277572)
(10.0648 0.408774 -0.797579)
(10.1326 1.2214 -0.388116)
(9.98943 -0.507572 -0.450366)
(10.4402 -0.206844 -0.00837605)
(10.4993 0.814174 -0.692765)
(9.11637 -0.614109 0.410805)
(10.3838 -0.119051 0.0862722)
(9.71806 0.0372633 -0.73403)
(9.58631 0.190935 -0.885017)
(9.1367 -0.63815 0.177618)
(10.2996 0.330147 -0.122337)
(10.0187 -0.290624 0.164354)
(9.9892 -1.01777 -0.385273)
(10.2003 -1.31255 -0.182383)
(9.8781 -0.558705 1.33967)
(10.3159 -0.173892 0.018829)
(9.07587 -0.475906 0.480145)
(7.73215 1.25081 0.507456)
(9.87304 -0.0548561 -0.818822)
(10.4442 0.017635 0.320633)
(10.3456 0.443969 0.228246)
(9.64611 -0.575375 -0.757066)
(10.5016 -0.407045 0.502155)
(10.3891 -0.103613 -0.150123)
(10.2722 1.1835 0.155538)
(11.0687 -0.153549 1.0867)
(8.80204 -0.968009 -0.163034)
(9.92723 0.249797 -0.0646509)
(10.5491 -0.173093 1.37638)
(10.0089 0.493441 0.0831081)
(9.9414 -0.268157 -0.0823841)
(10.0572 -0.847394 -1.07939)
(10.0052 -0.567524 1.23425)
(10.5236 -0.29032 1.32458)
(9.05456 -0.0653238 0.354532)
(10.7397 -0.539008 -1.09288)
(10.3422 0.519333 0.150766)
(10.3425 0.817865 -0.0516595)
(10.1564 0.134125 0.277349)
(10.0652 -0.155385 0.237898)
(9.46264 0.0798547 -0.822162)
(9.555 -0.718152 0.727548)
(9.66887 0.0750713 -0.394528)
(9.87585 0.0985647 -0.0919014)
(10.8823 0.151251 1.02586)
(9.7319 -0.222554 -0.972184)
(10.8867 0.0938875 0.962936)
(9.92884 0.728707 -0.0028924)
(9.59471 -0.386849 0.500518)
(9.03063 -0.302419 -0.842145)
(9.4782 0.0853565 0.640439)
(10.6873 -0.380414 0.469399)
(10.5344 0.28402 -0.144102)
(8.35524 0.607658 0.580341)
(10.0726 0.01082 0.502642)
(8.36393 2.11622 -0.929383)
(9.56052 -0.592815 0.358418)
(9.9314 0.313603 0.0737599)
(9.61974 -0.614662 0.376928)
(10.5289 -0.137174 1.05935)
(9.51531 -0.136584 0.784156)
(9.47795 -1.06649 -0.458797)
(8.7585 -0.311792 -1.04867)
(9.78435 0.273742 -0.221957)
(10.1619 -0.0839792 0.762371)
(9.3547 0.99149 1.32007)
(10.4174 -0.244403 0.203926)
(9.15025 0.766276 -0.0501344)
(10.7615 -0.463683 0.74337)
(9.80255 -1.03488 1.00559)
(10.3653 0.229915 0.305544)
(10.1584 -0.725751 0.601354)
(10.5771 -0.123706 0.410395)
(10.1515 0.62168 0.62123)
(10.0614 0.473289 -0.520216)
(10.639 -0.141635 0.301338)
(10.133 0.122999 0.211549)
(11.0885 0.189791 0.826509)
(10.2201 0.574203 0.419193)
(10.972 0.153219 0.781417)
(10.9749 0.16412 0.836203)
(9.49139 -0.659726 -0.436642)
(10.8442 -0.043268 0.914139)
(9.91084 -0.628507 -0.338316)
(10.9027 0.056461 0.832911)
(7.56111 2.57953 2.82622)
(10.93 0.0968198 0.903019)
(6.05202 0.693898 -4.46288)
(7.31802 -3.30371 -0.303482)
(10.3498 0.430381 -0.0741387)
(7.40684 -3.06425 -0.623008)
(10.1128 0.386931 -0.260881)
(9.50855 0.325442 0.312153)
(10.5725 0.257073 0.478758)
(9.68167 -0.572022 -0.47817)
(9.44056 0.567106 -0.0744616)
(9.69522 -0.142861 2.2639)
(9.79256 -0.223492 0.404752)
(1.31266 1.27224 -3.17343)
(9.25381 0.334037 0.148016)
(9.73801 0.237065 0.29907)
(10.056 -1.22015 0.283059)
(9.74907 0.353419 0.0306278)
(10.9815 0.0157857 -0.784043)
(10.305 -0.0936564 -0.0549095)
(10.3176 -0.0833735 0.0779893)
(9.32979 0.0871139 -0.100075)
(10.4936 0.259985 0.350346)
(9.91272 0.969875 -0.80765)
(9.88134 -0.441549 0.398933)
(9.28536 -0.80287 0.899583)
(9.76276 0.257852 -0.0793285)
(15.4263 0.25762 0.522646)
(12.2869 -4.24715 1.7749)
(1.63272 0.735111 -5.96999)
(9.92754 0.239106 0.501869)
(9.7517 -0.0553495 0.726018)
(9.80879 -0.36795 -0.217277)
(9.66792 -0.34213 0.0652989)
(1.07827 -0.413171 -4.94937)
(9.58035 -0.177521 0.0152152)
(9.83953 -0.178343 -0.31572)
(9.78164 1.46645 0.955918)
(9.86645 -0.498061 -0.514411)
(9.91568 -0.120363 0.211018)
(10.1414 0.47598 1.06433)
(10.1875 0.676859 0.357725)
(13.2796 -1.32074 0.617301)
(9.87568 1.32866 0.992618)
(9.55016 0.289119 0.935672)
(9.98546 0.48845 -0.084916)
(9.46424 0.00418512 0.237021)
(9.00746 1.84835 -0.528513)
(9.71966 0.215833 0.571536)
(10.4122 -1.02621 -0.377691)
(10.2635 -0.267478 -0.329497)
(9.81749 0.171758 -0.210756)
(9.71434 -0.224408 1.40122)
(10.3277 -0.104261 0.223223)
(11.855 -4.86738 1.72323)
(10.1783 -0.44774 -0.967787)
(9.38406 -0.0222084 -0.0443848)
(10.5513 0.151823 0.426463)
(9.68567 0.814473 0.0509453)
(12.6508 -4.70205 2.22979)
(9.60351 -0.12368 0.11602)
(9.61266 0.100827 0.286306)
(9.71584 -1.29974 -0.260965)
(8.73397 0.497092 0.00595988)
(9.84323 0.448655 -0.136912)
(9.84608 0.388698 0.0421433)
(9.40527 -0.311733 0.490522)
(9.54866 -0.231856 1.04166)
(9.61466 0.499409 -0.976939)
(10.5064 0.0433651 -1.05107)
(10.0686 -0.0361602 0.179976)
(9.78587 -0.0759692 0.293637)
(9.41899 0.168222 -0.787933)
(10.5105 -0.159248 0.0795258)
(10.3131 -0.00629277 0.197462)
(10.1658 -0.0912036 -0.13989)
(9.64507 -0.373584 0.236244)
(9.52827 -1.51071 -0.0233098)
(11.0091 -0.404697 0.333817)
(10.2332 0.585701 0.93637)
(9.55004 -0.0930462 0.0410323)
(9.64569 -0.505329 -0.256709)
(10.1424 -0.0291552 -0.119088)
(10.6826 0.252091 1.41233)
(10.1559 -0.400025 -0.534717)
(9.63015 -0.967912 -0.23728)
(10.367 0.0998227 -0.0723818)
(9.82447 0.0390863 -0.184865)
(9.79161 0.353232 0.288466)
(10.2613 -0.633373 0.0736824)
(9.6341 -0.0725195 -0.323408)
(10.2393 0.514573 -0.0926459)
(10.0896 0.324082 -0.062302)
(10.1489 -0.640714 -0.0265785)
(2.8016 -1.94435 -1.9266)
(10.4149 -0.187947 -0.29236)
(9.81378 0.585841 0.0158873)
(9.75021 -0.159995 -0.540761)
(9.79087 0.419344 -0.0276021)
(8.8472 -0.0314508 0.302624)
(10.1585 -0.164183 -0.0786086)
(9.79542 1.54044 -1.13241)
(9.5458 -0.000641441 -0.144972)
(10.0951 0.893007 -0.998608)
(10.092 0.419157 0.0753654)
(9.86281 -0.18952 -0.181129)
(10.3053 0.0256695 0.0486873)
(9.40079 0.128713 0.608672)
(10.3018 0.589571 -0.103098)
(10.2759 -0.836863 0.131542)
(9.7702 0.993954 -0.0317582)
(10.3149 0.252859 -0.87233)
(10.0299 -0.916097 0.148819)
(10.3147 0.341104 -0.146602)
(10.0823 0.873212 -0.0423415)
(10.4474 -0.0137439 0.165019)
(10.2625 -0.2134 -0.182932)
(10.1949 -0.451438 0.618213)
(10.143 0.381528 -0.113817)
(9.60071 0.212991 0.214186)
(10.1598 -0.700714 0.256769)
(10.4816 -0.902661 -0.485217)
(10.0778 0.408093 -0.0899405)
(10.7145 -0.63012 1.35753)
(10.397 0.206549 -0.266646)
(9.46131 -1.44365 -2.01877)
(9.88139 0.70338 -1.27349)
(10.7467 -0.313588 0.383514)
(10.055 1.81144 -0.549428)
(9.73464 0.872306 -0.241433)
(9.8576 -0.0172705 0.44966)
(10.2274 0.033422 0.877132)
(9.89535 -0.314173 -0.5804)
(9.95135 0.781296 -0.189219)
(7.20268 5.56705 0.368157)
(2.70738 -0.456501 -1.79358)
(10.5367 0.125389 0.0752865)
(10.1134 1.0162 -0.279302)
(10.491 0.371768 0.312244)
(10.5706 0.441624 -0.0548698)
(9.97516 -0.0612353 0.174183)
(10.1672 -0.803549 0.67975)
(10.289 0.282112 0.0304038)
(9.3279 -0.627527 -0.411339)
(9.06024 -0.308054 -0.66339)
(9.37577 -0.570431 -0.676218)
(10.2908 0.368782 -0.526186)
(10.2798 -0.476384 0.117703)
(9.89171 0.536757 -0.106023)
(10.1614 -0.635505 0.305998)
(10.7384 0.289082 -0.100048)
(10.5557 0.344661 0.107848)
(8.2867 -0.911099 -4.42341)
(0.0932264 1.33822 0.44781)
(10.1218 -0.573803 0.353857)
(7.95565 -0.782088 -4.9045)
(-0.362641 -0.567782 -1.0068)
(8.83795 -0.194497 1.22849)
(-1.69461 1.04767 0.209997)
(10.776 -1.44154 1.28506)
(9.41853 -1.1357 0.288346)
(10.3909 0.593661 -0.272512)
(10.5636 0.730212 -0.332089)
(10.6616 0.258866 -0.212753)
(-1.56191 0.103841 -0.0896032)
(9.97367 0.0150326 0.775317)
(9.95072 -0.456507 -0.745212)
(9.77262 -0.0880317 -0.59495)
(10.6785 0.367368 -0.177655)
(10.6281 0.40248 -0.223688)
(9.82747 0.413881 0.81493)
(9.76197 0.27765 -0.364896)
(9.43509 2.23284 1.68829)
(-0.38176 -0.0920777 -0.211617)
(12.4819 -0.190512 -1.8345)
(10.1984 -0.603073 -0.28507)
(8.7127 -0.330215 -2.66386)
(9.69112 0.379811 0.383724)
(10.1851 0.511424 -0.0565386)
(10.4718 0.0470761 0.205458)
(10.9181 0.0949201 0.351215)
(10.2686 0.0592062 0.102504)
(9.71065 -0.0680223 -0.152916)
(10.4338 0.436947 -0.255719)
(9.13027 0.8388 -1.33632)
(9.55847 -1.19766 -0.184741)
(9.02963 -0.978432 0.215739)
(9.66583 0.779613 0.567136)
(9.96727 -0.511647 -0.226496)
(9.64671 -0.294049 -0.363708)
(10.4579 -0.179563 -0.105161)
(9.69613 -0.410557 -0.588023)
(9.04418 0.667511 -0.247727)
(10.1671 0.279277 0.120709)
(9.99345 0.134241 -0.572603)
(9.50114 -0.461226 1.35429)
(9.84489 -0.385621 0.413071)
(9.90796 -1.03206 -0.320841)
(10.0399 0.306218 -0.611523)
(10.5335 -0.249013 0.109604)
(9.04008 2.57764 1.20478)
(9.49941 -0.848365 -0.221706)
(11.4547 1.06039 -0.560615)
(10.1663 0.206916 -0.174134)
(10.5615 -0.39898 0.798227)
(9.60793 -0.271724 0.982857)
(9.75607 0.719327 -0.344547)
(9.26769 -0.316204 -0.370566)
(9.79195 0.895368 -0.352478)
(10.1621 -0.0773003 -0.0950464)
(9.31732 -1.08069 0.382319)
(10.0029 0.943799 -0.561832)
(10.1183 -0.230499 0.378591)
(10.0963 -1.0026 -0.0036578)
(9.82958 0.922427 -0.315481)
(10.309 -0.105714 -0.366805)
(10.2002 0.207055 -0.331634)
(8.32534 0.15725 -3.23185)
(9.97197 -0.610853 -0.0390348)
(9.67231 1.42991 -0.312714)
(8.93978 0.0306581 -0.513357)
(9.23099 1.61845 -0.474225)
(10.1052 -0.165663 0.626343)
(9.67909 -0.310008 1.04696)
(9.77753 0.360253 -0.286841)
(10.2542 -0.16947 0.499593)
(11.0865 0.0128709 0.532781)
(9.65014 0.928782 0.0442847)
(9.85202 0.0307258 -0.647537)
(9.04162 -0.285272 -0.656623)
(10.5265 0.363549 -0.0648235)
(10.4422 -0.100652 0.04065)
(10.1576 -0.222107 0.0963723)
(10.2558 -0.0587015 -0.0554883)
(8.95337 0.0162912 -0.345096)
(10.2624 0.118508 0.217122)
(10.2175 0.400565 0.118151)
(9.01464 -0.00911049 -0.564969)
(9.93981 0.841902 -1.17772)
(10.0957 -0.123896 0.55866)
(9.418 1.13762 -1.34242)
(10.3171 0.265001 -1.70449)
(10.1684 0.880373 -0.668913)
(10.803 0.187303 0.143519)
(8.30323 0.0518105 -2.2834)
(3.03843 -0.158036 -5.0224)
(10.2765 -0.37034 -0.266076)
(9.91423 0.266749 -0.665208)
(10.0853 -0.471971 0.149569)
(10.1553 -0.326046 0.566056)
(11.5838 0.00744995 0.7557)
(11.5828 -0.324748 1.02012)
(10.039 0.806678 0.733439)
(10.3286 0.806376 0.585881)
(9.78701 0.843146 -0.00879915)
(10.4724 0.241169 0.65509)
(10.5117 0.0436997 0.321251)
(11.8343 0.578086 0.809643)
(8.97045 -1.05815 0.57263)
(-0.599871 1.43661 -1.49791)
(8.12056 0.0386443 -0.358338)
(10.1038 0.0103746 1.973)
(8.17927 -0.155846 0.044374)
(11.6941 0.456526 0.835782)
(9.94653 -0.27475 0.18041)
(10.1547 0.118278 0.0345209)
(9.77293 0.517562 -0.63876)
(9.70886 0.326576 1.21928)
(9.59751 -0.184458 -0.289806)
(9.63143 -0.757763 -0.704097)
(12.5493 5.13903 2.03757)
(9.92736 -0.277555 0.764657)
(9.55535 1.03213 0.278478)
(10.2387 0.125971 -0.0810938)
(11.5915 -0.0772017 0.603093)
(10.0582 0.603323 -0.0354975)
(8.2138 -0.282316 0.219547)
(11.5152 0.10669 0.472137)
(11.2041 -0.417464 0.435026)
(10.1642 -0.792777 0.39266)
(10.0932 -0.0544915 -1.20907)
(0.175908 0.713566 -0.176061)
(8.43728 0.255197 -0.348574)
(9.73736 -0.11963 0.164232)
(9.80349 -0.0774685 -0.223492)
(9.8432 -0.49227 0.0386413)
(10.1678 0.330502 0.948209)
(11.1293 -0.261912 0.183067)
(10.3268 0.259979 0.69993)
(9.6301 0.315037 -0.010188)
(9.68063 -0.412929 -0.752256)
(9.32935 0.397834 0.754914)
(9.09814 -0.261258 0.143904)
(11.4907 0.529548 1.61926)
(9.30689 0.59964 -0.607492)
(9.89643 -0.0752159 0.476299)
(0.143016 0.611108 -0.120838)
(10.2888 -0.142273 -0.00735961)
(9.95749 0.215944 0.293004)
(0.167161 0.519504 -0.35019)
(12.3322 1.0512 0.298191)
(9.50166 0.163124 1.09487)
(0.180178 0.473355 -0.153309)
(0.142878 0.749507 -0.150035)
(10.0311 -0.270882 -0.195386)
(10.6523 0.757898 -0.446364)
(9.63564 0.117254 -0.690183)
(9.68104 0.321608 0.804205)
(9.91575 0.15946 0.0344129)
(9.66221 0.254891 0.393778)
(10.7291 4.27131 0.660741)
(9.76004 -0.851618 -0.00337016)
(10.2255 0.539973 -0.0942325)
(9.53023 0.045752 -0.123969)
(11.3379 -0.738345 0.389893)
(11.1426 0.0122302 0.163411)
(9.94421 -0.0186799 0.874977)
(10.5045 -0.236491 -0.0194764)
(2.07673 -2.48166 -0.648993)
(8.03328 -0.499572 -0.343418)
(10.4867 0.0233 -0.67892)
(9.51281 0.129419 -0.50779)
(10.1001 -0.282587 -0.487823)
(10.6648 0.00715284 -0.331459)
(9.88465 -0.751843 -0.391199)
(10.2091 -0.664288 -0.2795)
(10.3173 -0.198472 1.08298)
(10.3634 0.539461 0.607478)
(10.6942 -0.368785 -0.668027)
(10.2962 -0.700501 0.16344)
(11.0003 -0.356228 0.589792)
(11.7566 0.298549 0.0936589)
(10.2444 1.04759 -0.724807)
(10.2668 -0.291072 0.378222)
(11.8907 0.39085 -0.0361708)
(9.35053 -0.634784 1.02312)
(9.87173 0.523226 0.935116)
(10.5753 0.0931197 -0.404181)
(9.19149 0.131099 1.10118)
(10.2107 0.340963 0.88228)
(10.2763 -0.229963 -0.914769)
(9.8641 0.561999 -0.512839)
(8.05692 -0.35289 -0.887185)
(9.88183 0.27715 -0.67791)
(10.3608 0.157266 -0.389478)
(9.51073 0.55633 -0.412329)
(16.0185 -3.71001 -1.56615)
(10.9825 -0.317255 0.480845)
(10.5148 0.122614 0.389126)
(9.67381 0.801963 0.995751)
(9.3915 0.744952 0.986363)
(9.47161 1.38181 0.361215)
(9.95696 0.676041 1.50985)
(8.29117 0.629414 0.134289)
(9.71896 -0.112446 0.300485)
(9.83748 -1.27154 -2.63176)
(10.0043 0.112003 2.16297)
(8.43662 -1.71727 -1.44426)
(10.8988 0.751124 1.74612)
(9.64097 0.535517 0.566237)
(9.4968 0.261326 -0.0280493)
(9.91473 -0.841221 -0.100151)
(12.0096 0.0152303 0.267611)
(9.58072 0.0917719 2.43709)
(8.64149 -1.65761 1.59807)
(9.47962 0.0375166 0.312385)
(10.383 1.15096 -0.00580681)
(9.42077 0.466861 0.252911)
(9.99298 -0.226566 -0.0997535)
(9.49958 0.542735 0.141805)
(9.83627 -0.614704 0.40829)
(11.0292 0.175171 0.167173)
(9.20151 1.53126 -1.54897)
(14.2797 0.162871 -0.923954)
(10.3256 0.596756 -0.0199358)
(10.1693 0.628083 1.27071)
(9.51619 0.20622 -0.127268)
(9.47594 -0.487747 0.0920702)
(9.65308 0.174114 0.100853)
(10.0655 0.134448 -0.692008)
(10.3621 -0.493627 0.475087)
(10.1448 -0.522782 0.411792)
(9.41601 -0.0532223 0.679569)
(9.26188 0.277395 -0.632885)
(10.544 -0.0459871 -0.0698637)
(9.6229 0.00981009 -0.0211731)
(10.6586 0.0712751 -0.253133)
(11.9654 0.193658 0.868169)
(9.50385 -0.377892 -0.603972)
(7.88498 -7.70438 1.84788)
(12.5749 -0.603328 -1.51309)
(9.16419 -0.0788839 -1.10608)
(9.48941 0.050059 -0.19792)
(10.6934 0.00759812 0.0276326)
(10.0019 -0.172526 -0.224024)
(9.16536 -7.51616 2.15673)
(9.45091 -0.690253 -1.01623)
(9.31703 -4.49449 0.649098)
(9.5305 -0.754165 0.585662)
(10.3763 0.243008 0.706889)
(10.9777 0.202445 0.102972)
(10.0911 -0.0652528 -0.0485569)
(9.28856 -0.113037 -0.153008)
(10.2634 -0.792123 -0.2187)
(8.71946 -0.0750167 -1.72311)
(9.15138 0.555398 -1.05263)
(10.6778 -0.175228 0.823659)
(10.5179 -0.28196 0.130024)
(10.849 0.0696329 0.900617)
(9.00058 1.01103 0.595443)
(10.9407 0.0398355 0.280616)
(10.1597 -0.190747 0.19946)
(5.21603 7.00456 0.69068)
(10.9353 0.174145 0.156506)
(10.0572 0.420441 0.426328)
(10.9031 0.127828 0.26801)
(10.2439 0.154073 -0.754133)
(10.5169 0.0249451 0.397131)
(9.80542 1.26391 0.763973)
(9.82932 0.315852 0.567575)
(10.9776 0.0762613 0.251748)
(10.0552 0.0693787 0.113875)
(10.3272 0.492706 0.227007)
(10.9585 0.198946 0.193483)
(9.93159 -0.183398 -0.392088)
(9.76778 0.0564778 -0.181819)
(9.8553 -0.0257242 -0.866326)
(9.75074 -0.0534821 0.355719)
(7.11633 0.110885 -4.45046)
(6.88281 -0.245849 -4.90685)
(10.146 -0.114432 0.363771)
(9.04478 0.247718 -3.39927)
(8.32426 0.428157 -0.254326)
(9.63019 -0.360815 -0.43163)
(10.5029 0.430647 -0.534705)
(9.67031 -0.512275 -0.303031)
(9.47624 0.38005 -0.44747)
(9.8989 0.270864 0.757735)
(10.0286 0.432503 0.0293868)
(8.98994 0.338009 0.187852)
(9.97957 0.0726943 -0.931043)
(5.39825 -0.0374327 -5.68303)
(9.0931 -0.400932 1.57836)
(9.77457 -0.0197025 0.318804)
(10.2871 -0.0552284 1.03909)
(9.92143 -0.109689 -0.629471)
(9.47228 0.389509 -0.689606)
(9.86006 0.206785 -0.548178)
(9.74346 0.172242 -0.211486)
(10.3065 -0.222226 0.0584062)
(10.2482 -1.05145 1.57518)
(10.1154 -0.0642053 -0.239177)
(9.00475 -0.724147 1.31628)
(9.6366 -0.0380075 -0.523973)
(9.89622 0.437749 0.881946)
(9.58661 0.136842 0.495903)
(9.30799 -0.444781 -1.1519)
(9.43859 0.15635 0.555458)
(10.0317 -0.448761 -0.821457)
(10.1061 -0.314097 -0.6184)
(10.1379 0.0338999 0.236762)
(9.40135 -0.678011 -0.682384)
(5.23414 0.480719 -4.09403)
(9.64987 -0.407943 -0.335729)
(0.16643 -0.502296 -0.187504)
(9.59192 -1.11808 0.559609)
(12.2872 -0.610957 0.0458305)
(0.152007 -0.466353 -0.114786)
(9.4674 1.00066 0.746535)
(9.37384 0.045652 0.844696)
(10.2892 -0.216321 -1.92577)
(10.8901 -0.520756 0.369142)
(5.95602 0.203163 -3.01495)
(0.0987938 0.267504 -0.165215)
(1.38999 0.135354 -2.66673)
(10.3757 0.513627 0.0159348)
(9.58427 0.608705 0.513446)
(10.3833 0.0466294 0.966743)
(9.23887 0.358999 0.0694278)
(4.01944 -0.242735 0.696766)
(10.3661 0.0509406 -0.35433)
(10.2432 -0.807996 -0.042805)
(9.24379 0.175573 -0.782814)
(10.1615 -0.11895 0.550704)
(10.2824 0.21434 0.595177)
(10.0336 0.0355533 -1.49905)
(10.0215 -0.0344956 -0.315609)
(10.5594 -0.0910077 -0.281612)
(0.823786 0.360371 -0.284385)
(8.28372 0.192251 -1.90515)
(10.1292 -0.356628 0.0305173)
(9.52399 -1.22316 -0.886672)
(5.32252 0.324073 -1.60786)
(6.32001 0.171611 -2.27448)
(9.65608 0.63202 -0.520166)
(5.71865 -3.02698 -0.396157)
(9.26075 0.310167 1.78453)
(4.47482 0.00949534 -3.24535)
(4.14864 -0.12413 -4.14039)
(10.6276 -0.229764 -0.103517)
(9.866 -1.05043 -1.52159)
(9.18657 0.359349 0.570442)
(10.0265 -0.540049 -0.129887)
(10.1514 -0.195107 0.0311891)
(-0.0238285 0.880532 -0.159017)
(10.2006 -0.187239 -0.503845)
(10.3521 -0.149294 0.550105)
(9.77225 -0.323607 0.0697421)
(10.051 -0.119644 -0.214937)
(0.0190766 0.913954 -0.375413)
(0.177316 0.598649 -0.139072)
(8.82367 -0.116272 0.0257976)
(10.6253 -0.0946608 0.457979)
(10.2456 0.27766 0.0846338)
(10.1162 0.0298337 0.467745)
(10.1505 0.00336007 0.619093)
(10.205 -0.669538 -0.582442)
(9.73969 -0.295854 -0.00869876)
(10.1653 -0.235393 0.329876)
(10.218 0.345743 0.511807)
(7.22441 -0.518423 -2.34895)
(9.56417 0.674499 0.291084)
(8.89518 0.202425 -0.222118)
(10.2002 -0.358296 -0.0437395)
(9.85114 0.249746 0.165966)
(9.14348 -0.755479 0.293569)
(4.28826 -0.292714 -1.54634)
(11.6604 -0.619571 0.59128)
(9.89877 -0.863465 -0.0610105)
(9.82761 0.934574 -0.650627)
(10.2089 -0.33347 -0.140588)
(9.36786 -0.765309 0.00919155)
(9.80064 -0.0588815 0.0765479)
(10.8767 0.624965 0.236832)
(10.31 0.102794 -0.0250067)
(-0.962465 0.831052 -1.18921)
(11.2609 -0.185254 0.311808)
(9.78919 -0.360921 0.0211221)
(10.6182 0.255663 -0.331872)
(8.136 0.128121 -2.76263)
(14.9133 -1.33752 -1.27118)
(9.55713 1.06452 0.458048)
(10.4092 1.19547 0.274981)
(12.2397 0.47596 0.658072)
(8.96207 0.307337 -0.432581)
(9.98666 -0.728391 0.197986)
(10.5401 -0.232264 0.381964)
(10.0637 0.73509 -0.185294)
(8.04812 0.886364 -1.93818)
(6.01128 -1.22192 -5.63761)
(11.087 -1.01058 0.477652)
(14.8621 -0.834777 0.660946)
(10.344 0.288445 0.198387)
(7.93944 0.183372 -1.65547)
(10.1587 -0.191935 -0.0488131)
(10.4897 -0.781774 -0.0448268)
(9.71881 -0.359119 0.430269)
(10.9844 0.238366 0.213467)
(10.0668 0.664882 0.555661)
(9.82309 -0.659697 0.286844)
(6.07534 1.24129 -6.12752)
(12.5961 0.318835 0.778755)
(11.5724 -0.267866 -0.425232)
(0.00901407 0.019415 -1.3651)
(10.9699 -0.0248018 0.25173)
(9.96724 -0.0826181 -0.0329212)
(9.98113 -0.0990412 0.54258)
(10.5321 0.997929 0.0377198)
(10.0557 -0.587093 0.301822)
(11.2044 -0.0659027 0.499505)
(0.199481 -0.339599 -0.152163)
(10.1324 0.300905 -0.249236)
(11.8025 -0.184045 -0.542264)
(9.91039 -0.649943 -0.271375)
(10.1112 -0.409892 -0.473438)
(11.4797 -1.15055 3.20974)
(9.9238 0.362618 0.322606)
(10.5602 -0.305988 -0.812168)
(9.15309 -5.2025 0.680962)
(9.2397 -0.117847 1.10681)
(8.82432 -0.817695 -0.881727)
(11.2491 -0.356779 0.634882)
(9.84534 0.627698 0.437177)
(9.80108 0.0280336 0.283667)
(11.8284 -1.12479 0.155779)
(5.62325 -0.511445 0.656659)
(10.3263 -0.485832 0.774348)
(9.70919 -0.393164 -0.51819)
(9.88804 0.036291 1.11348)
(9.64136 -0.232908 0.293101)
(9.87933 0.0975368 0.0677095)
(9.91878 -1.47017 -0.450645)
(8.08694 0.580312 -0.507646)
(-0.332393 1.88419 -2.65278)
(10.2504 0.400898 -0.637303)
(9.7278 -0.351205 0.19918)
(10.0398 -1.36843 -0.101663)
(7.55048 1.31666 0.563015)
(7.06175 -0.0678033 0.946819)
(11.199 -2.59712 4.0106)
(9.1565 -0.815025 1.64002)
(10.3514 0.019781 -0.104622)
(7.74771 0.36701 2.66216)
(9.59727 0.470455 0.161544)
(9.09135 0.449991 0.133457)
(9.57088 -0.0272664 0.135761)
(9.58306 -0.0454958 0.929146)
(9.59872 1.55389 1.33748)
(0.173248 -0.360938 -0.318563)
(11.1239 -0.0696728 0.256485)
(9.83066 0.641997 0.678281)
(9.97887 0.0236777 0.934809)
(9.5162 -0.318015 0.0847555)
(10.2091 -0.671768 1.02877)
(6.37476 -1.3997 -2.64182)
(9.62147 -0.402064 1.35037)
(8.27852 1.92563 -0.094778)
(9.24987 0.0951749 -0.550138)
(10.1051 -0.363637 -2.45248)
(9.87239 -1.18212 0.939324)
(10.7417 -0.0588348 0.362995)
(10.5418 0.64009 0.71241)
(9.93616 -0.181602 0.0387174)
(8.13493 0.16466 -2.35666)
(11.6991 -0.657791 -0.738247)
(11.4008 -0.19233 -0.16732)
(9.76942 0.664462 2.83039)
(7.96085 3.50035 2.90044)
(9.74125 0.609489 0.537955)
(10.192 0.258759 -0.521333)
(10.7122 0.369681 0.134389)
(6.98025 -0.0629242 -2.14955)
(10.3611 0.111813 -0.127821)
(10.2309 -0.62904 -0.251764)
(9.74226 -0.125247 1.18407)
(10.9226 0.234623 -0.324265)
(13.5195 0.176108 4.3124)
(9.42806 0.216543 0.780878)
(10.2448 -0.0895171 0.000714698)
(10.1196 0.139825 -0.329739)
(9.41243 0.772841 -0.0190102)
(10.6022 0.0837756 0.117734)
(10.0595 -0.365278 -0.0924747)
(14.9812 -0.41616 -0.410809)
(11.2769 -0.0660596 0.544534)
(4.92191 2.92678 -0.897195)
(10.0318 -0.285937 0.374391)
(11.2115 -0.455979 0.121903)
(10.2388 -1.00764 -0.802405)
(10.6623 -0.214046 -3.17726)
(9.5222 0.511298 1.0979)
(4.87585 -0.817356 -2.61512)
(10.1966 -0.372577 -0.698635)
(10.0496 0.196177 0.301752)
(10.0105 -0.116338 0.715402)
(13.504 0.650418 4.71007)
(9.53328 0.109671 0.10232)
(9.98646 -0.581829 -0.634925)
(9.60007 -0.48993 0.415176)
(10.6446 -0.53706 0.463163)
(10.2015 -0.167149 0.334886)
(10.4878 0.392952 0.388273)
(10.6939 -0.0924996 -2.16113)
(9.13948 -0.280871 -1.34769)
(11.3992 -0.205068 -0.734015)
(9.84502 0.240966 -0.313564)
(9.05752 1.73253 -0.876902)
(3.33986 0.659286 -3.17109)
(0.814873 0.337781 -2.43848)
(6.02613 2.63727 1.2987)
(12.577 -0.445954 -1.39172)
(10.2155 -0.0828024 0.36381)
(10.8008 -0.775093 0.222346)
(9.63645 1.14138 -0.438133)
(9.06086 1.00735 3.03421)
(9.02198 -0.646595 0.493422)
(4.77486 -0.53037 0.737665)
(8.51078 -0.307587 0.794435)
(10.2744 0.379363 0.595646)
(-1.04262 3.44888 -2.08437)
(9.9746 -0.629733 0.839074)
(10.602 0.246031 -0.332916)
(9.99879 -0.0819353 1.26873)
(7.60376 0.224692 -0.673641)
(8.41897 0.177516 -2.03424)
(9.56249 2.0765 1.2112)
(9.52518 -0.150855 0.00397521)
(10.1823 0.389605 0.515488)
(11.8572 -0.439178 -1.73714)
(9.93056 -0.0784021 0.245537)
(10.0175 0.103217 -0.171223)
(9.21888 -0.019481 0.149139)
(10.1454 1.28835 0.20515)
(10.1214 0.35394 0.39131)
(11.5 -0.33706 -1.14832)
(10.1003 -1.00926 -0.302335)
(8.87398 -0.38505 0.204009)
(9.89198 -0.691057 0.567565)
(9.11243 -0.237319 -1.28789)
(8.86328 0.338096 -0.406974)
(9.0461 -0.0161115 1.43765)
(9.73868 -0.60615 0.405556)
(10.2757 0.345061 0.280266)
(11.2829 -0.596193 0.104094)
(14.1597 -0.261177 -0.210184)
(10.4971 -0.151531 0.392481)
(11.3978 -0.393375 -0.76117)
(10.2859 -0.0394297 -0.190705)
(5.53763 -1.32223 -0.719468)
(9.51665 0.176941 -0.791897)
(9.97262 -0.273043 0.182656)
(9.32586 -0.177545 0.474311)
(15.0275 0.479391 1.47699)
(4.53926 3.61091 -0.0218613)
(7.38419 1.84601 0.00792697)
(-0.235208 0.913897 -0.172718)
(10.2903 -1.01227 -0.874607)
(10.9835 -0.320396 0.451397)
(8.6918 0.0685354 1.50581)
(0.0826269 0.886876 -0.17776)
(10.9006 -0.202052 -0.146426)
(10.1322 -1.98704 0.590986)
(9.26301 -1.08525 -0.774403)
(9.94254 -0.648846 0.322285)
(11.411 -0.0256631 0.415509)
(10.7357 0.229119 -0.311034)
(10.3847 -0.17226 0.175875)
(10.4187 -0.114103 0.674759)
(9.9544 -0.697099 -1.81744)
(10.3641 -0.0688694 -0.538883)
(6.04351 -0.413236 -4.7568)
(12.6114 2.79196 -4.03952)
(11.352 -0.058967 0.205732)
(6.28187 2.06798 2.04993)
(10.176 -0.536226 0.535326)
(2.51277 -0.885207 -1.58123)