/*--------------------------------*- C++ -*----------------------------------*\
| =========                 |                                                 |
| \\      /  F ield         | OpenFOAM: The Open Source CFD Toolbox           |
|  \\    /   O peration     | Version:  2506                                  |
|   \\  /    A nd           | Website:  www.openfoam.com                      |
|    \\/     M anipulation  |                                                 |
\*---------------------------------------------------------------------------*/
FoamFile
{
    version     2.0;
    format      ascii;
    arch        "LSB;label=32;scalar=64";
    class       surfaceScalarField;
    location    "0.0501868";
    object      phi;
}
// * * * * * * * * * * * * * * * * * * * * * * * * * * * * * * * * * * * * * //

dimensions      [0 3 -1 0 0 0 0];

oriented        oriented;

internalField   nonuniform List<scalar> 
7426
(
0.00138132
-0.00049241
-0.0058581
0.0049692
0.0056773
0.00037906
0.00465211
0.0233995
-0.0231336
-0.00491797
0.000128477
-6.75569e-05
-4.75963e-05
-1.33236e-05
0.000319003
-0.000789603
-0.000650771
0.00112137
0.000919671
-0.000309527
-0.000291141
0.00010019
-1.65555e-05
0.000715225
-0.00079886
0.000905871
0.000221982
-0.000697908
-0.000429944
-0.000407222
0.000560863
0.000624065
-0.000777706
-0.00100516
0.000645083
-0.00115575
0.00151582
0.000591235
-0.000314798
-0.000276437
-0.00109772
-3.01716e-05
0.000565087
0.000562809
-0.00539093
-0.0441933
0.00377803
0.000695582
-0.000230862
-0.000714683
0.000249963
0.00534263
-0.0528386
0.0302949
0.00306593
-0.0404645
0.00710365
0.00110573
-0.00604701
0.0158627
-0.0109214
0.00828429
-0.00559034
-0.00933779
0.00664384
-0.00442787
0.0151344
-0.0024222
0.000256853
0.0580482
-0.0576052
-0.000699815
-0.0045704
0.00723558
-0.00966536
0.00700017
0.00110999
5.10817e-05
0.000724232
0.0220201
0.0113369
-0.00224586
-0.0311111
-0.000953523
0.000571773
0.00149174
-0.0445339
-0.000443301
0.0449772
-0.000480995
0.000308675
0.0010072
-0.00083488
-0.00026415
-0.00131457
0.0021165
-0.00123795
0.000239374
-0.00111792
0.000486609
0.00188603
0.00199832
-0.00181602
0.000304305
-0.00194313
0.000979907
0.000933055
0.000246668
-0.000303772
0.000133846
0.00211114
0.000452481
-0.000279365
0.000746555
0.000115565
-0.000825403
0.00116232
-0.000334298
0.00135762
-0.00121848
-0.00179614
-1.78669e-05
-0.000669596
0.0024836
-0.000513498
-0.000242665
7.18997e-05
9.36341e-05
7.71312e-05
0.00348984
0.00100741
-0.00229743
-0.00219981
-0.000391676
0.000487071
-9.5395e-05
0.00165987
-0.0728458
0.09814
0.000127924
-0.000402288
-0.000117313
-9.42431e-05
-9.86443e-05
0.000679959
-0.00054561
0.000769246
-0.000317879
-0.000147442
-0.000270244
-0.0150086
0.0439383
-0.0213533
0.00234689
-0.000176898
-0.00191613
-0.000253859
-0.0757197
-0.0103462
0.030086
0.0559798
-0.000910564
0.000203557
0.000408936
0.00029807
0.000954864
-0.000628628
0.000666786
-0.000993021
-0.00067696
-0.000793422
0.00173149
-0.000261113
-0.0336511
5.46611e-05
0.0338593
0.0234373
-0.0748905
0.0175939
0.000208189
-0.036293
-6.98723e-06
-0.0228926
0.0100369
-0.135338
0.0181237
-0.0105157
-0.000246682
0.00210329
0.00154086
-0.00339746
-0.00135531
0.00049796
7.48976e-05
0.000782449
0.000883798
0.00331248
-0.00233832
-0.00185796
-0.000927123
-0.000370549
0.00129767
0.0110356
-0.0176496
0.000201991
0.00641194
0.00585413
0.00373575
-0.00751012
0.00178474
7.23353e-05
0.0284378
0.00230906
0.0771144
-0.0377594
-0.041664
-0.00766512
-0.00673096
0.00302487
0.0113712
0.000491646
0.00155989
-0.00263673
0.000585188
-0.00014332
-0.00297154
-0.00296803
0.00608289
0.00438691
0.000594432
0.127363
0.0348538
-0.142173
-0.0200442
-0.000187581
0.00143643
-0.00192581
-0.00152354
9.1004e-05
0.00651421
-0.00508167
0.00133783
-0.000482983
0.000501739
-0.00135659
0.0117462
-0.00759837
-0.000248925
-0.00389892
-0.000929647
-1.91866e-05
0.00101927
-7.04372e-05
0.0414778
0.0147738
1.26433e-05
0.00219431
-0.00180239
-0.000404565
0.000155721
0.000911753
-0.000680313
-0.000387161
0.00142404
-0.0031076
0.00197828
-0.000294724
-7.83518e-05
0.000599936
6.78348e-05
-0.000589419
8.95374e-05
0.000677561
-0.00054249
-0.000224608
0.00266802
-0.000164898
-0.000149901
-0.000692749
-0.00155624
0.00239889
-9.03564e-05
-0.000322118
-2.55892e-05
0.000438064
-0.000111663
-0.000915194
0.000433975
0.00203502
0.00432881
-0.00361846
-0.00154934
-0.00429671
0.00593884
-9.27943e-05
0.00207987
0.0035906
-0.00177702
-0.00389345
-0.000196798
0.00112104
-0.000434465
-0.000489775
0.00176669
0.00624334
-0.0070465
-0.000963524
-0.000896616
0.000696727
0.000411112
-0.000211223
0.00179527
0.000837735
-0.00944037
0.00680736
0.000262051
0.00112116
-0.00145957
7.63603e-05
0.0125085
0.00288228
-0.00867696
-0.00671376
-0.00487671
0.0102786
0.0166182
0.0541879
0.000254949
0.0749771
-0.000727469
-0.00216806
-0.00309704
0.00388371
0.00138139
-0.00104934
0.0014422
0.00176072
-0.00215357
0.0531636
0.010578
-0.00549716
0.00171673
0.00143854
-0.00225669
-0.000898576
-0.0538617
-0.0947819
0.10445
-0.0016605
0.00194762
-0.0109324
0.0106453
3.67875e-06
-0.000371754
0.00155025
-0.00118218
-0.00181061
-0.00102298
-0.00328346
0.00546935
0.000476665
0.000373708
-0.000322025
-0.000528348
0.000627146
-0.000150482
0.000224859
-0.000563347
0.000640763
-0.000635144
0.000445506
-0.0420957
0.0195129
-0.0569374
-0.00981326
0.00571611
-0.0413867
0.0454838
-0.000418002
-0.000409954
0.000827956
-0.000780262
0.000445616
-8.3355e-05
0.000314757
0.000307155
0.000406867
-0.00102878
0.000539172
0.00137786
-0.00262971
0.000712673
7.3942e-05
0.000151024
-0.00050825
0.000283285
-0.000359407
0.000674164
-0.0184641
0.0159696
0.0162434
-0.0137489
-0.000297324
7.24133e-05
0.00320919
0.00194121
-0.00341711
-0.00173329
-0.0114516
-0.00776952
0.00964119
0.00957996
0.000190897
0.00113448
-0.00146619
0.000140809
0.00692614
-0.000251891
0.000400586
0.000691142
-0.00501333
0.00491662
-0.000101075
0.000300857
-0.000685943
0.000121269
-0.000222344
0.00174155
0.000942628
-0.002145
0.00356085
-0.000540859
0.000360748
-0.00338074
-0.000174917
-0.000451329
0.000838826
-0.00021258
0.0005113
0.000137557
0.000387599
-0.00103646
-0.0361535
-9.52062e-05
0.0040009
0.0322478
-0.0175953
-0.0106701
0.016697
0.0115684
0.0132879
0.0144933
-0.00945084
-0.0183304
-0.00264729
-0.00180402
0.00285446
0.00159685
0.00070652
-0.000507053
0.000311833
-0.00379583
-0.0146886
0.0283086
-0.00982412
0.00155637
0.000822692
-0.00125523
0.00178018
0.00315853
0.00674032
-0.00290962
0.00339652
-0.00722722
0.00019223
0.000668872
0.00149147
-0.00235258
-0.0141054
0.0232577
0.00275459
-0.0119069
0.00474033
-0.000491112
0.000259853
-0.00450907
-0.0545475
-0.0199209
0.0761282
0.000792334
-4.62061e-05
-0.00101829
-0.000728046
0.000567046
-0.00118797
0.00134897
0.057167
-0.0516436
-0.00407565
-0.00144773
0.107901
-0.0476536
-0.0313867
0.0357253
-0.00346222
-0.00900553
-0.0232576
0.000471981
0.000405219
0.0028699
-0.0037471
0.0023044
-0.00290022
-0.000182532
0.000778355
0.00252005
-0.00790185
-0.000934476
0.00631627
-0.004217
0.0173063
-0.00931443
-0.00377486
-0.000739081
1.13962e-05
0.000113132
0.000614554
8.65882e-05
-0.00151729
0.0223799
-0.0305082
-0.00064321
0.00289752
-0.00224147
-1.28421e-05
-0.000396822
0.00045637
-5.95479e-05
0.00282447
-0.00317152
0.000625128
0.000489291
-0.000371335
-0.000117955
-0.00053077
0.00315501
-0.00466033
0.00203609
-0.00180491
0.00249605
-7.36688e-05
-0.000644285
0.000510989
0.000206966
-0.00688103
-0.000520717
0.0103204
-0.00291865
0.00768752
-0.00421073
-0.00169872
-0.00177807
-0.0162491
-0.0126242
0.0237145
0.00515882
-0.00522723
-0.00736778
0.0212011
-0.00860609
-0.000470396
0.00061093
0.00152638
-0.00166691
0.00381374
-0.00306701
0.00324006
0.00682213
-0.0608853
0.0313074
0.0227557
0.00349312
0.00124151
-0.00268472
-0.00204991
-0.000513373
-0.000111136
0.000624509
-9.79532e-05
-0.00041542
-0.0357164
-0.00691473
0.0227407
0.0198905
-0.00237919
0.00123412
-0.0185691
0.0197142
-0.00106268
0.000153043
0.000649378
0.000260259
0.00413021
0.000612411
-0.00153344
-0.00368044
0.0252802
0.00147813
-0.0230779
-0.000422555
0.00151998
0.00196484
-0.00306226
-9.39066e-05
-0.000278207
0.0165547
-0.033099
-0.0191721
0.000277636
-0.000409972
0.000492529
-0.000360193
0.00232365
0.00221944
-0.00105325
-0.00185221
-0.00155087
0.0042509
-0.00084782
0.022421
-0.0335877
0.0156222
-0.00445552
-0.00522996
0.000528523
0.00722149
0.0145001
-0.017199
0.00366862
-0.000969652
0.00191914
-0.0116786
-0.00169222
0.00114244
0.00124216
-0.00064305
-0.000506391
-0.00295828
0.00540588
-0.0561864
-0.00786091
0.0257883
0.038259
0.000462187
-0.0449961
-0.00144187
-0.000179636
0.00185354
-0.000232037
-0.000588141
0.00145021
-7.81319e-05
-0.000783933
0.000357976
-2.17602e-05
-0.000246678
0.000116771
-0.000233654
-0.000516306
0.000633189
-0.00207254
-0.00104732
0.00322969
-0.000109831
-0.000963275
-0.000179758
0.000151424
0.000991609
-0.000136188
-0.000353561
0.00151175
-0.001022
0.00637393
1.13451e-05
0.00144708
-0.00170642
-0.0014313
0.00169063
-0.000615597
0.000170636
-0.000393673
0.000838634
-0.00120922
-0.00132551
0.00333907
-0.000804335
0.000538464
0.000209608
-0.000677567
-7.05054e-05
-0.00636251
-0.00825673
0.009392
-0.000473147
-0.000556992
0.00124038
-0.000210244
0.0267651
-0.0214648
-0.000648128
0.000317234
-0.00159493
-0.000299942
0.00157764
-3.0206e-05
0.000485139
0.000217688
-0.000672621
0.00474941
-0.00520671
-0.000463736
0.000921032
-0.000982209
-0.000237568
0.000808284
0.0559043
-0.00330601
0.000208412
0.000499673
-0.000647149
-6.09362e-05
0.000757344
-0.000783341
2.59976e-05
-0.0115328
-0.00247085
0.124271
-0.110268
-0.012548
0.0103683
0.00207948
0.000100243
0.0015316
-0.00253139
-0.00106966
0.00206945
1.79086e-05
0.000358469
0.000463885
-0.000840263
0.0005072
0.0012563
0.000904333
0.000186254
0.000393403
0.00122636
-0.00154341
-7.63518e-05
-0.00109536
0.00101562
-0.00118227
-0.00092508
0.00105842
0.00104893
0.00886564
0.00425251
-0.00646455
0.0142208
-0.00194993
-0.0045834
0.047316
0.0143241
-0.0564198
-0.00522031
-0.000192173
0.0533558
-0.00856904
-0.0461636
-0.0503277
0.0508674
-0.00442271
-0.0358666
-0.0533446
-0.000517125
0.036432
-0.0278465
-0.00368882
-0.00489672
0.0031188
0.000597692
-0.00392175
-0.0142781
0.019776
-0.00905611
0.00355825
0.00377644
-0.00318377
-0.00546288
0.00505496
0.00224579
0.000395163
0.00495194
0.000122343
0.0028075
-0.00253468
-0.00320183
-0.00037588
-0.00188517
0.0071451
-0.00295078
0.000691729
0.000126915
-0.00100995
0.000191302
0.000194919
0.00541515
-0.00183363
0.00145016
-0.00279437
0.00203594
0.000228654
-0.000638609
-0.00021608
-0.00024066
2.99575e-05
0.000426783
0.00730673
-0.00568833
0.000627384
0.00645633
0.00298696
-0.00213656
0.000280023
-0.0020947
0.00827101
0.000387522
2.72508e-05
0.00103539
-0.00166537
0.0022385
0.000915672
-0.0014888
-0.00910484
0.0073922
0.00613668
-0.00442404
0.00322053
-0.00389476
-0.00248842
0.00316266
-0.00112298
0.00453842
-0.00166557
0.00624934
0.00083138
-0.00324472
0.000741973
-0.000291624
2.35977e-05
0.000600596
-0.000236671
-0.00290156
-0.00392898
0.00250546
-0.000242051
-0.000799411
0.000710245
0.000228652
-0.00010596
-0.000922102
-0.000810664
0.000505846
-0.000381528
-0.00401908
0.00399353
-0.00156192
0.000810665
-0.00224543
2.00088e-05
-0.0010193
-0.00275786
0.00337246
0.00012737
-0.00210775
-0.000261332
0.00325288
0.000808297
0.0012104
-0.00450712
0.00601039
-0.00580498
-0.00106232
-0.000616272
-0.000566838
0.0109858
-0.000606604
-0.00577938
0.00941559
-0.00764264
0.00400643
-0.0106013
0.00794221
-0.00498557
-0.00454252
0.0156648
-0.00996076
-0.00187848
-0.00151139
-0.000717462
0.0116444
-0.00253563
-0.00312155
-0.00187714
0.00290399
0.000377246
-0.00563536
0.00225832
-0.00162995
0.00844723
-0.00201641
0.000558215
-0.00161446
0.0010835
-0.0994914
0.0970142
0.00327275
-0.00581124
0.00854888
0.00232771
-0.00318478
0.00166768
-0.101159
-0.000903019
0.00296898
-0.000991811
-0.00612957
-0.000397171
0.00210271
0.00821732
-0.00178192
-0.000759769
-0.0137158
0.00961285
-0.00521041
0.00931335
-0.000197139
-0.000364069
0.000329946
0.000231262
-0.000581813
9.67143e-05
0.00028796
0.000943032
-0.000714378
0.000505931
0.000314245
0.000702709
-0.00101695
-0.00144683
0.000698762
-8.91399e-05
0.000503824
0.000667204
-0.000580768
0.000436227
0.000592882
-0.000442932
-0.000586177
-0.000691901
-0.000298036
-0.000137339
0.000125332
-2.10398e-05
0.000257566
-0.00133907
0.000761066
0.00187418
-0.00129617
-0.00129751
0.00140356
0.000678024
-0.000784069
-0.000216699
-0.00130015
0.000219333
-0.00195524
0.00039947
-0.000722654
0.00288728
-0.00157471
0.0020144
0.00109567
-0.00153536
0.00234864
-0.0031976
-0.000725748
0.00277551
0.00207457
-0.00250144
0.00409638
0.000693521
-0.000523561
0.00358589
-0.00422579
0.00137593
-0.000736034
-0.000304544
0.00534369
-0.00145326
-0.000530976
-0.0012935
0.00167458
-0.00141126
-0.000542636
0.00142292
-0.000680037
-0.00117075
0.00055728
4.48539e-05
-0.00213615
-0.00256163
0.00319569
-0.00187806
0.00124401
0.000230278
0.00161021
0.000856741
-0.00269722
0.00300921
0.000638719
-0.000363635
-4.35585e-05
0.000812656
-0.000405462
-0.000243764
0.000232253
-6.79373e-06
1.83047e-05
-0.000398719
0.00200322
-0.000362297
-0.000418951
-0.00133507
0.00014149
0.000733174
-0.00243658
0.0015932
-0.00208457
0.00168007
-0.0011887
0.000724407
-0.00167394
-0.000765494
0.00171503
0.000101586
0.00330827
-0.000999179
-0.00241067
0.00274349
-0.0019175
-0.000728723
0.00229598
3.27619e-06
-0.00157053
0.00233196
-0.0031961
0.000231313
0.000632822
0.00162911
0.00124208
-0.000539227
-0.00332338
-0.000634719
0.00409535
-0.000137254
0.00207552
-0.00148101
-0.000393207
-0.000201307
0.000473953
-0.00040504
-0.00201987
0.00195095
-0.00103987
0.00326135
3.93369e-05
-0.00226082
-0.000487328
-0.00166989
0.00146447
0.00182862
-0.000694981
-0.00127668
0.000143036
0.0038683
-0.00137518
0.0031083
0.00112327
-0.00036327
-0.00571189
0.000131866
-0.00195924
-0.00273303
0.00197989
0.00271239
0.00213132
-0.000455825
-0.00363474
-0.00132476
0.000176271
-0.00179266
0.00294115
-0.00171393
-0.0013036
0.00169278
-0.000896204
0.00198784
0.00103968
-0.00688821
0.00341234
0.000230026
0.00324584
-0.00200579
-0.00106868
0.00325659
-0.00699166
0.0076421
-0.00390703
0.0366369
-0.00103366
-0.0126589
0.0188239
-0.0129139
0.0125507
-0.0266928
0.00682017
0.00732188
-0.000208976
-0.0118112
0.0272269
-0.0152067
0.0179755
-0.0215065
0.021729
-0.018198
-0.0149152
-0.018563
-0.0116601
0.0451383
0.0348445
-0.0248208
-0.0511066
0.0410829
-0.0274768
-0.0249062
0.0872275
-0.0291794
0.0152825
-0.0135799
-0.030629
0.0347344
-0.0190206
0.0384539
-0.0339906
0.0130314
-0.0174947
0.0431486
-0.0274197
0.0209686
-0.0366975
-0.00841733
-0.00680427
0.0583701
0.00104837
0.0386695
-0.0611942
0.0214763
0.0380143
-0.056256
0.0192902
0.001125
-0.000400147
0.00227678
-0.00300163
0.00314424
-0.000170991
-0.00184825
0.000660469
-0.00267371
0.000299307
0.000483037
-0.000777404
0.000294367
0.000696511
-0.000213474
0.000464557
-0.000294851
0.000526804
0.00304616
0.00109438
-0.00183614
-0.00197909
0.00130567
0.0017207
-0.00104728
0.000291157
0.000775917
0.00150921
-0.000586968
0.000674434
-0.00159667
-0.00079027
-0.000749618
0.00176185
-0.000221962
-0.00111104
0.00223874
-0.00191797
-0.0155946
0.00903495
-0.00865549
1.22985e-05
-0.00695137
0.0154093
0.00367677
-0.0172848
-0.0018013
-0.0108958
-0.00932164
-0.012935
-0.0114552
0.0337119
0.0163786
-0.0375486
0.00217886
0.0189911
0.000893407
0.000834643
0.000836699
-0.00256475
-0.00205807
0.00103544
0.00191604
0.000129565
-0.000793602
9.09967e-05
0.00057304
-0.000741942
-0.00158397
0.00249901
-0.000173098
-0.000744276
-0.00185183
0.00158244
0.000685312
-0.00181066
-0.00118332
0.00189371
0.00110027
0.000612423
-0.000101719
-0.00199171
-0.000936525
-0.000916511
4.23759e-05
-0.000235833
-0.00106148
0.000478246
0.000819062
-0.0028975
-0.00857869
0.0122607
-0.000784514
-0.0101085
-0.00193752
0.00914854
0.000945892
-0.00861189
-0.00244252
-0.000225686
-0.00740711
0.006489
-0.000544828
0.00631653
0.000607067
0.000258531
0.000779938
-0.00164554
-0.0016342
0.000351404
0.00189521
0.0026751
0.00288125
-0.00432895
-0.0012274
-0.00117009
-0.000768838
0.00126251
0.000676416
0.00155347
0.00218796
-0.00127052
0.00158901
0.00164249
-0.0029587
-0.000272798
0.00350065
0.000912831
-9.92792e-05
-0.000922491
-0.000468271
0.00149004
0.00102776
-0.000789174
-0.000337863
0.000984536
-4.30402e-05
8.62632e-05
-0.000434277
-0.000551696
0.000905167
-0.000955472
-0.000383972
-0.000970147
0.000952822
-0.00085168
0.00132341
0.000512801
0.00145025
-0.00026859
0.00125708
0.000705215
-0.00108954
-3.62655e-05
0.000131488
0.00099432
-0.00135827
0.000888352
0.000302419
-3.69203e-05
0.00127989
-0.00235359
0.00313555
-0.00118368
0.000401727
-0.00508872
0.00806848
-0.00796533
0.00273143
-0.00171552
1.76226e-05
2.39515e-05
-0.000136461
-0.0061391
0.00350952
0.00276603
-0.000163189
-0.000144218
0.000161001
0.000146406
-0.00279859
0.0115414
-0.000674329
0.00241721
-0.00172656
0.000251986
-0.000960172
0.00126818
0.00443232
0.00399242
0.000215795
0.000593123
0.0010089
0.00108256
-0.0028603
0.000309257
0.000376737
-0.000685994
-6.20372e-05
0.000685238
-0.000158644
-0.000532336
0.000670093
-0.000228113
0.000964433
0.00196458
-0.00172989
-0.00119912
0.00177089
-0.00135397
-0.000818176
0.000401254
0.00299854
-0.000186254
-0.00281228
-0.05381
-0.0453269
0.01284
0.021818
-0.00983983
0.00252193
-0.00171777
4.36743e-05
-3.02225e-07
0.00167439
-0.00683679
-0.00402264
-0.0416312
0.0412255
-0.00643114
0.000813593
0.00106344
-0.00292637
-0.000226214
0.000382417
-0.000222608
6.64046e-05
0.00347126
0.00885954
-0.00541231
-0.0069185
0.00227757
-0.00384503
0.000620537
0.000946932
-0.000880889
0.000117121
0.000366945
-0.00214763
0.000711599
0.00124845
-0.000592848
0.000330884
-0.000466083
5.62233e-05
9.15224e-05
0.000201659
-0.000349405
0.000437458
0.000805679
-0.000251143
-0.000991994
0.0314207
-0.0251511
2.07265e-05
-7.33917e-05
0.000181142
0.0050108
-0.00301762
0.0192079
0.00222675
0.0338335
-0.0360602
-0.00603087
0.0188523
-0.0088538
0.000109126
-0.000755315
-0.000575288
0.00122148
-0.00126013
0.00461572
-0.00251415
-0.000841439
0.00261831
-0.00216849
0.00119266
0.000432259
-0.000163334
0.00817831
2.68885e-05
0.000299643
6.32835e-05
-0.000389815
-0.000382491
0.000735536
-0.000415082
-0.0550445
-0.000316261
0.0553607
0.00853698
-0.000135771
0.0012537
-0.00965491
0.000197041
0.00272915
-0.000465739
-0.00246045
-0.000359081
1.49858e-05
0.00933915
0.00243481
-0.00836161
0.00259349
-0.00187827
0.000799966
-0.000522155
-0.000277811
0.0013586
6.47007e-05
-0.00449031
-0.00357476
0.00679661
-6.21602e-05
0.000304273
0.000468189
-0.000436407
-0.000336055
0.000217815
-0.00055921
0.000325039
1.63558e-05
0.00147902
-0.00216091
0.00028174
-0.0838006
-0.00782186
0.0687299
-0.0512749
-0.0202283
0.00347085
0.0680323
-0.00112196
0.0017514
-0.00207503
0.0014456
0.000703448
-0.00107502
0.000265607
0.00337188
-0.0001212
-0.0024715
-0.000779182
0.000850853
0.000680446
0.000671021
0.000523968
-0.00118065
0.00121542
-0.000558737
-0.00474663
-0.0182373
-0.0156978
0.0246135
0.0010415
0.0136166
-0.0106094
-0.0040487
-0.00191051
-0.00595188
0.00714492
-0.000844584
-0.0010446
0.00198438
-9.51904e-05
-8.33932e-06
1.2871e-05
6.64053e-05
-7.0937e-05
0.000369542
-0.000336909
0.00658024
0.000467883
-0.00870862
9.28071e-05
-1.66103e-05
-0.000123793
-0.00911573
-0.00201124
0.00871424
0.00241273
-0.0057496
-0.00525835
0.00189222
-0.00370665
-0.00645367
0.0120589
-0.00189863
4.98242e-05
-0.000287392
0.0037837
-0.00019091
4.84473e-07
-0.00359328
-4.10598e-06
1.90772e-05
-0.000185317
0.000170346
-0.00466058
0.00965094
-0.00869701
0.00154428
0.0584767
-0.0380378
-0.0219832
0.00180161
0.000400557
0.00821906
-0.0104212
0.0178102
0.00487695
-0.0115646
-0.0111226
-0.00422111
0.00572695
-0.00808152
0.00657568
0.0639656
0.00820721
-0.0341585
0.000159196
-0.00878615
-0.00251573
0.00993433
-0.0567664
0.0865849
0.0516929
0.000935118
-0.0720561
-0.004691
-0.00126422
0.00408099
0.00187424
0.000210982
-0.00334375
-0.00131989
0.00445266
-0.00117515
0.00205774
-0.000218827
-0.000663762
0.00349069
-0.0111071
-0.000177603
0.000503164
-0.000550046
0.000224485
0.0644913
0.00658014
-0.075894
0.00482258
0.0206487
0.0329604
0.00747517
-0.0610842
0.00032142
-0.000422588
0.000774816
-0.000673648
-0.00223954
0.00422648
-0.00284899
0.000862057
-6.58998e-05
0.000636292
-0.000369058
-0.000201334
0.00748617
-0.00788896
-0.0023958
0.001575
0.00123371
-0.00121551
0.00154497
0.00158587
-0.00452106
0.00139022
-0.00555788
0.00397773
-0.000330362
-0.000306582
0.000744542
0.00104106
0.00187811
0.00124936
0.000838063
-0.00396553
-0.000805855
-0.000188699
0.000404623
0.000589931
0.000156325
0.000233943
-0.000680408
-0.000130549
0.00138839
-0.000577436
0.00175294
0.00226012
-0.0024044
-0.00160866
0.000259221
-0.000705889
0.000616763
-0.000170095
-0.00188572
0.0011791
-0.0014716
0.00104698
-0.000664922
-0.00169079
0.00242235
-0.00159232
0.00086076
0.000597629
-0.001569
0.000664784
0.00204094
0.00157276
-0.00257831
-0.00792915
-0.000532564
0.0145945
-0.00613283
-0.000215715
7.63711e-05
-6.3518e-05
0.000202862
-0.00133355
-0.00231369
0.00247209
-0.000110986
0.000279535
-0.000461895
0.000293346
-0.000554127
-0.000498172
8.21519e-05
-0.000203842
0.000528621
-0.000707271
-0.00111037
-0.000962273
-0.000141125
0.00221377
0.000144793
0.00186998
0.00108509
0.000651073
-0.00100959
-0.000726576
7.66335e-05
-0.00199166
0.00197952
-0.00256375
-0.000489647
0.00107388
0.00657987
-0.00154748
0.000295475
-0.00532787
-0.000169492
9.13419e-05
0.000300189
-0.000222039
0.00135819
0.000115481
-0.000937394
-0.000536281
0.00283292
-0.00237729
0.00128436
-0.00133422
0.00186329
-0.00125172
0.000366766
0.000132228
-0.000515549
-0.00294685
-0.00127905
0.00348397
-0.00145211
0.00269177
-0.00123966
0.00359628
-5.4973e-05
-0.00283716
-0.000704142
-6.69425e-05
-0.000736239
0.00347828
0.000412478
-0.000218222
-0.000493325
0.000299069
0.00143163
-0.000534941
-0.000641736
-0.000254956
-0.000137156
0.00412181
-0.00173057
-0.00225408
0.000220443
-9.51152e-06
-0.000443657
-0.000365324
0.000508762
-0.000228591
8.5153e-05
0.000744728
-0.000169767
0.000510132
0.00191519
0.00186292
0.000208526
-0.00398663
0.00103687
0.00211566
-0.000171373
0.00115641
-0.0007074
0.000350775
-0.0003498
-0.000741392
0.000740417
0.00697028
-0.00377776
-0.00543207
0.000662417
-0.000158755
-0.000922612
-0.00181365
0.00139546
7.10023e-05
0.000347196
0.00153911
-0.00192853
0.000353158
-0.0149767
0.00482973
0.00868514
0.00146188
-0.00300518
0.00184735
0.00104723
0.000110599
-0.00198369
0.00339376
-0.00100268
-0.000407389
0.000261887
-7.07033e-05
-0.000652195
0.000461012
-0.00142208
0.00381622
-0.00365428
0.00506014
-0.0037122
0.0115048
-0.00102791
-0.00676472
0.00338728
-0.00422638
0.0085634
-0.00772431
0.00161055
-0.00446353
0.000552488
0.00230049
0.000828894
-0.00144703
0.000603178
1.4955e-05
-0.000506102
0.000776848
-0.000445663
0.000235419
0.000341605
-0.000984245
-0.000721361
0.00168848
-0.00113849
0.000283047
-0.000387187
0.000131029
-0.000163636
-0.000535319
-0.000199057
0.000363641
0.000370734
-0.000235615
0.000232069
-9.74404e-05
0.00016653
0.00313479
-0.0308064
0.0506906
0.0360201
-0.00369652
-0.000651633
0.00675964
-0.00241149
-0.00579515
0.00557471
0.00094505
0.0138682
0.00334729
-0.0106353
-0.00366158
0.00796229
-0.00556281
0.0012621
-0.000109051
-0.000108136
0.000217186
0.000891099
7.2292e-05
0.00105461
-0.002018
-0.00187722
0.000585932
0.00176511
-0.000473823
0.011324
-0.0432106
0.0274418
0.0044448
-0.000202261
1.8542e-05
0.000183719
-0.00327881
0.000947455
-0.000620594
-0.0343243
0.0312644
0.00610537
-0.00629149
-0.00182512
0.00869526
0.0447344
-0.0534297
0.000716162
0.00132507
-0.00117416
-0.000867066
0.0014918
0.00154536
-0.000427688
-0.00260947
0.00225779
-9.66729e-05
-0.000485959
-0.00167516
-0.00651738
-0.00942464
0.000607603
0.0153344
-0.00803335
-0.00435389
0.00550621
-0.0109993
0.00754645
0.00117054
0.00228233
0.0136148
-0.00557282
-0.0117542
-0.00171563
0.00387426
-0.0011942
-0.00166136
0.00126492
-0.00483352
0.00410775
7.00661e-05
-0.00582396
0.00164614
0.0152586
-0.00153799
-0.0034756
0.000124213
-0.000602375
0.000380397
9.77649e-05
9.17452e-05
0.000236729
0.000151952
-0.000480426
0.00101714
-8.01454e-05
5.8685e-05
-4.56004e-05
0.000671047
-0.0016447
0.000277124
0.00146398
-9.63985e-05
-0.00145043
0.00149602
-0.00128548
0.00123989
0.000586834
0.000391149
0.00143922
2.00551e-05
-0.000834089
0.000185406
-0.000912179
-0.00213163
0.00290762
0.00266434
0.000490326
-0.00140172
-0.000347204
9.24115e-05
-9.41308e-05
-0.0777561
-0.0402
0.081591
0.0363651
0.0489361
-0.0402409
-0.000206367
-0.000199113
0.00032699
7.84899e-05
0.000604192
0.000314589
-0.000567205
-0.000351576
-0.000471298
0.000221233
-0.000342782
-0.0147527
-0.0479786
0.00892128
9.11792e-06
0.00109742
-0.000915643
0.00595602
0.0474813
0.00372962
-0.00453855
-0.000831863
-0.00327797
0.00864838
-0.0419815
0.0460009
-0.0340567
0.0300373
-0.000220162
0.000555613
-0.00020248
-0.000132971
0.000285212
-0.000340901
0.000313889
-0.000258201
-0.000274003
0.000406364
-0.000413549
0.000281189
0.00349864
0.00280661
-0.0105359
0.00423068
-0.00161425
0.0010678
-0.00132885
-0.000263167
0.000220305
0.00137171
-0.00375906
0.0021997
-0.00031065
-0.000209778
0.000290613
0.000229815
0.00819551
0.00026497
0.00112259
-9.09435e-05
-0.00103164
-0.0012678
-0.0172143
-0.0247226
0.0432047
-0.000551352
0.00200283
0.000299404
-0.00175088
-0.000797006
3.87583e-05
0.000695834
6.24142e-05
0.00108337
-0.00095344
0.000675156
-0.00137811
-0.000597189
7.04187e-05
0.000450652
-0.000599716
0.000225026
0.000374691
-0.000457226
0.000430435
0.000209132
-0.000182341
-0.00032698
-0.000241881
0.000509301
0.000246048
0.000180654
0.000177351
-0.000604052
-0.00144955
0.00102711
0.00176028
-0.000762593
-0.000184385
0.000378274
0.000568703
-0.000304717
0.000140515
0.000371564
-0.000207362
-0.00254789
0.0116735
0.00543947
0.00281782
-0.00262143
-0.00563587
0.00050124
-0.00200367
0.00215345
-0.000651019
-0.0010243
0.000895637
-0.000104995
-0.00117264
-0.00248912
0.00220965
0.0022382
-0.002223
0.00140884
-0.00120102
-0.00427475
0.00217395
0.00330181
0.00290976
-0.00117683
-0.00187625
-0.000300947
-2.31081e-05
0.00133882
-0.00101477
-0.0476101
-0.000416387
0.0480264
0.0397622
-0.0799903
0.0143796
0.0258485
0.109952
-0.00172957
0.0183727
-0.0361595
0.000653793
0.0372905
-0.00727835
-0.00720558
-0.0541609
-0.0995538
0.0510037
0.0192159
-0.0490628
-0.00630662
0.00193272
0.0287859
-0.0306462
-0.0429992
-0.0248543
0.052875
0.0149786
0.00160479
0.000428929
-0.00118739
0.000831816
0.00196036
-0.00691942
-0.0107783
0.0134807
-0.0016338
0.00255538
0.00175004
-0.00267162
0.0475729
-0.0458942
0.0123386
0.0777082
-0.0441525
0.0502772
-0.0488201
-0.100503
0.0990454
-0.0082025
-0.0430564
0.0428416
-0.0587032
-0.0366383
0.0968859
-0.00316059
0.000356878
0.00697127
-0.000436926
-0.000249716
0.00150056
-0.000813914
0.0248915
0.0352476
-0.0488152
-0.0204603
0.01331
0.00690301
0.000247255
-0.00280497
-0.0104675
-0.0289012
0.0460656
-0.00377327
-0.0133911
-0.0433875
-0.0683618
0.00548858
-0.00340061
0.0503544
-0.0147459
-0.0322078
0.000557562
0.100735
-0.101293
-0.00357005
-0.0088513
-0.000207088
6.99158e-07
-1.5668e-05
-0.0106698
0.0229693
0.0410647
-0.0350787
0.0297393
-0.00889759
-0.0385163
-7.34895e-05
-0.00481933
-0.00274581
0.00763863
8.5137e-05
-0.0018569
0.00173528
-0.000202727
-0.00130687
0.00179456
-0.00375267
0.00393762
0.000589659
0.000393132
-0.000946354
-3.64363e-05
-0.000239617
0.000158851
0.00132778
-0.00124701
0.000167321
-0.00104821
-0.000154666
0.000481812
-0.000859483
4.56703e-05
3.60539e-05
0.000136741
-0.000218466
8.93153e-05
0.000199028
6.96321e-05
0.00101933
-0.000595965
-0.000239758
-0.000183605
-0.000107309
-0.000227988
-0.000435359
0.000770657
-0.00921939
-0.00396979
0.0222241
0.00078581
-0.00132212
-0.0007616
-0.00248982
0.00188978
0.00136164
0.000748541
-0.000591619
-0.000377083
0.000276839
-0.000139722
-1.29036e-05
-0.000404981
6.36733e-05
0.000341307
0.000752775
-0.000874871
0.000134739
0.00162675
-0.000185211
0.000189854
-0.00163139
-0.000583974
0.00010719
-0.000101371
0.000382409
0.000467503
-0.00060178
0.000104877
0.0018704
-0.000533394
-0.000620848
-0.00215674
1.68014e-05
5.11255e-06
-0.000566032
0.000544118
-0.000830821
-0.00121938
-0.000731142
0.00126733
0.00113171
0.000670365
-0.000873894
-0.000928182
-0.000296887
0.000421007
-0.00056392
0.000439801
0.000689191
-0.000689861
1.15138e-05
-1.08439e-05
-0.00330066
0.0458798
-0.0523924
-0.00826343
0.0109797
-0.015474
0.0127578
-0.0277576
-0.037301
0.000402676
-0.0248475
-0.0088493
-0.0420229
-0.00684713
0.0037954
-0.00148682
-0.0712324
-0.000636728
-0.000179714
-0.000357297
0.00117374
0.0566127
0.00108109
-0.0576938
0.00392085
-0.0019883
-0.00392605
0.0019935
-0.0674388
-0.0477179
0.0521632
0.0629934
-0.00575342
0.00297687
-0.000885037
0.00478067
-0.0192714
0.0268149
-0.0123242
0.00019317
-0.00140771
0.00121454
0.0775701
-0.0754418
0.0288168
0.0048115
-0.0307621
-0.00286621
0.00128713
-0.00283911
0.000430027
-0.0015078
-0.000208523
-0.000368244
-0.031996
-0.0546917
0.078342
0.00834571
0.000262774
-0.00744491
0.00986263
-0.0026805
0.00118862
0.00402238
-0.000822487
-0.00151078
-0.000625436
0.000879135
4.77725e-05
0.000329397
0.00135999
-0.000836272
-0.000299629
-0.000224093
-0.00310747
0.00169205
-0.0189593
0.0124437
0.00499839
-0.0120687
-0.00116705
0.0121976
-0.00303339
0.00143681
0.00241017
-0.0659482
0.0203496
0.0147921
0.00168068
4.5511e-06
0.00177273
-0.00345797
0.0024451
0.00235519
-0.00338755
-0.000769101
0.00136819
-0.00144367
-3.1848e-05
-1.70511e-05
4.88991e-05
0.00274615
0.00347345
-0.000750247
0.00867799
-0.0112987
0.00939961
-0.0067789
0.00409526
-0.00226108
0.000157941
-0.00199212
-4.15539e-05
-0.000315501
3.5826e-05
0.000321229
-0.00050274
0.000311786
0.000109527
8.14267e-05
-0.000249695
-0.000373686
-0.000774746
0.00139813
-0.00167749
0.00262115
0.000190826
-0.00504637
-0.00335924
0.00190354
0.00650207
-0.00194492
0.00127859
0.008635
-0.00796868
0.000548124
-0.000171265
-0.000484169
-0.00194815
-0.00038443
5.69931e-05
-0.000870293
0.000244779
0.000156633
0.000468881
0.00174009
-0.00110231
-0.000991344
-0.00152562
-6.78126e-05