/*--------------------------------*- C++ -*----------------------------------*\
| =========                 |                                                 |
| \\      /  F ield         | OpenFOAM: The Open Source CFD Toolbox           |
|  \\    /   O peration     | Version:  2506                                  |
|   \\  /    A nd           | Website:  www.openfoam.com                      |
|    \\/     M anipulation  |                                                 |
\*---------------------------------------------------------------------------*/
FoamFile
{
    version     2.0;
    format      ascii;
    arch        "LSB;label=32;scalar=64";
    class       volScalarField;
    location    "0.0263932";
    object      k;
}
// * * * * * * * * * * * * * * * * * * * * * * * * * * * * * * * * * * * * * //

dimensions      [0 2 -2 0 0 0 0];

internalField   nonuniform List<scalar> 
47425
(
0.352482
0.377879
0.349943
0.343851
0.48523
0.355185
0.450765
0.357596
0.367282
1.00164
0.362879
0.375831
0.404744
0.349812
0.351252
0.363107
0.350174
0.392151
1.01807
0.545113
0.351385
0.353632
0.365059
0.352332
0.363962
0.351368
0.347323
0.839592
0.346097
0.360429
0.362305
0.363093
0.360047
0.357008
0.353307
0.360385
0.3543
0.366408
0.353051
0.34928
0.383076
0.373369
0.452161
0.379096
1.26361
0.385481
0.362908
0.360369
0.350763
0.354292
0.779058
0.472489
0.350847
0.870725
0.389858
0.374177
0.3533
0.357816
0.467801
0.357169
0.958229
0.725712
0.811742
0.377683
0.364938
0.358431
0.361704
0.366486
0.839984
0.37791
0.351249
0.358203
0.354384
0.355653
0.798543
0.369095
0.805455
0.354878
0.880429
0.533871
0.815544
0.357659
0.358793
0.360815
0.351783
0.356148
0.353551
0.350164
0.4987
0.623068
0.363749
0.366967
0.356429
0.383646
0.393658
0.379811
0.350281
0.351006
0.345221
0.384141
0.358733
0.474835
0.353406
0.505288
0.354416
0.363152
0.351606
0.34821
0.350538
0.365108
0.668483
0.355889
0.382114
0.367928
0.359665
0.823731
0.358645
0.665688
0.37816
0.370485
0.347051
0.363755
0.367463
0.393394
0.373388
0.389433
0.360899
0.365412
0.376877
0.357046
0.360031
0.368497
0.553042
0.379409
0.372303
0.390879
0.362014
0.391952
0.354712
0.348139
0.36662
0.390202
0.355576
0.421898
0.366071
0.366504
0.434257
0.358291
0.378582
0.369217
0.415839
0.792985
0.362416
0.804128
0.378217
0.360897
0.388168
0.90604
0.387506
0.371869
0.36881
0.357137
0.352051
0.357333
0.713457
0.836246
0.362698
0.802595
0.363487
0.86068
0.792914
0.379507
0.358583
0.36678
0.385084
0.429961
0.832248
0.347792
0.354112
0.353117
0.821207
0.349356
0.349904
0.355765
0.350746
0.361633
0.356572
0.477557
0.371027
0.351675
0.360668
0.351737
0.444729
0.366209
0.357818
0.364128
0.362123
0.359162
0.372422
0.340574
0.368017
0.371397
0.353514
0.362233
0.388388
0.379513
0.348809
0.36194
0.375275
0.364512
0.349309
0.349571
0.362464
0.339887
0.354368
0.357788
0.355444
0.549486
0.386104
0.382424
0.56706
0.339154
0.415139
0.342665
0.402076
0.547874
0.355686
0.363758
0.383357
0.417588
0.354308
0.363173
0.383282
0.369618
0.379331
0.356453
0.56645
0.373393
0.539086
0.373265
0.351648
0.35726
0.35685
0.352997
0.35435
0.365355
0.347748
0.366852
0.351092
0.357208
0.350364
0.523284
0.357607
0.36617
0.359591
0.353697
0.355129
0.389328
0.344755
0.360137
0.408631
0.365609
0.355134
0.377979
0.404298
0.382256
0.3558
0.404042
0.35081
0.362696
0.355591
0.523798
0.557997
0.355781
0.513744
0.386185
0.515208
0.507522
0.542754
0.58422
1.00774
0.350541
0.926389
0.390543
0.358051
0.339851
0.381774
0.350611
0.385285
0.36546
0.737351
0.369196
0.371321
0.34798
0.350246
0.369689
0.369065
0.351659
0.35219
0.399192
0.382161
0.356607
0.368718
0.35328
0.847001
0.82758
0.800241
0.35384
0.352881
0.356867
0.359049
0.764503
0.35916
0.362648
0.588899
0.378976
0.37013
0.394168
0.354807
0.638523
0.568158
0.358165
0.350768
0.349286
0.374452
0.351969
0.348909
0.349617
0.351937
0.352745
0.353768
0.742916
0.374058
0.351618
0.388231
0.358643
0.746603
0.360686
0.351548
0.353622
0.360134
0.360085
0.348592
0.359692
0.355635
0.354442
0.357049
0.360165
0.353073
0.378389
0.358615
0.361643
0.35785
0.368469
0.356288
0.388469
0.364696
0.360751
0.365641
0.365043
0.418577
0.37689
0.372738
0.361605
0.349525
0.356872
0.388141
0.362322
0.357288
0.357584
0.387518
0.873572
0.344978
0.363054
0.385849
0.362852
0.373692
0.388088
0.365945
0.354005
0.361402
0.360723
0.347408
0.35841
0.375984
0.365454
0.364062
0.356085
0.358713
0.361151
0.360984
0.363311
0.367307
0.349496
0.363536
0.35951
0.354572
0.358718
0.426742
0.352171
0.663668
0.353689
0.772151
0.370806
0.389934
0.383225
0.351759
0.370539
0.347794
0.367895
0.360089
0.717262
0.790746
0.358973
0.381639
0.349258
0.347447
0.356049
0.358121
0.348053
0.373795
0.360987
0.35073
0.345589
0.347834
0.348984
0.449157
0.353645
0.362487
0.543999
0.399434
0.355264
0.673738
0.390459
0.377742
0.431535
0.766921
0.353961
0.349004
0.350802
0.350693
0.643709
0.379283
0.354475
0.35352
0.357214
0.356492
0.352772
0.353251
0.720174
0.623716
0.546551
0.358867
0.446982
0.39031
0.353374
0.365903
0.395172
0.364672
0.360507
0.363685
0.378069
0.354053
0.369719
0.350536
0.3607
0.372062
0.365969
0.353391
0.353541
0.355981
0.359194
0.384795
0.376913
0.351014
0.376168
0.364139
0.750734
0.378974
0.440733
0.360925
0.386935
0.536461
0.375318
0.35467
0.377923
0.364678
0.355374
0.377476
0.389545
0.34527
0.370605
0.354316
0.375641
0.486912
0.349032
0.391226
0.356174
0.405414
0.351043
0.351178
0.350703
0.35002
0.377104
0.364241
0.350515
0.348852
0.355595
0.367785
0.359589
0.368312
0.37252
0.355467
0.355796
0.350968
0.350122
0.356
0.37571
0.353679
0.38226
0.364093
0.376548
0.763306
0.36219
0.356466
0.369559
0.366131
0.483871
0.488453
0.377055
0.356386
0.381838
0.437075
0.358992
0.500249
0.364374
0.577353
0.399248
0.393904
0.357845
0.491114
0.353274
0.356083
0.361407
0.355027
0.348656
0.35149
0.957679
0.352086
0.396464
0.351682
0.468407
0.359768
0.354919
0.450496
0.439346
0.361577
0.35215
0.312991
0.350736
0.35285
0.353733
0.351961
0.352936
0.414609
0.448089
0.375811
0.351469
0.358023
0.353286
0.547771
0.35691
0.3551
0.286928
0.360551
0.352065
0.36798
0.754501
0.35881
0.20428
0.237622
0.347276
0.362649
0.351186
0.355789
0.389102
0.377842
0.677078
0.358282
0.383667
0.350437
0.474551
0.410274
0.380112
0.359578
0.817501
0.870947
0.359546
0.357315
0.350652
0.364675
0.381992
0.397543
0.359642
0.368218
0.380399
0.348644
0.375612
0.502095
0.387875
0.361701
0.509549
0.375948
0.354089
0.373822
0.369616
0.350041
0.364193
0.38204
0.406243
0.362964
0.356526
0.354454
1.02642
0.369243
0.411116
0.785272
0.768458
0.351194
0.384466
0.746162
0.377673
0.463188
0.5694
0.377683
0.816697
0.349753
0.357374
0.362211
0.517366
0.384442
0.376873
0.35406
0.390995
0.353532
0.351191
0.360718
0.36647
0.383425
0.728935
0.743405
0.378752
0.392835
0.371259
0.3706
0.389608
0.360132
0.360371
0.363563
0.359998
0.365607
0.390381
0.366142
0.349276
0.444041
0.390941
0.814502
0.580916
0.373622
0.366621
0.371151
0.354097
0.826105
0.353941
0.785917
0.377213
0.442038
0.388305
0.360759
0.364918
0.348327
0.408214
0.356612
0.348163
0.406205
0.40001
0.368805
0.424606
0.371707
1.13832
0.38829
0.389708
0.408734
0.364567
0.34807
0.392412
0.352745
0.424337
0.358213
0.354713
0.399656
0.359884
0.358825
0.356976
0.351469
0.516405
0.594387
0.356434
0.4816
0.354742
0.367856
0.344096
0.350132
0.382584
0.34916
0.344622
0.355945
0.356193
0.711617
0.757908
0.356581
0.357706
0.35333
0.369155
0.352934
0.362646
0.368545
0.576987
0.360923
0.350811
0.360063
0.352515
0.349968
0.355831
0.353114
0.351127
0.360831
0.354354
0.375217
0.586043
0.350869
0.282897
0.597904
0.579116
0.241399
0.366245
0.517366
0.404792
0.385027
0.54903
0.318123
0.825175
0.361155
0.349874
0.423526
0.378299
0.586447
0.36842
0.373392
0.353185
0.352681
0.425841
0.383001
0.3676
0.382807
0.456611
0.418559
0.358258
0.378786
0.532246
0.511957
0.53879
0.689642
0.692781
0.648138
0.677486
0.36433
0.378458
0.354548
0.350584
0.369373
0.263836
0.379943
0.361415
0.3733
0.355464
0.292361
0.253902
0.352174
0.400892
0.358961
0.353138
0.387656
0.351464
0.354344
0.353135
0.37042
0.479467
0.353981
0.356781
0.353905
0.3812
0.371425
0.570693
0.477878
0.347594
0.381849
0.353585
0.351104
0.350991
0.37993
0.379513
0.634074
0.353152
0.349002
0.361009
0.439241
0.858067
0.358728
0.357753
0.458062
0.371917
0.356598
0.387774
0.364402
0.377539
0.904994
0.461802
0.836276
0.367142
0.43881
0.354286
0.419728
0.354168
0.367206
0.376981
0.356719
0.889157
0.493571
0.40514
0.562507
0.403674
0.355674
0.366696
0.434943
0.354347
0.377017
0.289291
0.351279
0.432126
0.385532
0.410121
0.753776
0.394211
0.390959
0.554008
0.359328
0.35694
0.469074
0.525164
0.362078
0.459672
0.494671
0.352066
0.363886
0.345952
0.369048
0.375618
0.374731
0.896436
1.15844
0.395276
0.440788
0.510574
0.943947
0.848815
0.573825
0.385304
0.362794
0.375738
0.387982
0.636331
0.354217
0.379716
0.377618
0.362218
0.367451
0.360087
0.373794
0.350145
0.396102
0.52359
0.364758
0.887462
0.354759
0.430081
0.376904
0.366664
0.361395
0.358523
0.376287
0.487223
0.386759
0.427143
0.516649
0.376186
0.3559
0.377119
0.479905
0.350229
0.407137
0.361123
0.393739
0.67279
0.636335
0.348663
0.364779
0.363754
0.362915
0.375888
0.709139
0.535439
0.902095
0.358588
0.409437
0.373101
0.60697
0.348203
1.04577
0.41402
0.395554
0.415572
0.638358
0.352623
0.344769
0.353469
0.376531
0.413916
0.363166
0.443273
0.686365
0.438856
0.350407
0.356151
0.698963
0.75377
0.553267
0.569104
0.846028
0.40691
0.383779
0.454536
0.347785
0.515799
0.380359
0.394607
1.07002
0.379524
0.358421
0.351913
0.367362
0.4309
0.389055
0.354139
0.376297
0.493424
0.355338
0.362929
0.357095
0.360265
0.376848
0.420042
0.378347
0.378848
0.364259
0.386915
0.361639
0.340874
0.347226
0.363322
0.41937
0.517423
0.375144
0.41069
0.35091
1.09458
0.390709
0.377432
0.35659
1.00431
0.642199
0.935632
0.283369
0.377186
0.385716
0.663269
0.328906
0.382489
0.428494
0.377678
0.3797
0.733882
0.375596
0.357991
0.381827
0.399179
0.353806
0.625019
0.963406
0.350372
0.954735
0.360291
0.686069
0.846443
0.351604
0.379121
0.376257
0.636122
0.372855
0.373746
0.387725
0.731651
0.377862
0.577758
0.352459
0.363337
0.352679
0.35798
1.0368
1.05597
0.383268
0.409136
0.412209
0.678552
0.358373
0.350279
1.22543
0.990575
0.371397
0.361398
0.894549
1.15353
0.854849
0.384511
0.671685
0.952233
0.757537
0.357476
0.506904
0.477189
0.377367
0.364536
1.0816
1.41481
0.412732
0.417766
0.367449
0.363224
0.383799
0.361415
0.517808
0.359321
0.367048
0.353075
0.352598
0.848266
0.81686
0.363712
0.621592
0.458915
0.350798
0.544435
0.350882
0.364783
0.361182
0.384628
0.400091
0.349553
0.744187
0.356923
0.87559
0.619712
0.709337
0.414963
0.409561
0.370287
0.383982
0.354181
0.584246
0.992473
0.377167
0.735506
0.570516
0.803042
0.506703
0.920343
0.724753
0.364654
0.353987
0.757887
0.356262
0.360258
0.355699
0.70962
0.614728
0.354312
0.382757
0.656432
0.463606
0.801828
0.751007
0.374346
0.516413
1.00994
0.369277
0.384009
0.753961
0.360309
0.792432
0.857489
0.366107
0.359388
0.364473
0.359273
0.397907
0.345793
0.365061
0.386968
0.381189
0.527479
0.402133
0.36544
0.522202
0.603944
0.850714
0.380386
0.383498
0.506618
0.367089
0.920892
0.356298
0.376753
0.369993
1.16414
0.362437
1.50548
0.393267
0.537247
0.399698
1.15909
0.644087
0.566322
0.452413
0.568992
0.415062
0.36425
0.419303
0.612922
0.557644
0.489411
0.7582
0.388952
0.485644
0.688844
0.389932
0.348643
0.733876
0.917019
0.351046
0.362547
0.363435
0.379711
0.629231
0.786693
0.354528
0.373427
0.361097
0.975924
0.360159
0.655134
0.416988
0.359285
0.360487
0.490759
0.408709
0.646173
0.558054
0.392067
0.426324
0.484176
0.35739
0.894075
0.860618
0.362758
0.863603
0.676525
0.377178
0.539498
0.363022
0.411455
0.865609
0.409324
1.20339
0.62455
0.364158
0.416715
0.445045
0.366259
0.359992
0.437701
0.510086
0.466382
0.353776
0.438312
0.357316
0.508969
0.432127
0.3895
0.39393
0.473161
0.35271
0.834929
0.603629
0.412966
0.732384
0.740829
0.353917
0.521268
0.358445
0.393414
0.387948
0.469362
0.755934
0.528586
0.744985
0.351763
0.764263
0.481337
0.355352
0.429109
0.396661
0.522367
0.381774
0.433739
0.606112
0.352123
0.655176
0.386206
1.20257
0.398019
0.354067
0.390662
0.538446
0.408677
0.667276
0.437602
0.357513
0.982766
0.357866
0.38472
1.03417
0.350982
0.381153
0.715294
0.386626
0.675888
1.18071
0.387439
0.455002
0.360975
0.888401
0.495537
0.705357
0.561101
0.455606
0.386551
0.478202
0.804916
1.13186
0.826536
0.373483
0.361811
0.37076
0.360616
0.386667
0.706286
0.373538
0.359697
0.388796
0.351353
0.377309
0.38391
0.371264
0.368312
0.384585
0.485297
0.35629
0.385053
0.500338
0.363241
0.357077
0.396883
0.397662
0.364244
0.352033
0.372209
0.369579
0.36399
0.385869
0.604686
0.366171
0.379453
0.35081
0.354527
0.547821
0.352092
0.355213
0.49671
1.07494
0.724466
0.362792
0.579775
0.525943
0.357171
0.493282
0.482839
0.487321
0.377654
0.362537
0.378432
0.437075
0.356875
0.389194
0.410084
0.383674
0.350499
0.354039
0.378224
0.540666
0.370142
0.439404
0.829677
0.36275
0.624476
0.439845
0.833464
0.35643
0.380312
0.384455
0.357105
0.368813
0.380268
0.354415
0.881672
0.583491
0.862434
0.389391
0.878453
0.35238
0.363589
0.500876
0.351872
0.762931
0.383313
0.628386
0.348272
0.878643
0.892104
0.367154
0.351645
0.52432
0.364385
0.483634
0.351448
0.38051
0.352209
0.350454
0.35087
0.359114
0.371556
0.541918
0.415996
0.40314
0.370865
0.354525
0.359752
0.375493
0.827076
0.373881
0.823735
0.399642
0.350037
0.381672
0.37166
0.36186
0.362039
0.387212
0.358932
0.363756
0.349427
0.350839
0.378838
0.372126
1.12508
0.805362
0.38274
0.388815
0.64962
0.357648
0.353716
0.350888
0.351116
0.384244
0.385149
0.400647
0.396839
0.364399
0.353588
0.437437
0.35475
0.350246
0.361629
0.741375
0.395174
0.825119
0.753015
0.816183
0.366008
0.352661
0.350091
0.347683
0.360673
0.651854
0.368753
0.35162
0.364201
0.371701
0.354144
0.454763
0.352179
0.381362
0.468211
0.36758
0.346826
0.355191
0.365008
0.37439
0.352101
0.372617
0.35968
0.479595
0.347952
0.35825
0.380538
0.356699
0.358379
0.351091
0.374862
0.344854
0.386678
0.397961
0.356709
0.349299
0.347103
0.348754
0.352847
0.379737
0.356867
0.357585
0.356034
0.366168
0.827064
0.357786
0.463511
0.349806
0.356539
0.725235
0.366917
0.378881
0.351617
0.362469
0.377949
0.385522
0.721104
0.380908
0.881012
0.349916
0.357263
0.378326
0.35645
0.360603
0.39174
0.365712
0.355484
0.355076
0.651821
0.478046
0.680106
0.386648
0.562186
0.384213
0.350008
0.402361
0.943565
0.378089
0.355574
0.352778
0.781864
0.34907
0.360847
0.379051
0.365204
0.35727
0.801502
0.351621
0.369856
0.361425
0.365979
0.408764
0.92524
0.819007
0.353143
0.350641
0.354435
0.390133
0.381071
0.356633
0.801796
0.80105
0.349571
0.372707
0.708725
0.350998
0.462684
0.481406
0.353504
0.351452
0.358762
0.35792
0.481546
0.370719
0.359123
0.374144
0.412332
0.361177
0.36259
0.61278
0.36359
0.484273
0.528028
0.380803
0.606197
0.377355
0.388689
0.42553
0.379448
0.374309
0.369591
0.834017
0.612999
0.378219
0.384465
0.363942
0.382114
0.375675
0.440389
0.354712
0.349671
0.362713
0.3615
0.536341
0.47304
0.817317
0.724386
0.385755
0.379642
0.361944
0.367587
0.365928
0.364318
0.363987
0.35245
0.354709
0.407429
0.354242
0.358207
0.352796
0.593867
1.29796
0.393232
0.348514
0.41988
0.529453
0.828268
0.346523
0.675218
0.650164
0.657377
0.705329
0.441922
0.353812
0.354328
0.363448
0.860422
0.35267
0.374009
0.372992
0.351792
0.450969
0.423887
0.407344
0.363713
0.747757
0.356595
0.359879
0.387753
0.381582
0.624702
0.658004
0.253417
0.457777
0.302937
0.425576
0.355749
0.902818
0.358707
0.862155
0.37746
0.852429
0.375456
0.519552
0.363861
0.528079
0.381357
0.387029
0.37047
0.360814
0.366428
0.453167
0.424764
0.363019
0.36356
1.16789
0.424809
0.376553
0.627773
0.575941
0.615671
0.35866
0.361938
0.500408
0.707537
0.698752
0.367006
1.03123
0.358132
0.888945
1.02238
0.264478
0.543082
0.35256
0.40442
0.353255
0.358719
0.36525
0.53867
0.408421
0.352865
0.35074
0.377708
0.35775
0.353343
0.35501
0.492118
0.350605
0.347769
0.372853
0.352819
0.465126
0.36877
0.395482
0.384045
0.35214
0.432351
0.496175
0.340555
0.348333
0.514242
0.761851
0.377203
0.883833
0.395462
0.472534
0.772379
0.455127
0.388072
0.353834
0.480217
0.362094
0.350517
0.366985
0.35949
0.353132
0.367245
0.351622
0.348502
0.353358
0.38005
0.366746
0.388005
0.734931
0.354216
0.358029
0.357294
0.3638
0.475887
0.664884
0.370779
0.354798
0.374435
0.598189
0.519381
0.355678
0.374742
0.849845
0.389656
0.395245
0.381138
0.443823
0.37553
0.366285
0.37359
0.557134
0.386205
0.375364
0.930219
0.364483
0.396516
0.362105
0.389653
0.368846
0.403451
0.371758
0.35711
0.358678
0.401994
0.344825
0.368891
1.14622
0.353528
0.462292
0.385391
0.361564
0.644009
0.411381
0.360764
0.374259
0.625029
0.6202
0.385922
0.363552
0.396845
0.435981
0.380971
0.359927
0.799263
0.50308
0.422146
0.683368
0.371049
0.354525
0.549605
0.455107
1.02594
0.410964
0.41956
0.507906
0.353744
0.564609
0.473294
0.7539
0.437928
0.364229
0.359854
0.587326
0.386672
0.418291
0.350764
0.380568
0.394676
0.428059
0.666056
0.381284
0.373359
0.317059
0.545986
0.758928
0.453125
0.731195
0.404275
0.987894
0.379425
0.376859
0.804133
0.498559
0.643371
0.289094
0.670202
0.611876
0.355091
0.352785
0.260886
0.393857
0.377627
0.75889
0.392089
0.421335
0.359607
0.468605
0.370373
0.358203
0.874246
0.284099
0.535306
0.33344
0.406342
0.380981
0.37522
0.395205
0.390288
0.360259
0.355046
0.385445
0.408675
0.223564
0.224304
0.378339
0.404817
0.361186
0.442694
0.479545
0.39063
0.373459
0.399542
0.232505
0.417171
0.420967
0.306748
0.378814
0.720036
0.41302
0.364712
0.878175
0.397944
0.519047
0.698405
0.396959
0.378451
0.356363
1.05362
0.355303
0.349129
0.403538
0.387655
0.434984
0.368658
0.500507
0.374819
0.535715
0.351977
0.397599
0.381585
0.34967
0.978579
0.396508
0.909848
0.691204
0.352943
0.755733
0.497744
0.356532
1.25064
0.351639
0.350449
0.419203
0.476956
0.857201
0.719869
0.397333
0.71263
0.634135
0.354147
0.554483
0.842731
0.454542
0.936734
0.424057
0.35732
0.62699
0.717308
0.403901
0.915633
0.411233
0.38354
0.565876
0.410335
0.360706
0.381781
0.752581
0.539339
0.348424
0.559267
0.365061
0.394829
0.376868
0.395278
0.554811
0.469811
0.717775
0.359361
0.362943
0.690155
0.359198
0.375008
0.507675
0.361058
0.383245
0.657439
0.383342
0.896276
0.798443
0.782588
0.699759
0.377028
0.437356
0.354487
0.353732
0.461161
0.356312
0.354034
0.402571
0.356955
0.458885
0.809524
0.356923
0.541748
0.362183
0.509944
0.406145
0.858684
0.372426
0.478468
0.362531
0.363251
0.410524
0.357977
0.371498
0.358856
0.350551
0.576308
0.340942
0.386335
0.398593
0.371234
0.374995
0.390494
0.384963
0.701132
0.383045
0.357622
0.367659
0.433873
0.326037
0.66736
0.53006
0.657936
0.940403
0.44997
0.45571
0.15406
0.343082
0.850785
0.439434
0.538806
0.41518
0.732304
0.641256
1.18345
0.409837
0.37802
0.536933
0.886704
0.394484
0.268113
0.473439
0.282909
0.44598
0.451183
0.783382
0.773606
0.321297
0.418642
0.222556
0.366956
1.1345
0.367899
0.384456
0.356479
0.359816
0.490235
0.357137
0.634574
0.506096
0.357493
0.392039
0.362218
0.56744
0.647818
0.371274
0.426934
0.410247
0.912194
0.454422
0.369074
0.544594
0.556492
0.350102
0.361565
0.376179
0.350141
0.654723
0.360368
0.479062
0.647298
0.359901
0.392095
0.362588
0.36153
0.411229
0.392299
0.551754
0.345674
0.353824
0.588045
1.20889
0.360997
0.369774
0.360939
0.359208
0.614333
0.450201
0.775881
0.388711
0.356349
0.484175
0.395943
0.385141
0.362387
0.407958
0.389098
0.561603
0.519494
0.773284
0.4395
0.458601
0.358774
0.381306
0.78555
0.906027
0.442763
0.869075
0.387204
0.877412
0.469427
0.727485
0.507291
0.463843
0.396077
0.365362
0.395857
0.438181
0.574885
0.371331
0.412839
0.948664
0.376718
1.87899
0.378623
0.35618
0.381864
0.444184
0.387234
0.354387
0.733268
0.353738
0.348497
0.347452
0.379022
0.713208
0.524106
0.357046
0.555896
0.372729
0.386433
0.358232
0.366611
0.455823
0.41562
0.446966
0.383129
0.351459
0.433347
0.375152
0.345861
0.431204
0.408202
0.769374
0.386255
0.495082
0.389138
0.441068
0.384486
0.46132
0.350777
0.384559
0.356543
0.37822
0.391164
0.785046
0.350262
0.571936
0.29581
0.394843
0.380134
0.390895
0.384113
0.470277
0.572825
0.358988
0.371957
0.373845
0.513049
0.42151
0.347695
1.07789
0.633834
0.594305
0.359741
0.351851
0.529176
0.36492
0.361881
0.523077
0.365424
0.364404
0.407518
0.738469
0.356198
0.583504
0.356546
0.36016
0.457029
0.365755
0.387962
0.492234
0.354773
0.538358
0.441306
0.445117
0.479706
0.890049
0.361477
0.362988
0.386096
0.410688
0.395846
0.387001
0.355103
0.356872
0.375882
0.596029
0.384483
0.390035
0.806899
0.384953
0.676649
0.361672
0.383639
0.431419
0.36017
0.500082
0.385408
0.425086
0.406487
0.360083
0.375442
0.423694
0.524896
0.457808
0.357429
0.582325
0.378939
1.00538
0.750152
0.546969
0.371581
0.496112
0.3797
0.270968
0.431474
0.297705
0.47578
0.225643
0.433896
0.638621
0.443813
0.635249
0.671617
0.394246
0.295864
0.279805
1.16742
0.641413
0.700259
1.18856
0.830516
0.333829
0.809491
0.361007
0.375018
0.740356
0.425884
0.812663
0.40954
0.711536
0.722992
0.373634
0.388499
0.366734
0.347272
0.376978
0.351968
0.716069
0.407161
0.382304
0.572774
0.354889
0.368563
0.353708
0.37709
0.370912
0.385609
0.400479
0.353702
0.439168
0.873345
0.350476
0.361543
0.364316
0.353212
0.687337
0.657258
0.424206
0.382334
0.574095
0.352084
0.35005
0.377194
0.395947
0.360797
0.367774
0.355372
0.351113
0.440535
0.344237
0.416565
0.368953
0.358025
0.360977
0.452874
0.364118
0.372112
0.354433
0.443993
0.366008
0.389763
0.696331
0.451049
0.384585
0.4206
0.371109
0.398959
0.394706
0.37815
0.361771
0.386782
0.37463
0.366262
0.405108
0.380809
0.449445
0.483249
0.366318
0.376253
0.431813
0.451844
0.513714
0.534267
0.773419
0.927483
0.374032
0.357108
0.875871
0.56682
0.539509
0.359837
0.3558
0.368287
0.351709
0.36476
0.35866
0.366629
0.392907
0.354301
0.363145
0.35369
0.365079
0.357159
0.533481
0.412847
0.376603
0.357905
0.366272
0.672347
0.349892
0.362148
0.415244
0.968836
0.717307
0.376925
0.366602
0.376635
0.409325
0.458662
0.714548
0.437269
0.364907
0.379079
0.370112
0.360712
0.4036
0.433542
0.381157
0.352347
0.427926
0.410056
0.600116
0.42921
0.682933
0.573766
0.396676
0.414412
0.355634
0.370621
0.3921
0.354021
0.35437
0.638841
0.359934
0.374907
0.713077
0.374635
0.387691
0.32448
0.439686
0.351896
0.37341
0.357109
0.388316
0.758629
0.376312
0.460868
1.3484
0.576072
1.06555
0.822964
0.363475
0.377123
0.557488
0.351241
0.582391
0.52451
0.703359
0.369967
0.355245
0.652315
0.359825
0.580099
0.441627
0.362751
0.729427
0.817409
0.356158
0.358817
0.866929
0.357193
0.353256
0.350212
0.353237
0.376675
0.442624
0.589117
0.372708
0.799712
0.360152
0.372816
0.349533
0.864202
0.36742
0.910435
0.35655
0.391905
0.357999
0.470905
0.354359
0.492966
0.346967
0.587386
0.499976
0.501424
0.693544
0.364279
0.371133
0.808613
0.466413
0.375167
0.445897
0.5305
0.370351
0.438764
0.368287
0.621531
0.439949
0.356734
0.347285
0.480746
0.361197
0.414766
0.38049
0.354342
0.371963
0.355499
0.358446
0.367571
0.682286
0.356393
0.356227
0.355346
0.358271
0.35355
0.359875
0.367433
0.381852
0.398441
0.395438
0.393417
0.352421
0.300528
0.382229
0.408855
0.62857
0.328611
0.795783
0.357233
1.04162
0.405814
0.272594
0.386183
0.392581
0.39347
0.359874
0.342732
0.381305
0.378213
0.358351
0.369234
0.355197
0.708602
0.354871
0.363026
0.402494
1.04308
0.244538
0.37216
0.815694
0.54206
0.633564
0.55946
1.07557
0.191917
0.416584
0.395651
0.378079
0.35998
1.54445
0.457624
0.429695
0.357162
0.353316
0.731294
0.377606
0.435126
0.389859
0.387901
0.486589
0.389178
0.625161
0.362591
0.377645
0.358428
0.358647
0.399503
0.350365
0.376247
1.08354
1.10818
0.895125
0.478508
0.728277
0.367946
0.350038
0.348149
0.380021
0.355263
0.401601
0.363455
0.44173
0.387477
0.355192
0.35171
0.373621
0.356397
0.373756
0.379792
0.363504
0.38312
0.554914
0.368276
0.409391
0.786432
0.383472
0.674451
0.844514
0.382327
0.407672
0.349984
0.508982
0.390134
0.40206
0.659669
0.355151
0.41511
0.372639
0.402369
0.358154
0.359655
0.490703
0.552062
0.376357
0.387063
0.784572
0.42231
0.631333
0.591196
0.362665
1.19354
0.440333
0.417676
0.403091
0.358555
0.444296
0.391352
0.335915
0.360391
0.322151
0.603229
0.211311
0.369948
0.402719
0.458268
0.221985
0.81049
0.354421
0.376595
0.423251
0.362478
0.427371
0.495565
1.42652
0.389868
0.374452
0.37861
0.691877
0.362183
0.412413
0.390653
0.367426
0.370119
0.374139
0.403617
0.35297
0.951246
0.40176
0.93075
0.358038
1.18226
0.764198
0.655505
0.38788
0.367325
0.498646
0.386756
0.375556
0.359893
0.377504
0.778085
0.35238
0.494331
0.598093
0.353956
0.361966
0.353573
0.361403
0.373367
0.362745
0.425325
0.410725
0.385133
0.381688
0.417665
0.364975
0.467092
0.358136
0.382809
0.360406
0.854996
1.21328
0.398466
0.393885
0.353986
0.818718
0.348752
0.360387
0.374548
0.355746
0.389749
0.374652
0.350214
0.355595
0.368786
0.749649
0.57502
0.370934
0.756519
0.3573
0.368486
0.352693
0.361757
0.739497
0.397982
0.818097
0.353826
0.358953
0.795647
0.871432
0.367082
0.359895
0.64552
0.379071
0.403253
0.466548
0.410708
0.386836
0.450973
0.384735
0.354666
0.391069
0.371746
0.516599
0.352194
0.378777
0.353023
0.363321
0.689221
0.686277
0.35635
0.360337
0.373609
0.372572
0.370993
0.544654
0.371131
0.383191
0.417303
0.373301
0.477675
0.425463
0.519483
0.414154
0.352867
0.354983
0.35208
0.410071
0.349468
0.533397
0.448968
0.352573
0.910752
0.366039
0.348254
0.389325
0.358066
0.40053
0.645531
0.367294
0.46356
0.372619
1.12586
0.422232
0.407002
0.378721
0.679434
0.379359
0.55805
0.397514
0.437721
0.355275
0.432969
0.423785
0.664554
0.487631
0.364928
0.357607
0.357465
0.557343
0.38312
0.996983
0.846443
0.377084
0.456848
0.360521
0.49957
0.47746
0.411436
0.673185
0.513157
0.69832
0.361445
0.402638
0.915994
0.516854
0.385336
0.503566
0.361517
1.07116
0.422768
0.387769
0.35745
0.352044
0.356037
0.369108
0.355527
0.7193
0.357465
0.594338
0.355761
0.463424
0.4202
0.558328
0.367953
0.371732
0.357323
0.598344
0.489077
0.537731
0.354593
0.362263
0.482878
0.405469
0.394559
0.34799
0.347358
0.350527
0.366251
0.353691
0.407655
0.358552
0.577581
0.45236
0.957183
0.774995
0.611303
0.586284
0.42285
0.42908
0.352891
0.610596
0.361009
0.376392
0.366546
0.491601
0.478353
0.366771
0.450491
0.787841
0.490091
0.352934
0.35144
0.982574
0.8374
0.411955
0.829688
0.880561
0.654538
0.733515
0.600766
0.713297
0.434613
0.653878
0.807576
0.35277
0.35536
0.350631
0.48492
0.629246
0.366551
0.35697
0.431568
0.38784
0.398953
0.830141
0.515582
0.896967
0.370124
0.35049
0.36267
0.345624
0.376393
0.827646
0.418439
0.601777
0.733172
0.352738
1.10578
1.18592
0.351323
0.518704
0.480178
0.796604
0.387337
0.501496
0.781008
0.730536
0.484734
0.763609
0.53594
0.677044
0.376289
0.379896
0.388126
0.940281
0.763918
0.417409
0.374113
0.576541
0.472296
0.594742
0.369309
0.406155
1.0035
0.902353
0.269744
0.349907
0.299713
0.354197
0.229642
0.423373
0.482168
0.622181
0.223955
0.466485
0.505111
0.182193
0.486865
0.87014
0.450512
0.41926
0.632224
0.375248
0.531089
0.365164
0.355053
0.365428
0.383825
0.734147
0.722681
0.807593
0.418413
0.42476
0.587065
0.419941
0.270346
0.432609
0.395032
0.368144
0.557101
0.380281
0.344135
0.361999
0.451339
0.434722
0.761939
0.502507
0.824168
0.891132
0.787145
0.377038
0.430339
0.690867
0.350292
0.58047
0.396515
0.423825
0.360016
0.810528
0.601415
0.373329
1.35232
0.637347
0.354469
0.466059
0.795326
0.806699
0.426235
0.382243
0.49443
1.03859
0.387523
0.361388
0.385068
0.3817
0.54941
0.434733
0.651736
0.479302
0.619341
0.938817
0.574523
0.488733
0.725725
0.712718
0.840307
0.620497
0.66898
0.847502
0.565277
0.41616
0.477775
0.360422
0.349759
0.358827
0.429769
0.557285
0.957555
0.376393
0.393186
0.406472
0.378848
0.386365
0.586936
0.4949
0.362943
0.386831
0.90511
1.05231
0.241517
0.427676
0.35764
0.39755
0.807211
0.713302
0.377924
0.31541
0.367623
0.284603
0.324494
0.605209
0.369897
0.375359
0.361442
0.422927
0.832038
0.475569
0.391085
0.769232
0.351384
0.810893
0.662452
0.487716
0.666775
0.40097
0.351768
0.359425
0.362996
0.379847
0.438163
0.358352
0.372653
0.36207
0.362867
0.556571
0.458737
0.725481
0.364566
0.506301
0.40169
0.428663
0.380932
0.453431
0.387295
0.378199
0.374249
0.350287
0.366237
0.366933
0.481228
0.352498
0.392412
0.400289
0.632679
0.367124
0.428508
0.497801
0.790783
0.852236
0.418937
1.33723
0.293434
0.400058
0.400662
0.55166
0.374135
0.842466
0.469852
0.351512
0.453734
0.572115
0.444637
0.484688
0.666909
0.621658
0.493269
0.750446
0.383105
0.355052
0.427164
0.3583
0.349527
0.440954
0.35548
0.357633
0.579991
0.359239
0.360748
0.752745
0.873124
0.350906
0.354182
0.97487
0.35584
0.361629
0.584002
0.362808
0.6912
0.451079
0.795583
0.35833
0.569845
0.474854
0.687363
0.359954
0.469642
0.358068
0.856469
0.365579
0.356692
0.533679
0.45764
0.511042
0.391354
0.3896
0.375838
0.3595
0.517427
0.359636
0.355621
0.344815
0.472826
0.558126
0.350253
0.366424
0.352718
0.358158
0.367764
0.753412
0.355341
0.473197
0.356751
0.604576
0.376324
0.403508
0.380932
0.497561
0.367703
0.467005
0.35923
0.370512
0.374883
0.393021
0.362052
0.46545
0.451288
0.838645
0.822437
0.778461
0.426436
0.384174
0.381567
0.349027
0.350921
0.940477
0.657696
0.425772
0.399139
0.358206
0.373601
0.354121
0.352824
0.544216
0.529004
0.746569
0.494902
0.402484
0.366627
0.45117
0.355036
0.637119
0.364167
0.42282
0.374974
0.391403
0.983233
0.447666
0.349602
0.369218
0.430187
0.351959
0.253623
0.355715
0.334532
0.409419
0.924626
0.50292
0.772087
0.357356
0.380281
0.392139
0.378169
0.398403
0.360335
0.348844
0.350325
0.365069
0.365912
0.359104
0.588948
0.425514
0.844643
0.45453
0.359551
0.527479
0.382182
0.362841
0.347626
0.988539
0.889482
0.301167
0.332274
0.360226
0.795393
0.449882
0.464949
0.411027
0.397318
0.28075
0.381452
0.381215
0.349298
0.445801
0.479181
0.853943
0.554355
0.462956
0.348429
0.429689
0.646525
0.383133
0.355458
0.793676
0.844965
0.559551
0.649899
0.352466
0.348948
0.443071
0.35534
0.823165
0.355059
0.357681
0.356974
0.683947
0.353442
0.400011
0.491112
0.490058
0.357503
0.358918
0.372284
0.363481
0.343735
0.366878
0.417723
0.588717
0.471804
0.38722
0.620422
0.376981
0.619486
0.404674
0.889448
0.478121
0.455851
0.682261
0.311945
0.459349
0.516826
0.598149
0.445681
0.350362
0.365316
0.355232
0.378922
0.83761
0.394024
0.35741
0.370978
0.411155
0.355745
0.511671
0.380593
0.381358
0.491135
0.378941
0.356884
0.394426
0.387139
0.841172
0.795273
0.419633