/*--------------------------------*- C++ -*----------------------------------*\
| =========                 |                                                 |
| \\      /  F ield         | OpenFOAM: The Open Source CFD Toolbox           |
|  \\    /   O peration     | Version:  2506                                  |
|   \\  /    A nd           | Website:  www.openfoam.com                      |
|    \\/     M anipulation  |                                                 |
\*---------------------------------------------------------------------------*/
FoamFile
{
    version     2.0;
    format      ascii;
    arch        "LSB;label=32;scalar=64";
    class       volScalarField;
    location    "0.0263932";
    object      nut;
}
// * * * * * * * * * * * * * * * * * * * * * * * * * * * * * * * * * * * * * //

dimensions      [0 2 -1 0 0 0 0];

internalField   nonuniform List<scalar> 
47425
(
0.00644483
0.0054519
0.0051074
0.00209818
0.00370914
0.0049571
0.00509729
0.00344171
0.00743011
0.00180197
0.00255603
0.00733418
0.00615188
0.00457024
0.00391961
0.0039236
0.00533069
0.00281694
0.000291344
0.00316154
0.004089
0.00746806
0.0034027
0.00553519
0.00734377
0.00746736
0.00464267
0.000509891
0.00509006
0.00640938
0.00753203
0.00725168
0.00745257
0.00563449
0.00673057
0.00531101
0.00747204
0.00538572
0.00547085
0.00468315
0.00518131
0.00658092
0.00564518
0.00261213
0.000768535
0.00351251
0.00372093
0.00455854
0.00450213
0.00716248
0.000649076
0.00249464
0.00703047
0.00100118
0.00335402
0.00302264
0.00749583
0.00636971
0.00222703
0.00572179
0.000847335
0.000658105
0.00100119
0.00390261
0.00738421
0.00735108
0.00558605
0.00568317
0.00109235
0.00546098
0.00457114
0.00705678
0.00718942
0.00404876
0.00121908
0.00746102
0.0010287
0.0044064
0.000234282
0.00229574
0.00118834
0.00566939
0.00749991
0.00733495
0.00736415
0.00429203
0.00661273
0.00702075
0.00556065
0.00138036
0.00747232
0.00462864
0.00746147
0.00329537
0.00263312
0.00193012
0.00695309
0.00698424
0.00408684
0.00471638
0.00566034
0.00112293
0.00685893
0.00105921
0.00708673
0.00668472
0.00734016
0.00384922
0.00747129
0.00735733
0.00244296
0.0056667
0.00631715
0.0023571
0.00701853
0.000347054
0.00707278
0.00077893
0.00456727
0.00643659
0.00448068
0.00747159
0.0060262
0.00343617
0.00373524
0.00663741
0.00428318
0.00742142
0.00347411
0.00747029
0.00747861
0.00363224
0.00108043
0.00303285
0.00696004
0.00626731
0.00722798
0.00649644
0.00516839
0.00352921
0.00505676
0.00287335
0.0049187
0.00581129
0.00676815
0.00742463
0.00440784
0.0055577
0.00245383
0.00504886
0.00592963
0.00054955
0.00738846
0.000425787
0.00384816
0.00424565
0.00360292
0.000299771
0.00401081
0.00487135
0.00714324
0.00748837
0.00703355
0.00730146
0.00124746
0.000541107
0.00746211
0.00122146
0.00338224
0.000883108
0.00121765
0.00425952
0.00481623
0.00469048
0.00509551
0.00139891
0.000384824
0.00523894
0.00667473
0.00743826
0.00032067
0.00732133
0.00600093
0.00737674
0.00723906
0.00681827
0.00633009
0.00122364
0.00249753
0.00663573
0.00747365
0.00527428
0.0043796
0.00474226
0.0072413
0.00720396
0.00582902
0.0048811
0.00728223
0.00439339
0.00544638
0.0030153
0.00743519
0.00714608
0.00311032
0.00238351
0.00678093
0.00716355
0.00416652
0.00747139
0.00552525
0.00561069
0.0074513
0.00380393
0.00576676
0.00587884
0.00529879
0.00184861
0.00404122
0.00395484
0.00212117
0.00314311
0.0063284
0.00376317
0.00239602
0.00171213
0.00720875
0.0028274
0.00708783
0.00502414
0.00555601
0.00489304
0.00351401
0.00749058
0.00227467
0.00373624
0.00197619
0.00314835
0.00226477
0.00205397
0.00425023
0.00655346
0.00748869
0.00343461
0.00742151
0.0072964
0.00533889
0.00588802
0.00744989
0.00481041
0.00752572
0.00251565
0.00547338
0.00742111
0.00391325
0.00747824
0.00739994
0.00313761
0.00365695
0.00738289
0.0031602
0.00746842
0.00473119
0.00277071
0.00621364
0.00408063
0.00741554
0.00583049
0.00585691
0.00439932
0.00459153
0.00249854
0.00197207
0.00713954
0.00262377
0.00213195
0.00262103
0.000558877
0.00202565
0.000685299
0.000903741
0.00663683
0.000892287
0.00306246
0.00450603
0.00411273
0.00353174
0.00392801
0.00413801
0.00695826
0.000743991
0.00661697
0.00737551
0.00628579
0.00544306
0.00358591
0.00321509
0.00735351
0.00540111
0.00452816
0.00408253
0.00736353
0.00405235
0.00610884
0.00106497
0.000826133
0.000559837
0.00747264
0.00717289
0.00752398
0.00341762
0.000805929
0.00412139
0.00301917
0.0015909
0.00490127
0.00347701
0.00313159
0.00395239
0.00182582
0.00177978
0.00749913
0.00587652
0.00728171
0.00436378
0.00746001
0.00459452
0.00599122
0.00674573
0.00497296
0.00475006
0.00111788
0.00489049
0.00465757
0.00298928
0.00754205
0.00114165
0.00681738
0.00726243
0.00682233
0.007418
0.00738447
0.00743444
0.00668409
0.00709676
0.00679813
0.0062309
0.00725601
0.00444982
0.00428768
0.00728023
0.00731738
0.00567834
0.00715747
0.00711303
0.00316904
0.00467004
0.00755131
0.00705127
0.00386422
0.0019047
0.00648404
0.00446921
0.00392148
0.00726237
0.00697058
0.00288366
0.00741961
0.00526599
0.00741633
0.00288129
0.000860417
0.0045213
0.00748415
0.00192654
0.00745949
0.00658991
0.00399788
0.00503152
0.00745371
0.00562725
0.00740441
0.00744633
0.00482426
0.00420537
0.00439728
0.00427501
0.00679734
0.00716939
0.00425995
0.00716123
0.00737807
0.00444884
0.0062924
0.00556278
0.00711893
0.00570921
0.00390704
0.00219165
0.00718187
0.000805872
0.00732341
0.00233315
0.00501364
0.00358274
0.00358563
0.00713907
0.00252814
0.00725223
0.00380428
0.00734815
0.00101853
0.00100071
0.00743985
0.00341443
0.00436995
0.00408132
0.00445132
0.00464097
0.00461371
0.00410397
0.00523917
0.00744549
0.00334337
0.00509256
0.00701516
0.00333416
0.00489274
0.00674433
0.00101488
0.000347802
0.00713989
0.000520371
0.00041646
0.00409725
0.000441956
0.000665642
0.00695979
0.00448983
0.00478973
0.00471232
0.000987145
0.00406968
0.00696594
0.00681154
0.00504428
0.00493905
0.00427762
0.00435435
0.000885956
0.000773439
0.00146575
0.00543151
0.00122637
0.00439863
0.00652209
0.00738886
0.00637203
0.00739146
0.00424755
0.00479049
0.00284792
0.00519369
0.00748982
0.00454691
0.00607408
0.00455542
0.00731828
0.00562223
0.00532688
0.0052426
0.00562884
0.00346465
0.00296066
0.00584585
0.0043311
0.00732685
0.00109628
0.00286434
0.00254649
0.00740706
0.00272454
0.00275171
0.0037586
0.00747903
0.00472068
0.00731512
0.00519834
0.00356319
0.00348142
0.00452413
0.00387193
0.0066246
0.00245635
0.000941445
0.00732936
0.00189807
0.0061156
0.00186354
0.00712588
0.00679555
0.00742147
0.00519003
0.006551
0.00320163
0.00590708
0.00719531
0.00746808
0.00739649
0.00478095
0.00280752
0.00455447
0.00748423
0.00621055
0.00654266
0.00651693
0.00610924
0.00510495
0.00498459
0.00309651
0.0047293
0.00372602
0.000699869
0.00586316
0.00515844
0.0066144
0.00741379
0.00184652
0.00174211
0.00468034
0.00695368
0.0045132
0.00473107
0.0070879
0.00181723
0.00748781
0.00253704
0.00262707
0.0030538
0.00614519
0.00301885
0.0075341
0.00494814
0.00507704
0.00734559
0.00746809
0.00695702
0.000864792
0.00579833
0.00257291
0.00736013
0.00178852
0.00725409
0.00616082
0.00247388
0.00263641
0.00510634
0.00738964
0.000631826
0.00660354
0.00619041
0.00670327
0.00691549
0.00739332
0.00262569
0.00300496
0.00730439
0.00670978
0.00525737
0.00743448
0.00171433
0.00740841
0.00576931
0.000496467
0.00492016
0.00744743
0.000683793
0.00142626
0.00745293
0.00028071
0.000307946
0.00491012
0.00739609
0.00677515
0.00753574
0.00441667
0.0040575
0.00149827
0.00751647
0.00286819
0.00678166
0.00210208
0.00245417
0.00439267
0.00519348
0.00172161
0.00373463
0.00684562
0.00386666
0.00414109
0.00332096
0.00306659
0.00308986
0.00692897
0.00378039
0.00285664
0.00440484
0.00544553
0.00338701
0.00414476
0.00717757
0.00280414
0.00389314
0.00463107
0.00293197
0.00351302
0.00547179
0.00493261
0.00657945
0.00201771
0.00512633
0.00704453
0.00726464
0.000305049
0.00440496
0.00586396
0.000570376
0.000760628
0.00748863
0.00483792
0.000244974
0.00214964
0.000924159
0.00227321
0.00315777
0.0005907
0.00615328
0.0071186
0.0059118
0.00336091
0.00336728
0.003334
0.00734964
0.00321958
0.00551503
0.00435507
0.00691469
0.00443237
0.00450882
0.00208885
0.000653246
0.00302822
0.00332992
0.00423712
0.00703055
0.00348897
0.00733627
0.00600996
0.00566262
0.00531692
0.0071032
0.00206623
0.00471421
0.0072613
0.00180237
0.00201723
0.000943755
0.00144331
0.00412667
0.00759913
0.00490417
0.00742628
0.000960463
0.00502448
0.00100634
0.00437061
0.00451013
0.00634045
0.00505035
0.00587046
0.0041639
0.00226261
0.004041
0.00662276
0.00192756
0.0049416
0.00748659
0.00499387
0.00407276
0.000801504
0.00638517
0.00188795
0.00432937
0.00747617
0.00735878
0.0026312
0.00445703
0.00466014
0.00736642
0.00543845
0.00489953
0.00476669
0.0044275
0.00447867
0.00549946
0.00107555
0.000684452
0.0049535
0.000914158
0.00537865
0.00314637
0.00368925
0.00721352
0.0058681
0.00609214
0.00468093
0.00442755
0.00742936
0.000611883
0.00191704
0.00362653
0.00525412
0.00725341
0.00394456
0.00679651
0.00256555
0.00723558
0.00120159
0.00424236
0.00735163
0.00455733
0.00710692
0.00591941
0.00504049
0.0070593
0.00388786
0.00743049
0.00728739
0.00481484
0.0010118
0.00753096
0.000542912
0.00210062
0.00243423
0.000446785
0.00442356
0.0035135
0.0025664
0.00440298
0.000872068
0.000411456
0.000884092
0.00394431
0.00599457
0.00415781
0.00309523
0.000974156
0.00273019
0.00391352
0.00667449
0.00512016
0.00480637
0.00324184
0.00627974
0.00444116
0.00128031
0.00232842
0.00555501
0.00246582
0.00122593
0.000795797
0.00461546
0.000334165
0.001556
0.000692048
0.000859813
0.0045134
0.00309598
0.00744535
0.00718484
0.00498372
0.000417383
0.00161391
0.004918
0.0049716
0.00747072
0.000819462
0.00062951
0.00749915
0.00231303
0.00388916
0.00746473
0.00227448
0.00747174
0.00752814
0.00488197
0.00501452
0.00168825
0.00699543
0.00751
0.00597588
0.00536667
0.00534264
0.00118526
0.00181306
0.00743645
0.0014808
0.00713822
0.00744962
0.00735016
0.00186023
0.00465984
0.00206747
0.00299822
0.00654688
0.00742769
0.00149182
0.000769918
0.00484483
0.00417934
0.00181774
0.0056081
0.00561928
0.0031831
0.00292363
0.00294792
0.00259886
0.00240052
0.00115752
0.00742408
0.00125248
0.00662068
0.00400626
0.00748013
0.00214994
0.00286478
0.00753025
0.00233616
0.00138219
0.00421803
0.00166549
0.00556528
0.00666082
0.00499156
0.00355329
0.00499073
0.00348235
0.000779496
0.00522888
0.00321613
0.0018259
0.00181427
0.000729116
0.00177865
0.00425257
0.000577747
0.00740879
0.00721321
0.00411876
0.00244699
0.00406942
0.00159939
0.00145837
0.00336363
0.00628155
0.00522159
0.0033565
0.00367119
0.00404688
0.00414477
0.00132758
0.00426264
0.0056795
0.00214242
0.00163791
0.0022598
0.000553582
0.00403438
0.00538425
0.00387854
0.00406291
0.00542304
0.00740979
0.00341644
0.00388814
0.000866208
0.00309076
0.00517271
0.00383563
0.00656578
0.00356727
0.000866259
0.00463745
0.00221125
0.00670195
0.00226538
0.00286863
0.00376198
0.0054802
0.0053349
0.00358565
0.00149897
0.00404283
0.00175641
0.000751452
0.00578659
0.00733279
0.0061438
0.00123083
0.00611425
0.00179684
0.00670296
0.00174784
0.00151746
0.0030764
0.00376629
0.00435371
0.00746549
0.00515528
0.00322387
0.000940582
0.00243453
0.000631122
0.00745138
0.00267479
0.00318609
0.00233166
0.00401833
0.0028429
0.00171442
0.00167569
0.00400786
0.000824826
0.00394337
0.00414386
0.00492963
0.00560311
0.00452586
0.00521727
0.00148183
0.00390207
0.00388493
0.00586242
0.00670865
0.000816909
0.00176031
0.00077155
0.00186952
0.00135104
0.00210238
0.00403398
0.0013974
0.00407418
0.00142779
0.00203374
0.00207032
0.00142048
0.00357942
0.00619403
0.00498619
0.0075214
0.00167869
0.00377077
0.00364961
0.00495301
0.00168298
0.00667638
0.00462011
0.00688597
0.00746839
0.00298367
0.00229634
0.00303353
0.00396676
0.00671527
0.00235585
0.0073942
0.00361883
0.00333737
0.00711366
0.00279942
0.00180243
0.00528201
0.00262264
0.00445595
0.00246449
0.00208731
0.00298058
0.00327025
0.000225033
0.000493638
0.0016733
0.000381131
0.00349475
0.00398974
0.000570046
0.00051262
0.00612949
0.00120639
0.0034355
0.00428669
0.000483444
0.00266767
0.00700775
0.00327338
0.00182546
0.00705693
0.000757542
0.000357917
0.00248942
0.000797117
0.00238653
0.0009703
0.000716884
0.00612927
0.00470586
0.00279154
0.00171494
0.00385265
0.00718109
0.00242487
0.000665548
0.00666772
0.00175822
0.00521025
0.00216862
0.00708488
0.00645802
0.00211324
0.00214896
0.00441085
0.00195449
0.00584944
0.00111765
0.00741993
0.0071562
0.00310996
0.00190571
0.00500944
0.00747371
0.000795681
0.00138151
0.00183088
0.00378542
0.00368002
0.00226434
0.00106735
0.00456095
0.00103249
0.0018536
0.00637903
0.00358009
0.00225218
0.000924946
0.00270846
0.00212543
0.00604522
0.00665646
0.00239791
0.00445265
0.00295497
0.00534449
0.0074048
0.00724701
0.00492938
0.00217543
0.000715307
0.00507601
0.000489123
0.00485366
0.00481852
0.00319489
0.00647722
0.00408
0.00528016
0.00549268
0.00197605
0.00667297
0.00155513
0.00752937
0.000382608
0.00115526
0.00178272
0.00201249
0.00512102
0.00561894
0.00359127
0.00678649
0.000732386
0.000709989
0.00350519
0.00204677
0.000866801
0.000906446
0.00233603
0.00115764
0.000500206
0.00382978
0.0070599
0.00044808
0.00431317
0.0057177
0.0048141
0.000735502
0.000587619
0.004413
0.00483864
0.00146205
0.00222001
0.00085533
0.00074143
0.00337046
0.00105007
0.00111586
0.00346834
0.00488044
0.000924292
0.00671461
0.0010632
0.000233726
0.00743936
0.00548156
0.00443621
0.00640805
0.00311838
0.00349367
0.00731666
0.00307516
0.00419429
0.000997073
0.00182392
0.0058116
0.00136875
0.00570454
0.000381394
0.00696189
0.00390853
0.00220883
0.00684803
0.00105285
0.00412545
0.00319733
0.00241804
0.00223582
0.00414277
0.00227317
0.00213943
0.000786322
0.00696684
0.00115506
0.000767701
0.00111673
0.00488801
0.00109522
0.00210889
0.00478636
0.00511826
0.00117538
0.00201851
0.0025711
0.000755547
0.00258861
0.00110461
0.00178245
0.00297164
0.00234704
0.000963948
0.00295267
0.00713596
0.00230941
0.00431023
0.00255767
0.00225347
0.000604784
0.0060678
0.00432686
0.00576607
0.00154138
0.00563911
0.000550464
0.00240978
0.0056324
0.00734965
0.00204226
0.00194563
0.000989397
0.00185257
0.00265191
0.00135717
0.00100663
0.00444257
0.000925242
0.001801
0.00328949
0.000526979
0.001375
0.00309041
0.0030878
0.00561439
0.00176796
0.000541458
0.00197944
0.00213913
0.00259964
0.00712217
0.00217652
0.00553207
0.00380881
0.00626852
0.00124417
0.00209271
0.00156111
0.00460097
0.00183879
0.00440893
0.00275808
0.00133131
0.00193643
0.00246657
0.00267169
0.00629527
0.000417073
0.00154518
0.00175985
0.00142488
0.0022784
0.00635191
0.00111152
0.000454257
0.00172159
0.00332078
0.00295449
0.00252752
0.00248411
0.000976478
0.00615296
0.00140348
0.00171895
0.006675
0.0015262
0.00351313
0.00262892
0.00294033
0.0015643
0.00245891
0.00718647
0.000666154
0.00346646
0.000677465
0.00270192
0.00477342
0.00297418
0.00227954
0.00161346
0.00345353
0.00454385
0.00329226
0.00141313
0.0047057
0.00535789
0.000597455
0.00744933
0.00414973
0.000819157
0.00432037
0.00265225
0.00137427
0.00250052
0.00114612
0.0046029
0.000196825
0.00157454
0.00101442
0.00225877
0.00135785
0.00351269
0.000947254
0.00140166
0.001283
0.0036053
0.00409906
0.00737312
0.00421872
0.00406073
0.00293609
0.000619002
0.00389498
0.0062702
0.00572495
0.00586682
0.00364323
0.00433088
0.00746477
0.00747967
0.00309321
0.000976778
0.00740068
0.00289839
0.00234343
0.00559351
0.00719514
0.00294259
0.00297461
0.00746722
0.00638016
0.0035255
0.00373991
0.00721314
0.00393028
0.00106566
0.00401895
0.00446927
0.0063225
0.00748499
0.00143957
0.00525637
0.00657766
0.00076988
0.00115692
0.000971068
0.00731346
0.000914982
0.000460372
0.00719494
0.000300896
0.00082765
0.000538679
0.00403896
0.00527428
0.00443779
0.00167798
0.00745469
0.00456682
0.00468794
0.00404033
0.0030347
0.00397828
0.00354863
0.00125391
0.00447442
0.00294016
0.000881096
0.00408827
0.000401433
0.00214247
0.00129917
0.00730281
0.00312199
0.00205104
0.00690265
0.00529528
0.00196619
0.00751263
0.00236052
0.00190883
0.000388907
0.00694694
0.00142168
0.00634494
0.00316742
0.00301395
0.00623314
0.00142834
0.00585029
0.00239316
0.00609432
0.00128089
0.000263088
0.00455826
0.00747913
0.000441181
0.00496998
0.000280084
0.00427894
0.0038691
0.00487288
0.00480218
0.00610657
0.00703027
0.00461677
0.00217668
0.00592157
0.0022335
0.00422185
0.00410764
0.00739455
0.00239316
0.000682291
0.00410209
0.00181455
0.00648093
0.00516325
0.00313542
0.0044362
0.00488355
0.00637208
0.00246154
0.00270672
0.00747102
0.00407161
0.00492167
0.00534268
0.00390177
0.00209274
0.00146461
0.00469288
0.00412021
0.00260047
0.00403609
0.00668667
0.00539521
0.00702487
0.00218311
0.00227864
0.00196317
0.00370815
0.00509649
0.00493564
0.00137587
0.00658032
0.00660318
0.00590668
0.00166066
0.00301254
0.00130159
0.00129773
0.00125029
0.00408229
0.00533168
0.00524148
0.00487217
0.00697063
0.00127695
0.00494375
0.00723801
0.00442772
0.00336759
0.00492496
0.00113766
0.00501918
0.00239948
0.00277397
0.0035839
0.00664885
0.00497774
0.00400191
0.00401229
0.00522165
0.00315028
0.00388094
0.00302224
0.00413002
0.0050957
0.00488673
0.00231092
0.00202638
0.00549964
0.00439473
0.0025945
0.00386684
0.00231654
0.00737811
0.00668085
0.00257378
0.00522088
0.00643845
0.0048281
0.00728351
0.00741456
0.00449209
0.00467212
0.00175625
0.00498799
0.00280648
0.00717939
0.0050822
0.000943956
0.0044288
0.00434218
0.00605168
0.00571668
0.00413794
0.00438009
0.00033148
0.00351218
0.00229204
0.00695838
0.00601763
0.00514908
0.00746971
0.00710006
0.00356172
0.00429321
0.00704218
0.00737305
0.00234438
0.000960883
0.00143824
0.00312209
0.00180102
0.00360727
0.00480592
0.00360968
0.00196452
0.00204729
0.00393355
0.00440683
0.000856171
0.00541079
0.00437846
0.0041087
0.00419697
0.00736194
0.000347166
0.00520588
0.00383065
0.0073255
0.00284751
0.00335565
0.000369724
0.000250222
0.00518324
0.00659896
0.00742486
0.00414133
0.00386196
0.00616866
0.000237135
0.00102621
0.00545052
0.00261574
0.00140669
0.00555149
0.00661827
0.00273245
0.00744619
0.00576174
0.00723926
0.00480854
0.00265052
0.00417084
0.00448586
0.00653259
0.00229082
0.00473467
0.00743592
0.00116943
0.00570082
0.0039364
0.00285436
0.000994595
0.00129482
0.00357531
0.00288319
0.00604639
0.00284872
0.00300485
0.0074586
0.000601303
0.00137903
0.00288094
0.00413899
0.00341734
0.0040449
0.00404787
0.00100187
0.00748226
0.0072449
0.00575387
0.00541006
0.00100477
0.00144804
0.00114619
0.00171818
0.00357221
0.00288631
0.00748023
0.00754009
0.00456339
0.00590357
0.00530488
0.00644112
0.00751338
0.0010694
0.000382599
0.00739227
0.00743691
0.00360233
0.00140773
0.00371821
0.00747172
0.00579704
0.00149601
0.000916459
0.00373508
0.00190556
0.00228689
0.00204704
0.000457284
0.0030235
0.00690226
0.00751755
0.00616607
0.000920513
0.00649424
0.00435753
0.00449703
0.00748055
0.000773778
0.000183876
0.000375743
0.00174549
0.00142141
0.00695147
0.00744055
0.00289237
0.00464244
0.000790984
0.000955742
0.000522565
0.000444451
0.000623956
0.00194071
0.00710947
0.000884194
0.00737375
0.000401491
0.00393364
0.000711239
0.00458207
0.00201934
0.007195
0.00350104
0.00225091
0.00226753
0.00693926
0.00560154
0.00401088
0.00100356
0.00128232
0.00501101
0.00521976
0.000472666
0.000339048
0.00426632
0.00144272
0.000692202
0.00112039
0.00519368
0.00739858
0.000601395
0.000541525
0.0013324
0.00748752
0.00118937
0.00694745
0.000602199
0.00107736
0.000274533
0.00216735
0.00675422
0.00194564
0.00731502
0.00483666
0.00420208
0.00249799
0.0063874
0.00423124
0.00597877
0.00390767
0.00456281
0.00743741
0.0071828
0.00436563
0.00710012
0.00678223
0.0046104
0.00587345
0.0019586
0.00401339
0.00248773
0.00413442
0.0068774
0.00551952
0.000933436
0.00403992
0.0035987
0.00231473
0.000646669
0.00463532
0.00259426
0.00408027
0.00105345
0.00243763
0.0013821
0.00604715
0.00734102
0.00547333
0.00374264
0.00644703
0.00368207
0.0034591
0.00417131
0.00725148
0.00529496
0.00652797
0.00498829
0.00338648
0.00519578
0.00380474
0.000721448
0.00389012
0.00428326
0.0046404
0.0031571
0.00119042
0.00222709
0.00438876
0.00520434
0.00338059
0.00102738
0.00112154
0.00446255
0.00344487
0.00037358
0.00159128
0.00208391
0.00413064
0.00153782
0.00326356
0.004099
0.00359765
0.00115862
0.0048313
0.0042091
0.00284017
0.00682904
0.00238491
0.00293393
0.00331372
0.00341763
0.00197551
0.0046509
0.00590727
0.00749168
0.00226053
0.00351226
0.00445111
0.00199169
0.00555041
0.000983215
0.00297833
0.00344442
0.000434025
0.00206271
0.00721018
0.00354434
0.000784225
0.00170378
0.00246782
0.00742891
0.00291393
0.00133262
0.00657323
0.00755507
0.000694396
0.00212489
0.00155896
0.00192537
0.00663327
0.0050637
0.00125994
0.000495945
0.0007851
0.005121
0.00612726
0.00056679
0.00731248
0.0019987
0.00306643
0.00144022
0.00138781
0.0069092
0.00369786
0.00111156
0.0041076
0.00455968
0.00511994
0.0037084
0.00560216
0.00108829
0.000300556
0.00421085
0.00364436
0.000470083
0.000611612
0.000676694
0.00251349
0.00115682
0.00224781
0.000569948
0.00355397
0.00354206
0.000790558
0.00246635
0.00252961
0.000506678
0.000829216
0.000352806
0.00743269
0.00708554
0.000410315
0.00630904
0.00432857
0.00074972
0.00611496
0.00298338
0.00507966
0.00340011
0.00512396
0.00678671
0.000490965
0.000373266
0.00176149
0.000644041
0.0024143
0.0042361
0.00446453
0.00508551
0.00335664
0.00564206
0.00634965
0.00464249
0.00550314
0.000424222
0.00040354
0.00519901
0.00209256
0.0063279
0.00388107
0.00307417
0.00361178
0.0037465
0.00519033
0.000517438
0.00127686
0.00435204
0.000591907
0.00285059
0.00129714
0.00251158
0.00381655
0.000924393
0.00284523
0.00120536
0.00217337
0.00293107
0.00293331
0.00680538
0.0013472
0.00746445
0.00625909
0.00276944
0.00438682
0.00150192
0.00353587
0.00196786
0.00350933
0.000837309
0.0042175
0.00350017
0.0037344
0.00742863
0.00356426
0.00406865
0.00170152
0.000542419
0.00347789
0.000639206
0.00347716
0.00506665
0.00198322
0.00512665
0.00580329
0.00562232
0.00319889
0.00129002
0.00239706
0.00152756
0.00066164
0.0019342
0.00520335
0.000167301
0.00106953
0.005753
0.00293389
0.00149099
0.00398698
0.000813039
0.000453234
0.00271225
0.0012601
0.0014271
0.00306572
0.000851293
0.00203786
0.00714463
0.00354723
0.00104701
0.0010124
0.00730725
0.00102957
0.00736742
0.00268153
0.00619358
0.00268307
0.00194275
0.00101839
0.00101517
0.00585229
0.00567655
0.000237103
0.00745211
0.0044152
0.00114883
0.00660123
0.00293498
0.00217159
0.00409881
0.000502953
0.00155666
0.000447456
0.00148966
0.00315504
0.00130288
0.00690184
0.00601316
0.00120916
0.00727581
0.00392748
0.00266281
0.00559744
0.00149935
0.000529205
0.00738497
0.00272754
0.00729558
0.00085149
0.00535433
0.000607809
0.002905
0.0024485
0.00670163
0.00263443
0.00268903
0.00703491
0.00574889
0.0035141
0.00751125
0.00123872
0.00363917
0.00358647
0.00657485
0.00480217
0.00357621
0.00296659
0.00294419
0.0025784
0.00338423
0.00463978
0.00485135
0.0017436
0.000604192
0.00078472
0.000755427
0.00127739
0.000869476
0.000830629
0.00336452
0.000276516
0.000560094
0.00129162
0.00228298
0.00288671
0.000771965
0.00103026
0.00245098
0.00127254
0.00217032
0.00645473
0.00289802
0.00120027
0.00422125
0.00037496
0.0028373
0.00035712
0.00217626
0.00118929
0.00141213
0.000676717
0.000563127
0.00212198
0.000476728
0.00279571
0.00195048
0.00497385
0.00179622
0.00553486
0.006602
0.00102953
0.00361364
0.000876744
0.00154047
0.00547162
0.00238584
0.00488513
0.00128508
0.00104109
0.00736709
0.00557423
0.00178297
0.00090452
0.00378784
0.00278083
0.00118299
0.00116391
0.0054105
0.00735351
0.00398629
0.0046929
0.000731232
0.00752803
0.000961713
0.000329441
0.00545188
0.00306429
0.00489678
0.0044551
0.000718227
0.00280549
0.000731994
0.00379647
0.00534329
0.000552958
0.000798176
0.00611035
0.00247013
0.00612286
0.00715222
0.00114276
0.0027202
0.000739411
0.00423833
0.00694244
0.0023184
0.00664227
0.00639446
0.00597273
0.00523586
0.0027907
0.00223514
0.0013945
0.00342732
0.00126559
0.00388837
0.00731816
0.00220137
0.00129991
0.000835815
0.000931192
0.00127523
0.00204813
0.00103447
0.00105056
0.000800229
0.000961593
0.00330075
0.00302792
0.00419028
0.00144641
0.00473987
0.00308299
0.00333913
0.00170798
0.000551218
0.00349146
0.00277297
0.00350018
0.00551032
0.00343787
0.00536891
0.0062079
0.00528219
0.00289911
0.00324422
0.00281422
0.00625446
0.00308576
0.00132366
0.000804413
0.00449836
0.000623909
0.00735332
0.00374868
0.00738729
0.00465401
0.00104127
0.00275265
0.00128648
0.00384899
0.00414424
0.00405251
0.00463455
0.00549516
0.003036
0.00355522
0.00363479
0.00699498
0.0009024
0.00332756
0.00146962
0.00296311
0.00113083
0.00678668
0.0046876
0.00356225
0.00406786
0.00298887
0.000981348
0.00712858
0.00489297
0.000624964
0.0024784
0.00243184
0.00312027
0.0024445
0.00274051
0.00213845
0.00572211
0.00716556
0.00681252
0.00205021
0.00184935
0.00531902
0.000393406
0.00548301
0.00179785
0.00705379
0.00692804
0.00203526
0.00441286
0.00635647
0.00111778
0.00741499
0.00430482
0.00169317
0.00206748
0.00742964
0.00131569
0.0070053
0.00697206
0.00130026
0.00383987
0.00289764
0.000865274
0.0074914
0.00181754
0.00155484
0.00174869
0.00105508
0.00119515
0.00565602
0.0057979
0.00294104
0.00621054
0.00223604
0.00300747
0.0063455
0.00702337
0.00348763
0.00128635
0.00301665
0.00445382
0.00219983
0.00346266
0.00227856
0.00738505
0.00210159
0.00135341
0.0037469
0.00443641
0.00551157
0.00570148
0.00377532
0.00436397
0.00228951
0.00400206
0.000567418
0.00457064
0.00714563
0.000991483
0.00287631
0.000693383
0.00094077
0.00577675
0.00400927
0.00135031
0.00310067
0.000383814
0.00151705
0.000676255
0.00169317
0.00043033
0.00294419
0.00164277
0.00174745
0.000613
0.00111376
0.00303555
0.000555894
0.000367194
0.00191863
0.000333642
0.000890755
0.0015725
0.00137681
0.000549079
0.000933923
0.00750039
0.00378997
0.00102326
0.000860867
0.00099774
0.00145913
0.00160254
0.000754845
0.00295499
0.00374977
0.00467096
0.00730781
0.00326624
0.00708596
0.00108135
0.00301829
0.00443842
0.000759678
0.00402771
0.00233787
0.00516756
0.0068341
0.00322625
0.00484009
0.00179852
0.00724789
0.00218734
0.000603445
0.0054835
0.00739985
0.00387773
0.00570761
0.00131232
0.0029423
0.00599779
0.00652504
0.000626274
0.00708962
0.00456568
0.00704602
0.00192694
0.00342847
0.00460485
0.00626972
0.00562065
0.00143887
0.00396049
0.00254424
0.00719504
0.00732549
0.00731634
0.00424287
0.00487227
0.00371854
0.00665875
0.00354603
0.00373985
0.00301656
0.00121727
0.00134007
0.0037377
0.0020352
0.00433699
0.00276661
0.00350903
0.00376214
0.00701171
0.00319176
0.00434134
0.00653813
0.00204574
0.00474732
0.00308618
0.00120268
0.00496266
0.00286977
0.00140418
0.00400969
0.00120215
0.00203202
0.00111391
0.000383172
0.0028944
0.00593941
0.00234215
0.000493821
0.00316388
0.00711306
0.00695129
0.00656466
0.00397793
0.00478305
0.00742347
0.00743055
0.00417081
0.00303568
0.00741025
0.0071284
0.00749221
0.00606815
0.00322881
0.00194098
0.00315323
0.00654962
0.00404326
0.000940743
0.0059918
0.00659576
0.00354745
0.0005308
0.000704497
0.00376228
0.0053792
0.00555756
0.0033525
0.00391871
0.000610788
0.00202448
0.00531915
0.00409208
0.00729354
0.00381522
0.00199518
0.00378935
0.00330406
0.00395542
0.00140589
0.00197951
0.00148905
0.00106708
0.000329582
0.00170938
0.00194692
0.00409318
0.00413335
0.00360386
0.00331716
0.00688648
0.0046107
0.000459351
0.00741257
0.00186091
0.00115438
0.00341414
0.0030341
0.000305297
0.00205812
0.00439919
0.00393169
0.00750375
0.00311326
0.000963666
0.00393362
0.00179814
0.00393736
0.00291445
0.000636778
0.000901742
0.00374778
0.00362415
0.00113823
0.00517077
0.000718876
0.000701834
0.00129086
0.00741985
0.00729437
0.000269717
0.00679065
0.000495124
0.00228785
0.00338231
0.00117718
0.00100761
0.00702641
0.00745968
0.00100859
0.00706705
0.00663428
0.00542373
0.00726528
0.00442751
0.00427122
0.00241288
0.00648709
0.00036383
0.0033013
0.00536997
0.00406983
0.000322152
0.00438151
0.000568508
0.00539929
0.00401381
0.00404044
0.00118771
0.00564278
0.00448239
0.00548088
0.000876222
0.00215567
0.00215477
0.00153421
0.00291332
0.00692275
0.000855529
0.00314022
0.00336487
0.00316549
0.00539854
0.00331025
0.00378754
0.00727175
0.000405513
0.00155412
0.00483117
0.00545962
0.00209549
0.00498359
0.00294156
0.00357852
0.00568915
0.0023841
0.00525724
0.0058431
0.00435844
0.00141015
0.00485495
0.00522945
0.00545576
0.00367252
0.00710168
0.00538682
0.00629543
0.00282567
0.0047104
0.00274631
0.00259293
0.0039951
0.000493961
0.00565084
0.00340923
0.00099806
0.000786364
0.00140262
0.00393313
0.00271194
0.00197175
0.000346133
0.00400411
0.00088913
0.00404171
0.00737867
0.00294171
0.00181611
0.00393068
0.00561682
0.00735079
0.00609568
0.000338696
0.00602554
0.00706769
0.00264819
0.000489332
0.00048028
0.00420154
0.000275285
0.000968102
0.00109027
0.00129848
0.000734974
0.000381666
0.00568043
0.000861613
0.00406216
0.00685933
0.00388799
0.000461769
0.00216005
0.00707274
0.00658708
0.000948887
0.00546671
0.000478022
0.00694427
0.00295218
0.0056156
0.00300258
0.000633061
0.00730822
0.00320116
0.0028953
0.00641146
0.00373437
0.00681253
0.00296534
0.000580078
0.000576492
0.000615828
0.00165354
0.00164813
0.00685889
0.00699988
0.00587251
0.0037408
0.00734531
0.00175036
0.00749612
0.00105174
0.00423355
0.007197
0.0065611
0.00480411
0.00716338
0.00386838
0.00308537
0.00732757
0.00324918
0.000937587
0.0067398
0.00123541
0.000907304
0.00669981
0.000270834
0.000544752
0.00288806
0.00298237
0.00426614
0.00132923
0.00444246
0.00216866
0.0018392
0.006177
0.00174792
0.00692795
0.00239383
0.00460264
0.00256207
0.00197789
0.000717552
0.00333174
0.00407308
0.000725634
0.00153823
0.00221009
0.00114254
0.00565128
0.0013629
0.00446247
0.00196337
0.00298484
0.00608011
0.0013533
0.00266432
0.00269097
0.00656584
0.000628148
0.000903753
0.00042091
0.0065781
0.0048063
0.000998988
0.0006344
0.0025112
0.00427853
0.00253563
0.00123973
0.000663086
0.00205145
0.00604826
0.00309695
0.00443657
0.00593045
0.00406221
0.000639002
0.00623592
0.00212327
0.00318109
0.00716663
0.00267318
0.00276597
0.00674484
0.00420972
0.00353359
0.00231778
0.00103154
0.00490113
0.00198697
0.00246261
0.00212507
0.00304512
0.00201489
0.00170017
0.00366365
0.00662956
0.00634959
0.00641388
0.000734742
0.00422237
0.00109684
0.00379113
0.00445863
0.00594334
0.00362702
0.0071556
0.00253109
0.00747771
0.00255283
0.00241893
0.003653
0.00486355
0.00243929