/*--------------------------------*- C++ -*----------------------------------*\
| =========                 |                                                 |
| \\      /  F ield         | OpenFOAM: The Open Source CFD Toolbox           |
|  \\    /   O peration     | Version:  2506                                  |
|   \\  /    A nd           | Website:  www.openfoam.com                      |
|    \\/     M anipulation  |                                                 |
\*---------------------------------------------------------------------------*/
FoamFile
{
    version     2.0;
    format      ascii;
    arch        "LSB;label=32;scalar=64";
    class       volScalarField;
    location    "0.0263932";
    object      omega;
}
// * * * * * * * * * * * * * * * * * * * * * * * * * * * * * * * * * * * * * //

dimensions      [0 0 -1 0 0 0 0];

internalField   nonuniform List<scalar> 
47425
(
54.6922
69.3114
68.5169
163.88
128.08
71.6518
88.4323
103.901
49.4316
534.679
141.97
51.2438
65.7919
76.5412
89.6141
92.5443
65.6901
52.9415
1110.52
172.42
85.9342
47.3526
107.285
63.6531
49.5607
47.0538
74.8111
662.688
67.9946
56.2347
48.1019
50.0701
48.3118
63.3612
52.4928
67.8562
47.4168
68.0332
64.5331
74.5823
73.9341
56.7351
80.0967
145.129
1644.18
109.745
97.5316
79.0535
77.9105
49.4649
570.5
189.402
49.9038
784.804
116.236
123.792
47.1329
56.1747
83.7567
62.4226
1075.98
1102.73
810.779
49.6666
49.4214
48.759
64.7513
64.4863
768.969
50.4582
76.8407
50.7601
49.2924
87.8424
655.039
49.4698
782.982
80.5369
1370.34
232.549
686.289
63.0859
47.8396
49.1912
47.7696
82.979
53.4652
49.8756
89.6837
378.778
48.6796
79.2819
47.7693
116.42
149.503
196.782
50.3777
50.2568
84.4714
81.4484
63.3765
91.1016
51.525
103.963
50.0112
54.3258
47.9017
90.4625
46.918
49.6251
254.008
62.8036
60.4883
156.094
51.2451
910.482
50.7077
231.655
82.7979
57.5592
77.455
48.6851
60.9775
60.9705
99.9636
58.6725
84.2597
49.2374
108.481
47.7954
48.1414
101.452
136.803
125.1
53.4914
62.3678
50.0851
60.3334
68.6311
98.6451
72.5009
135.8
72.2906
72.5996
54.0873
49.3632
98.5193
64.4674
154.282
73.1288
70.1289
481.51
49.0516
683.048
50.322
85.004
57.5611
885.346
96.6153
76.338
51.6307
47.6922
50.0531
48.9399
376.237
814.67
48.6053
657.08
107.469
671.818
651.184
89.0961
74.453
49.0548
75.5732
69.3991
707.969
66.386
53.0527
47.473
981.193
47.7175
58.3083
48.228
48.4519
53.0388
56.3297
85.298
148.558
52.9972
48.2586
66.6891
74.7007
77.2226
49.4135
50.5456
62.1241
73.5822
51.1413
77.5196
67.5709
123.171
47.5461
50.6898
53.1639
159.225
51.4398
50.5253
90.0692
48.7878
63.2206
62.3045
48.6445
89.3515
61.45
60.8603
67.0803
239.919
51.3962
96.6979
256.569
107.904
65.5993
91.0575
167.81
214.967
49.3409
128.654
54.0867
62.8148
63.7703
74.2225
109.073
49.3443
166.763
95.4043
286.638
118.599
238.031
181.728
82.7364
54.5148
47.6519
102.776
47.7463
50.0734
65.1348
62.3048
47.1271
74.2572
46.5556
192.894
65.3357
49.3417
91.8906
47.2968
47.9908
124.085
94.274
48.7799
129.305
48.9539
75.0623
136.419
65.0662
93.6758
47.9804
65.3732
59.8968
82.4436
77.4451
209.641
282.949
49.8326
195.803
181.141
196.567
122.684
267.94
179.376
1115.08
52.8175
1038.22
127.526
79.4604
82.6339
108.098
89.2592
93.1087
52.5217
589.617
49.1105
50.3451
55.3598
64.3472
103.095
114.791
47.8219
65.207
58.5442
93.6088
48.4288
90.9887
57.8309
742.689
1001.75
664.27
47.3514
49.1964
47.4306
105.058
660.245
87.1454
120.115
207.191
77.3219
106.451
125.869
89.7703
349.719
184.524
47.7609
59.6897
47.9676
85.8092
47.1807
75.9402
58.3548
52.1717
70.9326
74.4765
533.189
53.6069
75.4938
129.874
47.5525
559.839
52.9069
48.4064
51.833
48.5487
48.7625
46.8888
53.8131
50.1123
52.1382
57.303
49.6368
79.3454
88.2502
49.2587
49.4225
63.0201
51.4804
50.0895
53.3113
78.0927
47.7733
51.8547
94.4674
62.4388
58.1259
83.4012
92.2116
48.1282
51.197
134.6
48.833
67.8482
48.2157
134.494
784.548
76.3007
48.5097
200.281
48.643
56.7067
97.0733
72.7305
47.4938
64.2236
48.7174
46.655
74.2933
89.4056
83.1091
85.1605
52.3858
50.034
84.7781
50.4081
49.242
82.5625
55.5425
65.3515
50.5006
62.1052
91.8131
66.1273
49.0361
464.145
48.2956
330.948
73.9595
108.837
106.878
49.2724
146.566
47.9568
96.7055
49.0041
704.213
331.468
48.25
51.9862
79.9226
85.131
79.9872
77.1651
75.4389
91.0813
68.9015
47.1064
103.366
68.3024
49.7472
77.9499
72.2795
53.747
146.545
1148.45
49.7576
287.26
937.565
92.194
976.421
866.987
50.8579
77.7321
73.2404
74.4204
617.724
93.1972
50.8869
51.9002
70.8156
72.1783
82.4691
81.126
424.237
652.445
145.38
66.0714
74.9518
88.7344
54.181
49.5208
62.0167
49.3369
84.8741
75.9181
132.753
68.17
49.3629
77.0931
59.3834
81.6746
50.0074
62.856
66.3692
67.9016
63.8131
111.063
127.307
60.045
86.8528
49.6992
452.553
132.307
74.0728
48.7271
142.019
194.955
50.327
47.4219
50.6099
49.8526
68.363
51.4564
111.892
76.3175
50.1852
53.4849
152.926
100.276
47.621
54.0518
58.2403
58.1705
49.2631
51.6776
47.2552
67.4408
56.8692
113.767
59.3382
48.4832
47.6153
49.7243
75.2128
131.188
49.2218
47.4954
57.2889
53.643
53.725
58.2724
73.5971
70.9544
53.0251
76.9865
101.059
415.057
61.7738
69.1033
55.8719
49.3852
117.51
118.087
80.5615
51.2514
84.6046
92.384
50.6486
129.045
48.6622
227.569
54.1005
54.5435
58.2317
115.17
46.8901
71.963
71.1845
48.332
46.6862
50.523
1107.41
60.7219
154.092
47.7821
92.5445
49.5952
57.609
79.4246
71.7681
70.8095
47.6545
415.166
53.1133
56.9994
52.7703
50.8945
47.7372
60.2951
103.382
50.7291
52.3816
68.0991
47.5199
208.593
48.1764
61.5499
505.141
73.2802
47.2733
377.317
529.008
48.1435
645.86
694.971
70.7266
49.0326
51.8344
47.2136
88.0985
93.1217
451.906
47.6663
133.766
51.6743
98.5179
59.0932
86.5331
69.2365
474.846
222.263
52.5221
92.4091
84.6762
83.817
124.566
128.66
51.9041
97.4021
133.163
79.1502
68.9761
125.424
53.4834
50.3933
126.363
96.5668
76.4594
127.499
105.213
63.972
73.8338
58.0657
57.6496
70.8038
50.6104
48.7916
1347.66
61.4277
70.109
1049.65
1010.29
46.897
79.4694
1631.56
175.691
91.9772
250.483
119.604
745.288
56.84
50.2029
61.2691
153.936
114.17
113.039
48.1738
121.443
64.1034
80.6395
52.1669
82.6803
56.6076
348.966
668.214
125.074
54.4962
87.6206
48.687
111.669
49.0892
59.9622
64.2041
67.7079
49.0068
188.934
77.6678
48.101
75.0031
193.801
863.043
201.929
90.5383
48.2451
75.6807
47.6816
860.111
70.4433
509.421
86.3066
98.01
61.2426
71.4326
62.1617
83.6539
58.3869
88.2485
52.5707
210.736
80.9475
49.2621
68.0982
91.2667
1050.02
60.8112
206.419
64.2758
48.7639
47.3
149.138
79.1436
68.231
48.6278
65.2231
62.5761
75.4999
81.0445
79.7059
63.9097
123.544
194.192
71.9561
97.2418
65.9537
116.914
93.27
48.5383
65.1972
57.3131
73.6226
80.3933
47.9439
305.16
395.353
98.3257
68.0812
48.7123
93.5858
51.9288
141.352
50.9351
221.561
85.0761
47.7188
79.0074
49.6017
59.1221
70.5945
50.0212
90.3138
48.5609
48.6257
51.0135
169.605
46.5902
390.486
204.025
237.905
351.453
82.7942
147.251
58.7827
52.3338
144.355
347.888
368.025
91.5634
58.3651
101.863
122.22
157.622
134.943
95.4108
52.9157
68.8809
88.5994
118.143
58.5375
86.1954
356.642
61.2787
64.4928
153.615
121.459
115.518
116.736
654.997
445.231
227.559
253.242
80.7219
122.242
47.6201
48.795
74.116
394.431
189.38
73.4882
75.0865
47.5809
356.772
349.742
46.9618
173.319
92.2977
47.3075
170.437
47.0391
47.0692
72.3344
73.8695
89.7731
50.6017
47.5074
59.2222
71.0309
69.5209
144.406
99.9973
46.7419
257.867
49.534
47.1304
47.7527
204.238
81.4432
254.212
117.787
53.3081
48.6031
70.067
1114.49
74.0435
85.6003
79.7524
66.3178
63.4598
121.823
124.64
128.07
348.227
87.2491
722.471
49.4529
70.0098
53.512
64.2665
47.3479
170.798
131.592
47.3715
380.607
106.319
67.1694
246.651
72.5344
53.398
73.4631
68.2643
71.0012
108.265
371.126
67.1805
71.7436
211.147
226.053
658.562
221.634
91.9347
185.269
48.5003
49.4843
96.975
144.508
88.9753
85.7624
95.9883
104.668
50.2745
66.2542
109.95
102.315
92.5976
206.74
744.333
92.7304
77.6104
116.141
576.312
221.245
218.355
95.5052
67.3805
96.8763
95.4937
110.778
47.8039
51.4383
97.1204
418.165
118.887
69.6129
97.4531
53.3287
111.038
131.783
78.6548
401.339
52.9337
66.8839
131.388
97.4658
65.9456
67.2033
104.943
100.821
95.6654
64.2751
134.69
50.0477
48.5354
50.6124
88.6469
57.2808
150.215
53.8752
225.272
298.339
206.844
92.5745
83.7859
48.7247
70.3968
116.595
470.482
219.935
859.849
48.1237
59.7873
55.6175
260.317
86.6537
308.907
241.493
236.055
103.689
253.303
89.4217
83.1998
71.703
50.9171
91.4557
69.6084
73.7777
175.898
80.2871
59.7717
53.0884
267.398
428.203
152.364
183.111
626.206
193.547
95.1364
76.8357
85.3631
108.269
187.024
190.602
642.849
50.584
57.8655
70.5776
48.8423
66.497
103.177
97.0349
54.5459
110.552
53.2231
78.5542
51.8584
48.2387
126.304
64.1843
124.722
49.7847
48.6395
164.236
48.9085
94.1945
104.042
48.6222
63.3743
120.576
71.0229
64.3283
78.7509
384.043
187.183
126.63
109.041
1836.5
987.015
559.154
408.614
107.929
53.3308
1038.26
404.172
55.427
68.0026
109.934
88.5765
361.781
140.796
51.085
116.646
58.731
50.136
205.994
888.292
140.745
1182.95
150.968
249.495
1047.24
57.3647
80.5636
134.785
237.744
96.7787
52.0458
51.9626
829.039
56.6704
328.605
67.6471
167.543
49.7791
55.4319
490.619
491.387
86.8922
58.4196
70.4698
395.551
48.2987
48.9477
394.032
519.795
74.1394
48.356
1032.96
834.98
466.906
101.577
182.522
420.534
473.693
78.3774
103.039
97.0081
59.1574
101.823
480.248
1394.44
63.4356
62.201
60.7833
51.1844
52.1607
81.1683
136.054
67.2321
49.569
48.7201
71.53
389.931
1082.79
51.1548
235.689
94.5503
72.8021
170.408
54.1718
89.4076
68.4036
52.4745
202.47
52.3835
478.537
47.4042
782.458
536.426
397.895
206.194
79.9764
65.8998
106.921
52.1892
202.914
1397.87
107.602
359.349
192.306
434.726
145.279
795.015
586.594
95.2155
50.1405
1444.22
82.5986
49.8161
73.8869
504.242
1000.06
80.2882
53.3794
448.979
82.9094
751.646
725.009
111.067
127.516
905.08
106.471
51.3206
607.52
51.6907
745.325
1019.96
49.2121
65.5631
82.1586
56.0659
127.601
98.9769
49.8945
125.837
90.8829
121.195
59.7487
48.0596
150.742
105.871
662.809
54.6383
98.1182
198.407
49.2605
779.127
86.3658
117.834
153.014
520.678
87.4867
662.283
183.819
139.82
57.3715
1003.49
216.3
239.591
81.618
155.659
61.8916
76.1016
66.574
318.074
276.265
103.81
690.096
150.255
101.806
269.203
131.218
148.546
761.323
227.642
49.1939
156.987
84.3191
148.46
279.228
932.022
58.4279
50.2121
62.6245
622.222
63.8681
331.132
62.5068
63.7889
49.0482
133.194
59.9054
209.38
286.29
55.151
64.734
95.2468
80.4467
966.315
260.757
110.278
708.826
329.303
122.048
174.719
64.6592
59.8534
985.478
59.4015
562.557
240.245
51.1302
61.3315
77.9644
96.1609
57.4286
72.1443
116.691
83.7563
76.8914
69.5834
81.0436
184.538
67.9625
201.143
159.707
177.102
56.0277
712.885
390.654
60.5954
513.996
325.153
55.7181
115.761
523.251
228.518
51.4447
158.864
299.081
172.648
397.828
57.1697
544.546
103.857
53.2363
68.5709
112.908
164.105
129.841
67.9503
246.496
48.998
279.623
111.412
1150.95
147.31
74.1747
123.221
236.208
58.9915
193.216
96.3066
108.592
695.455
76.0494
71.8044
958.566
47.1159
91.8502
392.374
60.3437
254.836
859.151
154.944
79.877
78.4233
944.585
247.533
379.587
240.917
79.497
66.7302
104.753
574.258
882.2
229.256
91.1144
49.0716
87.8844
88.8056
131.695
328.753
95.9025
57.3662
60.6308
59.8881
50.1724
88.645
49.7355
49.2417
124.332
93.1295
48.1428
132.851
213.506
64.9397
49.6275
134.876
62.0486
48.779
55.1762
105.576
98.8202
50.4621
98.1785
567.431
91.1112
52.6261
55.486
47.3651
206.855
66.9839
54.0028
590.601
929.141
283.904
49.6061
633.646
155.423
49.642
910.131
103.488
904.661
93.5027
68.7369
85.2749
69.7133
47.8726
85.2222
87.4764
94.9611
115.497
88.9929
106.583
150.405
82.724
76.8721
422.808
88.7294
1231.91
71.7364
641.538
48.8072
121.817
187.443
51.7345
69.6494
193.404
47.1758
351.829
305.167
1249.12
56.0522
617.897
55.5371
114.79
149.102
56.4518
534.137
65.5204
262.576
57.147
685.963
676.686
80.5471
47.0169
318.55
73.3171
305.697
82.1342
98.3458
72.2793
72.9781
57.4578
51.0811
80.4797
248.966
70.251
180.498
87.8442
86.3087
48.6509
156.903
406.077
91.1439
249.876
61.6642
67.7939
121.729
83.779
74.0977
56.8164
157.304
132.608
48.6889
85.8203
71.2847
70.9078
95.3738
307.9
325.143
81.5576
94.3676
249.809
88.6124
52.8987
65.0369
49.9818
176.007
169.026
204.082
107.018
71.5
71.6399
69.0135
53.9108
53.0421
61.2237
446.433
131.176
633.933
471.962
592.244
56.718
66.1444
66.7925
71.3609
51.7419
293.404
74.5896
48.5797
82.2548
110.376
71.908
277.395
70.1666
158.935
102.939
102.564
52.1632
71.3559
91.2085
93.3108
67.431
118.281
92.6786
158.689
84.2495
70.3044
77.8717
154.354
176.856
63.8389
85.2981
132.917
99.9986
171.791
48.3469
52.2837
134.861
66.7999
54.8031
78.6516
48.9966
48.2274
79.2581
78.373
372.811
71.7294
86.9803
48.7237
70.1546
642.109
82.848
87.2559
58.1024
63.4056
91.3375
88.0171
919.743
108.453
269.691
50.287
59.3693
73.4746
47.7193
50.7887
109.986
85.1837
50.4792
48.1586
278.035
106.67
472.873
123.843
225.353
106.511
72.8285
111.467
480.304
184.677
90.3951
80.0527
913.21
64.5137
82.4142
92.2557
87.0161
48.5293
953.3
67.5431
96.5519
49.3378
128.526
59.6023
935.704
1014.04
68.1316
53.1358
47.7362
94.2047
98.6728
57.8137
1176.21
780.588
64.1353
142.486
407.742
63.2259
69.91
110.68
47.4745
60.9976
49.5578
74.4341
181.68
88.8834
80.0567
49.5742
60.9429
76.2835
48.762
272.843
63.7785
123.024
140.031
382.872
284.194
105.545
134.812
70.3775
133.199
124.568
48.7763
579.038
293.804
131.283
92.8885
106.499
94.4683
92.808
313.184
47.4071
48.2644
63.0382
66.8201
133.041
82.3524
367.001
421.601
51.1107
131.532
48.3867
48.7511
80.1878
61.7114
68.6135
54.7187
47.2103
316.902
403.197
48.4569
47.4385
164.856
922.024
54.4439
46.6444
72.4301
152.72
903.769
92.7752
354.34
284.3
321.135
354.675
73.1556
51.2604
47.1335
58.9432
934.719
54.305
85.8306
82.9418
47.0276
582.815
1000.19
981.112
208.373
275.697
51.2978
48.3672
55.2303
82.1943
624.767
562.323
359.749
549.05
374.723
61.9001
50.0388
824.072
48.6465
903.008
95.957
897.916
81.9403
134.619
50.5713
150.835
169.423
170.683
53.3876
64.4133
91.3584
80.4066
67.2666
72.4443
69.6508
1147.32
661.067
88.2617
315.927
511.777
295.11
69.057
48.92
473.922
509.626
456.378
49.0157
867.036
51.5486
966.745
897.663
477.4
250.574
52.1986
60.0546
48.2918
74.1667
86.9213
152.437
63.9416
83.3951
58.6643
96.6583
78.4057
47.5088
49.425
110.318
49.3802
51.2765
80.8721
60.0701
88.3176
91.8849
158.973
92.8897
51.2025
78.3312
110.443
84.2975
96.7943
129.534
1178.12
58.1445
328.04
66.596
96.4893
316.856
74.9676
56.2778
48.1996
86.1745
96.7482
54.3688
99.6681
103.926
84.6571
50.6441
66.4068
53.3859
70.8375
112.226
70.5853
101.979
300.298
91.0554
83.5879
76.9963
115.232
88.2077
298.544
49.1558
68.1735
110.76
279.875
290.477
79.7029
108.783
929.157
244.87
189.665
92.2709
74.5463
115.068
89.3596
52.9972
139.694
79.938
89.1791
327.523
53.3724
166.26
123.42
117.588
107.924
204.226
79.9323
60.4526
47.8769
56.8354
98.1773
82.8762
575.499
63.6941
91.2333
129.398
104.971
871.647
59.9357
50.0354
105.593
281.348
364.014
156.381
48.9374
136.189
68.9616
52.3263
47.6405
523.606
104.287
62.7092
354.928
55.9376
70.013
158.495
722.721
933.42
80.2509
68.4743
896.109
48.3754
157.859
115.674
523.463
315.553
52.7165
97.314
528.381
94.1357
64.2877
68.5094
102.623
56.3203
68.507
367.052
50.4612
102.448
500.22
149.862
557.991
82.4158
416.13
55.4453
1096.95
106.761
106.395
558.9
202.145
254.336
413.03
400.898
290.872
47.7743
49.7893
378.633
58.3346
87.2407
362.08
63.1406
62.792
70.7934
137.821
72.2825
52.7801
721.973
374.34
145.464
367.767
168.307
89.9367
84.0447
77.712
116.273
63.8524
55.9159
83.0255
62.4695
304.153
322.045
72.7713
57.8334
57.0784
75.7774
110.83
108.155
99.6823
76.9781
344.21
62.8433
65.4987
374.148
132.889
532.656
164.446
95.5607
667.087
139.864
115.563
321.346
135.432
129.018
52.3649
782.084
47.5994
55.7795
56.984
88.3681
71.536
104.262
190.723
106.806
142.536
83.4562
113.594
102.181
47.0706
274.553
97.4544
534.727
1274.3
101.482
360.096
106.982
70.3685
630.61
68.5903
60.3879
74.5606
100.081
633.915
300.313
56.6319
309.639
327.854
68.0613
1836.91
375.526
79.0095
319.281
65.401
89.6217
235.776
363.854
148.917
726.636
59.5072
54.3288
157.517
57.2912
50.4863
107.628
302.324
489.156
47.682
146.745
48.7877
147.24
60.516
147.323
285.58
90.9214
264.012
61.4053
63.9372
758.806
48.2009
54.033
121.107
54.6955
130.578
302.746
51.251
944.997
512.921
854.593
469.744
119.5
71.0016
51.3612
58.8263
84.9148
48.9721
90.1428
151.183
63.7711
76.8682
619.331
48.331
150.565
49.6441
132.677
66.7455
709.521
128.202
91.6432
48.6027
137.886
152.666
50.8857
58.6222
102.119
46.6701
206.827
93.6866
107.72
57.7181
49.8743
104.858
52.2623
130.754
271.925
50.4188
69.301
51.1261
67.1744
424.38
230.067
137.636
407.004
786.67
347.91
77.8061
557.146
460.344
658.694
70.2226
186.651
363.284
296.859
261.632
929.987
59.7861
51.2799
185.276
738.753
55.7471
359.289
103.979
368.975
76.3226
75.1348
554.753
471.366
383.612
61.5637
309.093
131.257
505.404
48.9526
214.036
64.406
54.501
99.8823
98.8304
305.6
116.177
65.3358
164.319
74.1471
234.115
332.396
50.3963
68.4967
59.6906
920.665
81.0905
132.721
159.189
141.098
64.7078
49.169
94.3682
74.6107
379.023
47.8701
107.264
332.989
66.0141
53.9589
74.0464
71.2972
572.561
139.833
195.461
91.0515
66.2184
1063.45
1182.26
59.0795
149.698
58.9494
50.2233
384.106
77.3614
493.802
56.5971
51.3291
98.5633
59.6096
53.2589
60.6735
66.88
139.427
202.509
276.146
225.624
71.6067
79.5996
49.0252
173.213
545.413
873.545
75.7261
561.902
189.053
616.009
84.7265
382.461
111.378
140.526
130.808
87.1928
273.683
72.1721
175.081
111.206
62.2751
1007
107.897
588.237
108.172
64.6388
111.076
82.7326
62.3776
67.0909
252.928
109.036
123.834
55.5526
122.829
538.813
132.166
79.3724
165.598
50.6886
60.5268
48.493
78.7731
80.7587
150.989
74.4686
99.5403
84.8067
71.8125
80.9469
62.9392
74.5574
60.1709
211.669
55.2189
106.673
53.6596
70.8814
129.758
81.9446
51.6861
82.0375
100.089
92.9776
130.874
332.248
49.135
116.889
330.937
159.314
156.316
53.9825
157.133
86.7106
267.869
62.737
51.909
54.8762
144.086
61.4378
65.3682
814.944
115.6
329.802
50.9997
50.7865
173.023
82.6947
56.9311
126.209
49.2818
84.6502
58.8218
357.183
47.9428
154.828
50.8966
51.6576
78.1773
66.1161
133.889
107.325
47.3573
253.297
68.9181
74.1807
92.2635
744.715
63.9102
62.6068
131.279
61.5446
57.2035
128.68
55.9614
50.8121
107.776
190.822
127.454
87.5732
366.8
111.173
296.963
48.9736
182.547
68.0298
96.1247
112.722
53.9252
74.557
63.5317
82.5128
163.983
67.3667
561.185
100.163
50.0207
475.998
131.745
1449.96
305.937
94.6846
87.9753
101.02
122.457
390.849
66.2898
440.225
92.1067
356.843
68.1202
348.352
69.74
235.681
217.578
129.876
380.537
427.009
608.464
1266.6
532.035
755.84
292.327
380.633
357.723
48.1317
98.9499
310.033
71.8724
585.831
60.5646
444.006
594.348
126.442
103.606
78.5137
47.5207
115.416
49.6712
257.374
134.898
86.1352
179.95
88.1117
157.649
68.4478
55.1777
114.967
53.3559
222.671
48.8007
70.6595
688.215
63.9146
48.8582
93.9508
61.8844
523.759
223.383
70.7271
58.5949
174.814
49.662
76.6698
53.5329
55.8485
105.235
79.8666
56.6806
62.4684
306.167
86.9177
61.2182
51.2788
48.8738
49.3384
106.738
74.7328
100.069
53.2282
74.9352
97.8671
54.8892
243.957
76.9093
52.7366
62.8966
85.5683
144.205
112.483
100.514
51.5952
121.181
86.2937
56.0194
58.165
80.2155
78.0913
98.3784
73.8148
131.109
68.1223
83.4875
117.545
262.924
694.33
1094.83
129.226
60.1252
373.96
173.637
120.967
50.5882
51.1847
49.0308
88.4153
76.2611
48.3144
49.3408
52.7441
116.712
49.0057
49.617
48.7279
58.858
165.225
58.7457
119.434
54.6452
90.5883
268.145
58.3951
54.9062
63.489
1012.02
1018.18
100.185
68.1519
66.3916
60.3642
79.7498
496.916
68.0847
68.6024
92.6371
50.3626
94.5456
56.4011
75.8051
115.36
89.0796
65.9038
207.15
231.923
68.0545
1989.62
191.658
203.745
61.927
86.0403
102.84
118.203
51.4081
76.8583
318.206
48.5572
201.464
550.842
109.73
127.778
521.583
71.7071
79.9911
94.9745
47.5908
124.73
376.492
95.6657
87.9188
342.463
197.661
1151.3
590.631
96.9841
51.1458
143.231
67.9282
180.414
143.837
525.744
49.8617
48.7013
587.253
52.9882
202.549
74.0845
107.249
619.641
811.237
50.6885
48.1009
859.545
50.5434
53.247
64.5702
48.6199
85.0761
103.629
244.155
57.4538
546.71
109.094
51.3433
85.8839
683.592
83.8568
610.549
66.0365
59.2594
88.6039
88.4532
62.7986
93.3057
63.305
548.161
108.106
110.898
452.052
125.039
53.6106
565.035
101.732
111.495
79.1427
98.2672
111.88
75.2548
50.6462
256.012
72.6163
73.84
63.6098
111.18
72.4773
60.8764
51.0516
62.2838
156.019
67.6209
61.3451
84.3353
406.226
73.4081
68.1194
65.1323
97.5544
49.784
66.8066
58.365
135.137
84.5874
143.989
151.727
88.2133
391.655
61.1321
58.9488
374.213
331.792
546.339
90.8266
384.088
58.1309
413.111
96.4466
323.487
97.3523
48.7722
116.508
209.958
96.2209
63.7997
50.2306
58.2704
448.105
58.8945
51.3641
57.7842
2010.89
377.994
49.6649
1508.54
449.127
325.138
175.521
1463.41
320.117
68.9569
346.585
93.0734
52.4803
397.237
933.23
67.7567
50.4984
53.6377
524.909
51.3929
910.263
56.1411
131.395
86.6496
129.614
332.234
49.6141
117.971
123.797
55.9384
106.98
51.4296
126.881
1867.93
1922.28
742.57
95.4786
441.88
48.7029
50.0062
59.2845
101.588
48.366
57.6332
48.4857
74.2892
91.5253
49.3528
53.6052
77.7712
49.7526
96.6183
123.095
49.6077
117.913
135.273
49.3465
58.7635
866.778
57.2363
810.942
609.11
132.382
136.694
82.0378
125.357
63.778
56.8662
358.672
57.4958
62.8869
53.7878
56.4004
77.815
140.377
105.645
183.974
112.961
52.0863
523.345
64.9137
285.66
253.911
64.174
875.734
74.3718
60.5385
61.3176
58.9718
72.1643
52.9355
124.831
54.8887
389.332
205.448
368.744
56.2393
57.9675
83.3055
349.914
322.751
82.8371
148.521
65.9673
372.275
65.6976
81.9351
460.622
87.8761
55.1243
93.2031
1082.75
58.08
60.3648
122.805
51.269
138.456
135.265
59.8409
83.8465
243.277
173.338
771.809
73.0521
388.698
310.32
308.463
55.7516
182.305
104.22
105.566
54.0089
56.6797
58.8574
473.988
83.4555
99.6315
157.761
79.3866
60.9028
97.483
50.5063
147.512
48.5102
64.5163
169.796
105.429
78.4792
171.224
101.612
86.3104
80.2574
129.359
48.2164
246.264
364.25
111.485
76.8969
48.6033
222.119
58.7696
49.3878
87.4714
50.1051
110.146
91.4032
49.0718
51.8391
103.089
222.95
206.006
49.6482
761.969
47.8624
98.5254
93.3201
48.4436
746.749
151.444
658.651
50.5906
69.539
517.518
660.115
92.592
102.292
196.639
128.331
56.0555
81.7462
62.3542
149.31
83.1212
136.471
50.0055
137.285
103.144
113.852
57.3567
90.6732
47.7186
62.7161
558.452
233.276
100.784
56.9428
107.69
88.536
89.1797
147.597
48.986
52.5931
63.1567
89.6037
86.2436
65.6197
115.677
58.5812
56.0504
54.7012
70.9556
59.7962
61.7516
166.587
77.3965
68.8628
1382.52
80.2891
64.8635
81.4288
48.002
86.4542
211.134
51.0431
81.704
81.4012
1002.7
65.0436
61.1738
95.7214
1481.69
96.2439
154.734
126.195
69.1304
48.6073
73.1071
67.0852
805.016
98.4974
68.8658
66.3369
50.4932
255.016
51.2712
642.341
268.868
112.299
76.6979
60.0395
110.282
91.1661
60.5086
433.547
120.991
322.469
49.0154
140.651
658.954
119.578
52.5434
103.658
53.7612
719.365
62.2877
57.5919
91.5398
47.2613
59.481
86.719
51.5264
221.265
50.1224
347.831
48.1194
79.461
65.2597
151.377
90.497
131.373
106.742
556.393
102.602
124.688
76.3993
49.5427
102.576
59.359
54.7259
79.9374
76.0105
63.0592
127.607
48.1513
63.4099
49.7617
274.387
86.6769
519.925
524.722
297.042
162.523
65.7988
69.875
60.0813
194.494
92.7344
50.2219
50.4676
113.928
123.741
50.4858
75.6281
1060.39
104.176
67.1861
72.4347
637.615
843.144
61.0179
526.339
556.448
212.756
287.921
170.452
468.709
72.8097
227.839
736.687
73.8205
47.4827
58.4586
99.1584
319.48
50.0182
49.1997
68.9458
151.297
156.785
1102.08
113.246
953.17
119.534
67.829
87.9539
77.1791
66.6046
577.665
93.6392
298.861
481.234
65.259
639.093
2090.68
62.9495
127.749
102.266
431.415
154.487
121.023
707.606
1018.71
98.5744
565.649
129.554
374.203
82.687
49.9813
154.546
701.476
634.409
61.9179
109.853
150.629
96.1157
234.127
53.9769
66.3272
894.966
310.558
410.558
47.687
396.872
66.3602
379.041
62.5679
106.54
194.818
326.768
87.0692
109.7
330.042
100.635
621.224
76.577
63.3715
344.816
50.7129
152.43
48.9054
53.8046
48.4632
83.9152
405.789
455.951
327.361
61.9345
66.021
268.75
61.9057
420.814
68.6621
55.6414
83.0164
186.13
153.917
581.414
51.0713
76.3676
67.9952
306.706
105.638
567.064
863.711
432.545
105.049
65.1861
375.608
386.443
156.48
53.0365
64.8568
47.5972
732.871
238.663
363.925
2003.06
238.821
97.3611
83.0469
744.365
398.232
66.6405
90.6915
103.538
415.132
57.9478
50.1942
91.0268
74.6182
632.697
330.005
235.545
159.469
257.043
380.928
168.678
96.144
804.906
436.686
685.084
210.811
327.856
592.247
158.964
61.4351
104.082
58.815
54.7179
72.819
72.8414
148.519
259.128
86.4859
179.421
182.424
147.204
75.57
186.482
103.837
77.44
129.786
684.698
1080.18
497.368
69.64
120.154
77.9768
241.267
547.417
155.875
432.58
77.1305
403.281
315.936
187.35
49.6197
49.5433
71.2815
65.0057
613.505
89.3288
57.5246
449.955
72.5404
776.869
411.471
99.55
419.544
60.9359
47.6204
49.8695
48.0476
101.122
68.8416
94.1787
135.186
74.9199
48.9877
163.616
572.186
501.365
48.4244
106.974
54.8024
66.4326
54.4443
579.983
54.5621
53.4201
54.572
100.875
49.8314
53.5464
93.5332
54.7667
57.4662
57.7069
231.715
48.6456
63.1595
119.318
410.682
418.066
65.4631
652.328
541.439
57.9544
57.3524
163.248
72.4344
267.451
85.1334
93.6719
81.9403
245.303
71.9938
92.4875
997.032
404.839
101.834
597.47
51.1563
49.226
65.8399
48.9766
47.8779
73.3043
56.4232
76.151
192.357
79.6717
416.126
147.947
300.177
81.3936
47.0731
635.278
131.272
86.1858
556.64
104.494
635.066
72.4387
445.025
48.5157
173.837
87.9851
248.594
49.5238
88.1889
79.625
633.084
49.2247
47.2561
85.5324
81.4673
123.874
59.2428
64.7752
91.805
51.3344
130.07
52.1813
64.3551
148.321
90.1605
185.251
66.6815
49.5065
60.4947
47.9113
55.3642
180.884
47.0841
89.1521
47.4261
234.564
120.598
55.2203
115.986
112.038
60.4626
82.7646
68.3799
131.269
159.859
54.875
49.5071
89.5601
75.3138
401.758
546.372
483.29
63.947
51.2087
57.0104
62.8165
88.8752
826.784
236.688
64.8798
55.4167
71.1773
50.194
50.3316
75.7014
142.469
178.559
457.1
237.498
57.6753
77.5354
82.2978
47.072
253.405
73.9627
94.0046
115.579
55.4186
953.666
77.1299
56.5205
68.9818
68.5147
161.101
448.116
48.0614
409.019
58.6194
750.077
112.601
500.548
72.2816
50.7824
59.0523
105.207
54.2466
48.9087
126.024
47.4268
49.3222
52.8173
61.7641
210.759
62.2069
740.137
76.6871
60.2088
140.885
171.59
48.6492
463.094
926.194
732.482
538.431
437.959
53.2588
405.843
353.097
81.9759
59.6942
55.8901
669.984
92.9764
98.8611
49.3359
73.9042
260.401
702.213
156.065
83.5886
47.0012
67.0051
239.359
50.8904
56.8717
545.254
481.099
260.291
721.752
76.8192
48.0226
71.7397
81.6809
1107.54
50.4655
48.8175
47.7581
300.866
48.3817
55.762
97.183
100.071
47.9283
109.674
49.8568
149.57
78.7929
139.598
58.8021
211.066
92.6376
115.019
181.637
113.487
223.466
55.0823
622.596
93.1271
334.327
329.327
384.928
84.1262
103.291
192.798
73.7636
47.4514
52.679
52.3506
88.8978
567.62
119.774
48.8297
84.8069
63.2091
49.5502
119.343
59.7826
136.888
99.7941
51.1034
102.531
54.5852
75.6207
276.079
522.692
68.6347
101.464
81.4633
105.994
530.106
241.283
534.485
838.19
143.627
51.365
52.5179
48.5005
107.535
825.055
81.7725
789.507
134.897
49.8267
119.961
382.273
50.783
50.5192
57.2397
76.6019
56.4755
233.752
71.3019
91.4098
254.291
49.4037
100.107
60.1254
130.23
72.9509
56.5801
629.739
80.5344
117.406
59.3132
85.9341
48.7678
112.574
123.289
94.5555
95.0343
75.6334
63.5018
68.69
55.676
232.689
57.921
55.5012
118.627
225.97
236.542
64.1539
94.8902
115.79
170.869
71.0588
314.848
70.317
140.83
104.296
65.6517
160.915
85.5567
72.7181
292.867
101.055
52.8468
50.1655
307.169
91.3445
104.825
54.5237
114.9
87.8191
49.2241
96.5691
378.887
87.433
72.2195
90.1177
633.142
72.3294
91.2383
149.539
61.8086
159.561
53.5762
708.804
84.6323
80.4682
86.6337
57.1006
118.545
56.8017
462.517
47.3162
77.2604
612.865
58.6768
115.264
206.999
102.584
51.9313
525.956
56.4363
48.3544
94.2123
135.059
55.584
299.748
47.8054
377.043
100.675
48.3325
78.2692
120.005
698.66
183.663
72.487
50.4129
130.962
371.954
449.445
119.12
126.15
981.657
208.794
292.873
131.719
86.0047
105.509
60.1214
526.162
987.598
153.381
176.734
100.586
909.698
485.867
446.261
407.081
169.852
64.4039
55.88
152.862
73.8448
539.372
331.655
81.7489
744.429
110.154
58.1211
66.8676
52.4507
108.886
89.1888
92.5265
79.7686
143.313
184.591
858.048
57.5357
119.415
637.861
597.321
182.32
180.889
67.1689
680.089
47.8705
65.7069
366.1
148.481
48.8349
308.946
404.859
68.7407
125.571
51.8582
100.984
56.819
81.0167
175.528
87.6236
581.264
47.727
56.2759
90.7847
470.117
171.595
124.55
169.974
238.197
123.116
76.446
386.927
110.127
73.3629
236.238
769.325
276.146
58.3583
346.126
160.469
89.7088
67.4675
127.378
49.5678
101.207
82.6581
78.2062
72.2026
60.9907
88.2624
48.962
47.6341
49.4821
101.073
52.4399
160.942
420.448
702.108
97.3285
80.329
58.9898
54.669
105.95
638.155
55.1203
147.113
74.7089
201.717
60.7501
104.023
105.511
377.933
49.5631
56.1654
246.2
53.6929
72.5986
103.753
64.8307
355.022
82.1565
355.125
384.475
249.323
612.362
182.433
384.773
84.0497
123.299
145.868
57.1427
395.225
111.796
88.2303
154.26
87.3521
80.767
48.1938
59.0369
52.4958
47.5743
87.0641
305.261
47.9928
872.209
114.753
319.498
118.93
333.323
1829
57.5732
265.025
1170.69
112.588
338.802
79.9438
70.9188
747.815
974.005
265.769
163.164
58.6004
322.801
104.091
549.2
54.335
58.5627
221.199
991.087
62.6822
79.2367
55.712
201.554
416.836
53.2302
470.036
250.392
534.784
686.229
55.0961
297.14
66.8947
587.899
395.28
228.65
352.283
200.913
424.019
273.999
241.467
77.2977
72.8464
70.8921
55.0636
57.4484
1282.5
70.0801
101.559
70.8283
76.4359
109.177
936.264
120.063
250.737
307.232
123.866
307.926
131.05
46.8652
70.7157
899.795
537.858
229.349
191.164
217.238
81.2303
439.741
56.8955
223.998
241.113
58.5763
471.872
112.913
263.994
351.29
122.452
161.812
167.918
118.261
53.5898
143.723
66.6615
494.334
69.3203
183.548
78.551
239.661
62.1402
69.5661
359.95
127.146
284.841
48.96
1048.08
48.792
60.4709
53.5026
59.7104
85.1605
480.233
134.965
60.1918
614.944
77.717
51.781
63.6592
823.286
49.4939
90.5459
832.308
186.96
849.559
387.784
130.778
157.489
178.209
193.964
712.745
69.7235
309.131
113.319
64.9534
182.67
67.9529
121.36
66.6062
616.788
410.85
503.15
324.265
208.452
256.265