/*--------------------------------*- C++ -*----------------------------------*\
| =========                 |                                                 |
| \\      /  F ield         | OpenFOAM: The Open Source CFD Toolbox           |
|  \\    /   O peration     | Version:  2506                                  |
|   \\  /    A nd           | Website:  www.openfoam.com                      |
|    \\/     M anipulation  |                                                 |
\*---------------------------------------------------------------------------*/
FoamFile
{
    version     2.0;
    format      ascii;
    arch        "LSB;label=32;scalar=64";
    class       volScalarField;
    location    "0.0263738";
    object      k;
}
// * * * * * * * * * * * * * * * * * * * * * * * * * * * * * * * * * * * * * //

dimensions      [0 2 -2 0 0 0 0];

internalField   nonuniform List<scalar> 
47425
(
0.352494
0.37795
0.349966
0.343934
0.484849
0.355207
0.450494
0.357616
0.367283
1.00061
0.362898
0.375824
0.404696
0.34984
0.351377
0.363169
0.350203
0.392153
1.01838
0.54522
0.351493
0.353651
0.365085
0.352369
0.364014
0.351441
0.347355
0.839618
0.346129
0.360456
0.362301
0.36312
0.360057
0.357038
0.353332
0.360416
0.354325
0.366418
0.353094
0.349295
0.383075
0.373294
0.451939
0.3791
1.26223
0.385499
0.362927
0.360392
0.350756
0.354322
0.779081
0.472771
0.350882
0.87058
0.389848
0.374194
0.353298
0.35785
0.467774
0.357194
0.958836
0.725055
0.811203
0.377714
0.36494
0.358431
0.361729
0.366478
0.839477
0.378013
0.351377
0.358291
0.354399
0.355724
0.79782
0.369097
0.804868
0.354902
0.880086
0.533513
0.814845
0.35769
0.358857
0.360839
0.35183
0.356151
0.353594
0.350194
0.498238
0.622607
0.363776
0.366982
0.356467
0.383488
0.393492
0.379834
0.350302
0.351052
0.345251
0.384158
0.358753
0.474871
0.35345
0.505359
0.354452
0.363217
0.351632
0.348258
0.350548
0.365123
0.668154
0.3559
0.382056
0.367928
0.359728
0.822864
0.358667
0.665729
0.378228
0.370612
0.347134
0.363757
0.367484
0.393471
0.373408
0.389521
0.360952
0.365413
0.376888
0.357059
0.360137
0.368506
0.55313
0.379435
0.372266
0.390994
0.362114
0.392023
0.35475
0.348179
0.366641
0.390206
0.355575
0.421845
0.366085
0.366505
0.4341
0.35832
0.378572
0.369231
0.415812
0.792993
0.362423
0.804165
0.378274
0.360915
0.388356
0.90583
0.387508
0.371886
0.368872
0.357255
0.352103
0.357365
0.712857
0.836246
0.362794
0.801805
0.363516
0.860786
0.791759
0.379517
0.358596
0.366818
0.385116
0.429966
0.831846
0.347825
0.354139
0.353136
0.820872
0.349405
0.349934
0.355796
0.350768
0.361666
0.3566
0.477506
0.371047
0.351705
0.360676
0.351778
0.444777
0.366217
0.357836
0.364186
0.362136
0.359161
0.372508
0.340592
0.368029
0.371407
0.353535
0.362264
0.388443
0.379495
0.348839
0.361973
0.375303
0.364523
0.349338
0.349645
0.362492
0.339935
0.354406
0.35794
0.35556
0.548504
0.386123
0.382457
0.566648
0.339305
0.415106
0.342727
0.402066
0.547581
0.355726
0.36385
0.383384
0.417603
0.354445
0.363192
0.383339
0.36962
0.379332
0.356484
0.565913
0.373409
0.538724
0.373265
0.351661
0.357305
0.356867
0.353036
0.354385
0.365364
0.347867
0.36688
0.351132
0.357258
0.350492
0.523066
0.35765
0.366171
0.359625
0.353728
0.355163
0.389347
0.344866
0.360143
0.408666
0.365637
0.35521
0.378011
0.404258
0.382343
0.355818
0.403977
0.350839
0.362754
0.355656
0.523381
0.557422
0.35588
0.513409
0.386212
0.514823
0.507615
0.542214
0.584089
1.00872
0.350558
0.926751
0.390538
0.358074
0.339993
0.381774
0.350623
0.38525
0.36553
0.736425
0.369246
0.371321
0.348013
0.350266
0.369729
0.369054
0.351678
0.352219
0.399249
0.382184
0.356683
0.368735
0.353302
0.846946
0.826533
0.799698
0.353857
0.352939
0.356899
0.35914
0.764461
0.359175
0.362659
0.588807
0.379
0.370138
0.394174
0.35482
0.638556
0.568034
0.358184
0.350811
0.349317
0.374503
0.352003
0.348983
0.349645
0.351959
0.352778
0.353844
0.742488
0.374203
0.351647
0.388243
0.358656
0.746264
0.360702
0.351566
0.353655
0.360155
0.360113
0.348636
0.359706
0.355665
0.354484
0.357087
0.360185
0.353093
0.378407
0.35863
0.361681
0.357885
0.368525
0.356292
0.388539
0.364727
0.360857
0.365689
0.365056
0.418745
0.376914
0.372752
0.361629
0.349525
0.356907
0.388145
0.362335
0.357314
0.357616
0.387527
0.875303
0.345002
0.363044
0.38585
0.362845
0.373593
0.388108
0.365951
0.354034
0.361416
0.360737
0.347513
0.358422
0.375985
0.36546
0.364073
0.356109
0.358738
0.361173
0.36109
0.363366
0.367328
0.34952
0.363572
0.359545
0.354607
0.358737
0.426709
0.352202
0.663372
0.353717
0.77171
0.370813
0.389952
0.383242
0.351785
0.370537
0.347823
0.367918
0.360129
0.719406
0.790411
0.359033
0.381749
0.34928
0.347538
0.35611
0.35815
0.348098
0.373788
0.361007
0.350819
0.345678
0.347866
0.349022
0.449107
0.353814
0.362587
0.544108
0.398739
0.355373
0.673838
0.389721
0.377716
0.430939
0.766122
0.35397
0.349141
0.350938
0.350849
0.643416
0.379303
0.35453
0.353545
0.357371
0.356635
0.352785
0.353272
0.720334
0.623395
0.546822
0.358887
0.447031
0.390217
0.353478
0.366025
0.39517
0.364798
0.360533
0.363687
0.37807
0.35409
0.369719
0.350583
0.360741
0.37208
0.366043
0.353403
0.353567
0.356011
0.359201
0.384799
0.376946
0.351056
0.376184
0.364233
0.750668
0.378983
0.440742
0.360949
0.386983
0.536254
0.375381
0.35469
0.377977
0.364713
0.355392
0.377524
0.389561
0.345312
0.370648
0.354342
0.375717
0.486989
0.349103
0.391332
0.356207
0.405449
0.351082
0.351202
0.350775
0.350058
0.377247
0.364269
0.350552
0.34886
0.35559
0.36797
0.359605
0.368329
0.37257
0.355479
0.355819
0.351062
0.350277
0.356027
0.37573
0.353725
0.382393
0.364096
0.376554
0.763262
0.362209
0.356487
0.369588
0.366134
0.483841
0.488418
0.377069
0.356422
0.381851
0.436945
0.359013
0.500198
0.36438
0.577394
0.399211
0.393979
0.357876
0.491061
0.353291
0.356103
0.361431
0.35506
0.348684
0.351507
0.956814
0.352105
0.396478
0.351707
0.468306
0.359827
0.354945
0.450444
0.439309
0.361591
0.352179
0.313593
0.350756
0.352969
0.353772
0.35198
0.352954
0.414629
0.447892
0.375854
0.351499
0.358025
0.353301
0.547581
0.356972
0.355121
0.287488
0.360568
0.352093
0.368459
0.754069
0.358841
0.20417
0.237701
0.34731
0.362666
0.351215
0.355879
0.389127
0.377859
0.675666
0.358321
0.38369
0.350454
0.474565
0.410307
0.380129
0.359623
0.819365
0.86752
0.359615
0.357332
0.350674
0.364778
0.381976
0.397536
0.359685
0.368277
0.380402
0.348721
0.375632
0.501906
0.388005
0.361796
0.509411
0.375965
0.354114
0.373931
0.369671
0.35007
0.3642
0.381908
0.406305
0.363
0.356561
0.354478
1.02548
0.369368
0.41113
0.784597
0.767984
0.351213
0.384463
0.745878
0.37769
0.463364
0.5694
0.377685
0.816219
0.349789
0.357393
0.362225
0.517165
0.384451
0.376877
0.354084
0.391012
0.353614
0.351214
0.360764
0.366496
0.383559
0.728758
0.743733
0.378873
0.392949
0.371272
0.370644
0.389618
0.360146
0.360391
0.363574
0.360021
0.365744
0.390477
0.366167
0.349286
0.444113
0.390955
0.814281
0.580898
0.373635
0.366807
0.371188
0.354117
0.825984
0.353966
0.785884
0.377216
0.441908
0.388361
0.360755
0.36496
0.348366
0.408201
0.356645
0.348192
0.406175
0.399978
0.368802
0.424584
0.371711
1.14909
0.388354
0.389689
0.408719
0.364572
0.348103
0.392434
0.352764
0.42432
0.358251
0.354761
0.399665
0.3599
0.35885
0.357004
0.351497
0.516472
0.594472
0.356598
0.481746
0.354772
0.367876
0.344112
0.350197
0.382452
0.349192
0.344627
0.355963
0.356323
0.711455
0.758162
0.356596
0.357734
0.353356
0.369186
0.353051
0.362657
0.368608
0.576909
0.360941
0.350834
0.360076
0.352631
0.350005
0.355849
0.353113
0.351151
0.360862
0.354378
0.375318
0.585937
0.350883
0.283016
0.597674
0.578737
0.241284
0.366232
0.517115
0.404882
0.385221
0.549097
0.318613
0.825138
0.361409
0.349921
0.42334
0.37833
0.586439
0.368496
0.373405
0.353206
0.352708
0.425709
0.383009
0.367579
0.382859
0.457554
0.418588
0.358271
0.378787
0.5322
0.512002
0.538764
0.688447
0.692507
0.648279
0.677609
0.364334
0.378476
0.354585
0.350603
0.36937
0.263884
0.380012
0.361411
0.373301
0.355486
0.292949
0.253762
0.352203
0.40088
0.358967
0.353158
0.387651
0.351487
0.354368
0.353166
0.37043
0.479424
0.354009
0.356794
0.353929
0.381207
0.37143
0.570665
0.477937
0.347616
0.382017
0.353611
0.35117
0.351065
0.37995
0.379524
0.63409
0.353314
0.349045
0.36115
0.43925
0.858343
0.358745
0.357772
0.458112
0.371918
0.356627
0.387861
0.364418
0.377543
0.903451
0.461798
0.836221
0.367146
0.438903
0.354309
0.419732
0.354252
0.367223
0.377015
0.356754
0.889028
0.493651
0.40522
0.563627
0.403593
0.3557
0.366724
0.43501
0.354379
0.377041
0.289343
0.351314
0.432109
0.385546
0.41014
0.753336
0.394229
0.390954
0.553935
0.359395
0.357035
0.468954
0.525015
0.362076
0.45967
0.494631
0.352101
0.363983
0.345972
0.369076
0.375631
0.374742
0.895318
1.15986
0.395289
0.440655
0.510364
0.943281
0.848766
0.573787
0.385316
0.362798
0.375744
0.387997
0.635778
0.354293
0.379769
0.37763
0.362246
0.36747
0.360084
0.373779
0.350166
0.39607
0.523668
0.364765
0.886923
0.354794
0.430098
0.376906
0.36667
0.361415
0.358544
0.376294
0.487249
0.386776
0.4272
0.516653
0.376222
0.355942
0.377334
0.479775
0.350256
0.407011
0.361193
0.393783
0.672832
0.636085
0.348797
0.364788
0.363776
0.362917
0.37589
0.70906
0.534964
0.902742
0.358634
0.409508
0.373259
0.607004
0.348247
1.04487
0.414058
0.395575
0.41531
0.63828
0.352689
0.344804
0.353488
0.376705
0.413649
0.363184
0.443371
0.686108
0.438793
0.350498
0.356211
0.698911
0.753155
0.553204
0.569168
0.846139
0.406922
0.38378
0.454653
0.347803
0.515803
0.380367
0.394619
1.0707
0.379668
0.358458
0.351936
0.367389
0.430972
0.389081
0.354127
0.376431
0.493543
0.355377
0.362973
0.35714
0.360275
0.376772
0.420173
0.378337
0.37893
0.364308
0.386864
0.361682
0.34091
0.347241
0.363381
0.41951
0.517305
0.375322
0.410822
0.351044
1.09451
0.390702
0.377426
0.356597
1.00424
0.642742
0.934541
0.283497
0.37719
0.385879
0.663981
0.329451
0.382541
0.428604
0.377736
0.379718
0.731545
0.375595
0.358043
0.381882
0.399329
0.353857
0.624948
0.963143
0.350424
0.95605
0.360304
0.686047
0.847061
0.351623
0.379135
0.376251
0.636009
0.37288
0.373784
0.387761
0.730318
0.377776
0.57727
0.352612
0.363426
0.352711
0.358027
1.03696
1.05609
0.383286
0.409152
0.412273
0.678315
0.358405
0.350317
1.22692
0.990655
0.371415
0.361398
0.8941
1.15257
0.85412
0.384536
0.671245
0.951633
0.75721
0.357531
0.507091
0.477149
0.377478
0.364599
1.08184
1.42971
0.412785
0.417756
0.367464
0.363217
0.383861
0.361466
0.517983
0.359359
0.367049
0.353083
0.352693
0.850345
0.816958
0.363751
0.621425
0.458843
0.350809
0.544732
0.350884
0.364836
0.361324
0.384778
0.400111
0.349556
0.744063
0.356975
0.875678
0.62047
0.709254
0.414984
0.4095
0.370374
0.383988
0.3542
0.584354
0.995433
0.377187
0.73547
0.570422
0.805213
0.506544
0.919947
0.72485
0.364676
0.354026
0.756291
0.356284
0.36037
0.35573
0.709731
0.614839
0.354331
0.382882
0.656216
0.463662
0.801545
0.749728
0.374392
0.516522
1.00993
0.369301
0.384101
0.751658
0.360358
0.792168
0.85758
0.366158
0.359425
0.364508
0.359418
0.397952
0.345818
0.365206
0.387018
0.381205
0.527499
0.402254
0.365505
0.522161
0.602717
0.85033
0.380395
0.38351
0.506174
0.367115
0.92072
0.35634
0.376859
0.370008
1.1648
0.362486
1.50362
0.393285
0.537252
0.39978
1.15899
0.643944
0.566563
0.452203
0.568922
0.415167
0.364253
0.419396
0.612645
0.557924
0.489418
0.757916
0.388956
0.485724
0.69058
0.38993
0.348691
0.733102
0.917678
0.351187
0.362609
0.363449
0.379713
0.6289
0.787059
0.354582
0.373505
0.361105
0.978794
0.360177
0.655069
0.417033
0.359309
0.360511
0.490477
0.408772
0.646148
0.557214
0.392173
0.426352
0.484212
0.357446
0.894089
0.861426
0.362822
0.863769
0.675921
0.377181
0.539535
0.363038
0.411455
0.865833
0.409435
1.20399
0.624009
0.364228
0.416706
0.444844
0.366264
0.360021
0.437698
0.510034
0.46643
0.353788
0.43833
0.357329
0.508919
0.432318
0.389586
0.393948
0.472839
0.35274
0.834965
0.603117
0.413085
0.731706
0.741773
0.353944
0.521301
0.357376
0.393453
0.388
0.468736
0.755684
0.528365
0.744581
0.3518
0.763346
0.481423
0.355368
0.429127
0.396665
0.522176
0.381791
0.433774
0.605721
0.352151
0.655456
0.386219
1.20186
0.398018
0.354125
0.390632
0.538033
0.408732
0.666982
0.437252
0.357509
0.983271
0.357917
0.384861
1.03498
0.351045
0.381081
0.715391
0.386722
0.674719
1.18196
0.387439
0.455136
0.361023
0.8885
0.496145
0.704355
0.560758
0.455572
0.386606
0.478256
0.804691
1.13179
0.826501
0.373488
0.36182
0.370759
0.360635
0.386657
0.70629
0.373564
0.359714
0.388901
0.351382
0.377362
0.383944
0.371467
0.368447
0.384594
0.485198
0.356308
0.385077
0.49954
0.363257
0.35711
0.396953
0.39774
0.364259
0.352056
0.372259
0.369607
0.364026
0.385892
0.604504
0.366173
0.379501
0.350909
0.354542
0.54748
0.352134
0.355264
0.496007
1.07566
0.72415
0.362822
0.579308
0.525941
0.3572
0.492628
0.482788
0.486626
0.377626
0.36255
0.378466
0.437122
0.356903
0.389172
0.410045
0.38368
0.3506
0.354099
0.378233
0.54079
0.370145
0.439435
0.829997
0.362782
0.625768
0.439966
0.833536
0.356485
0.380361
0.384476
0.357285
0.36884
0.380292
0.354447
0.881012
0.583072
0.861373
0.389325
0.878289
0.352402
0.363581
0.500865
0.351889
0.762986
0.383259
0.628501
0.348364
0.878434
0.892195
0.367221
0.351676
0.525252
0.364396
0.483459
0.351481
0.380512
0.352278
0.35049
0.350903
0.359201
0.371651
0.541918
0.416127
0.403158
0.37089
0.354557
0.359779
0.375512
0.827421
0.373888
0.825399
0.399619
0.350059
0.381689
0.371683
0.361877
0.362055
0.387221
0.35893
0.363759
0.349432
0.351009
0.378846
0.372118
1.12223
0.805946
0.382741
0.388817
0.649137
0.357649
0.353743
0.350907
0.351143
0.384258
0.385137
0.400647
0.396868
0.364483
0.353629
0.437482
0.35487
0.35029
0.361648
0.741494
0.395133
0.825287
0.753257
0.816324
0.366134
0.352694
0.350115
0.347715
0.360721
0.651981
0.368863
0.351671
0.364237
0.371708
0.354171
0.454613
0.352198
0.381366
0.468032
0.367573
0.346855
0.355215
0.365021
0.374399
0.352123
0.37263
0.35977
0.47894
0.347985
0.358273
0.380476
0.356765
0.358454
0.351121
0.374926
0.34491
0.386695
0.397959
0.356745
0.349419
0.347171
0.348782
0.352869
0.379734
0.356893
0.357623
0.35613
0.366192
0.826815
0.357802
0.463605
0.349926
0.356576
0.725637
0.366945
0.378896
0.351643
0.362519
0.377969
0.385537
0.72071
0.380931
0.880849
0.349963
0.357287
0.378324
0.35647
0.360645
0.39176
0.365728
0.355529
0.355092
0.651629
0.477984
0.679841
0.386672
0.561933
0.384207
0.350001
0.402369
0.943816
0.378092
0.355598
0.352806
0.781047
0.349098
0.360878
0.379076
0.365221
0.357317
0.800389
0.35165
0.369886
0.361456
0.365998
0.408786
0.925044
0.818896
0.35317
0.35068
0.354452
0.390123
0.381096
0.356664
0.800869
0.800986
0.349604
0.372735
0.709569
0.351023
0.462328
0.481269
0.353526
0.351473
0.358859
0.35795
0.481045
0.370736
0.359189
0.374182
0.41239
0.361199
0.362592
0.612702
0.363592
0.484367
0.527887
0.381429
0.606211
0.377364
0.388693
0.425586
0.37945
0.374317
0.369602
0.834111
0.613069
0.37822
0.384472
0.363955
0.382131
0.375692
0.441147
0.354733
0.349699
0.362733
0.361528
0.536339
0.472973
0.816818
0.724465
0.385785
0.379651
0.361959
0.367691
0.365932
0.364364
0.364017
0.352471
0.354726
0.40799
0.354768
0.358229
0.352823
0.593824
1.29832
0.393302
0.348606
0.419767
0.529265
0.827384
0.346524
0.675727
0.650499
0.657344
0.703162
0.442034
0.353841
0.354361
0.363457
0.859646
0.352701
0.374014
0.373006
0.351825
0.449735
0.422982
0.406531
0.36377
0.748532
0.356748
0.359924
0.387904
0.381589
0.624545
0.6582
0.253169
0.457847
0.303113
0.42553
0.355788
0.90199
0.358722
0.861567
0.377474
0.851892
0.375483
0.519218
0.363864
0.528125
0.381362
0.38704
0.370487
0.360839
0.366447
0.453279
0.424836
0.363026
0.363589
1.16462
0.423808
0.376683
0.627933
0.573301
0.615761
0.358716
0.361972
0.500424
0.707362
0.69714
0.367076
1.03086
0.358252
0.888721
1.02472
0.263753
0.542794
0.352615
0.404539
0.35328
0.358739
0.365263
0.538104
0.40828
0.352906
0.350767
0.377708
0.357759
0.353364
0.355026
0.491824
0.350629
0.347796
0.372864
0.352823
0.464994
0.368812
0.395488
0.38404
0.352169
0.432279
0.496276
0.340568
0.348439
0.513995
0.762825
0.377352
0.881373
0.395503
0.472628
0.772169
0.455187
0.388235
0.353872
0.479929
0.362118
0.350549
0.367037
0.359515
0.353158
0.367362
0.351638
0.348523
0.353372
0.38014
0.366843
0.388015
0.734753
0.354234
0.358042
0.357304
0.363808
0.476016
0.664586
0.370833
0.354809
0.374461
0.598119
0.519237
0.355682
0.374764
0.849769
0.389712
0.395248
0.381142
0.443861
0.375553
0.366291
0.3737
0.557211
0.38617
0.375325
0.930549
0.364484
0.39648
0.362105
0.3897
0.368868
0.403472
0.371792
0.357136
0.358723
0.40207
0.344839
0.368941
1.14648
0.353541
0.462312
0.385407
0.361588
0.645591
0.411462
0.360765
0.374286
0.625014
0.619193
0.386007
0.363614
0.396832
0.435997
0.380972
0.359974
0.801649
0.503082
0.422169
0.68477
0.370996
0.354581
0.549642
0.454584
1.02536
0.411051
0.419592
0.507833
0.353782
0.564367
0.473143
0.751413
0.437911
0.36423
0.359963
0.588736
0.386669
0.418186
0.350788
0.380569
0.394833
0.428127
0.665971
0.381333
0.373363
0.316848
0.546082
0.758997
0.453125
0.730958
0.404272
0.988175
0.379444
0.376866
0.804258
0.498145
0.64412
0.2889
0.670491
0.612006
0.355123
0.352855
0.26052
0.393759
0.377632
0.758235
0.392284
0.421295
0.359814
0.468337
0.370384
0.358237
0.874367
0.284058
0.535092
0.334125
0.406316
0.381079
0.375197
0.395269
0.390198
0.360287
0.355083
0.385549
0.408592
0.223522
0.224447
0.378238
0.404886
0.361178
0.442707
0.479377
0.390657
0.373481
0.399631
0.232901
0.417199
0.420913
0.307009
0.378785
0.718556
0.413256
0.364851
0.876877
0.397914
0.519052
0.699286
0.396933
0.378426
0.356451
1.05548
0.355335
0.349168
0.403574
0.387663
0.434999
0.368657
0.500323
0.374843
0.53571
0.352007
0.397617
0.381608
0.349746
0.978112
0.396266
0.910017
0.692692
0.352999
0.756199
0.497586
0.356564
1.25034
0.351667
0.350458
0.419173
0.476862
0.858111
0.719338
0.397392
0.712662
0.63536
0.354167
0.553225
0.843399
0.454407
0.934992
0.424091
0.357329
0.626925
0.717137
0.403917
0.915771
0.411281
0.383662
0.565863
0.410379
0.360723
0.381799
0.752829
0.538506
0.348476
0.559249
0.365137
0.39485
0.377082
0.395285
0.5538
0.469893
0.717148
0.359386
0.362955
0.690136
0.359255
0.375092
0.507699
0.361167
0.383361
0.657697
0.383436
0.896426
0.798761
0.782645
0.700144
0.377031
0.437412
0.354511
0.353742
0.46122
0.356393
0.354137
0.402404
0.357042
0.458934
0.808489
0.356945
0.541889
0.362215
0.510075
0.40623
0.858804
0.372363
0.478347
0.362565
0.363355
0.410372
0.358
0.371616
0.358927
0.350587
0.576164
0.340961
0.386351
0.398638
0.371282
0.375004
0.390522
0.384971
0.700623
0.383145
0.357758
0.367683
0.433914
0.325737
0.667081
0.530062
0.657409
0.940609
0.450205
0.455793
0.154206
0.343823
0.850492
0.439557
0.538864
0.415319
0.73253
0.641668
1.18327
0.40992
0.378065
0.536978
0.886275
0.394641
0.268151
0.473332
0.283018
0.446053
0.451107
0.7831
0.771522
0.321449
0.418659
0.222625
0.36697
1.13564
0.367968
0.384476
0.356514
0.359848
0.490227
0.357243
0.634565
0.506135
0.357572
0.392052
0.362376
0.567358
0.647896
0.37132
0.426748
0.41029
0.913467
0.454347
0.369121
0.544431
0.556304
0.35029
0.361595
0.376195
0.350264
0.654441
0.36041
0.47904
0.647285
0.359944
0.392157
0.362771
0.361652
0.411626
0.392288
0.5517
0.345844
0.353977
0.588026
1.20888
0.361031
0.369827
0.360963
0.359254
0.613809
0.450053
0.77603
0.388827
0.356395
0.484209
0.395815
0.385203
0.362425
0.408089
0.389126
0.561563
0.519688
0.77483
0.439559
0.458648
0.358796
0.381325
0.785597
0.906096
0.442872
0.86775
0.387256
0.876821
0.469359
0.726824
0.507314
0.463698
0.396061
0.365386
0.395909
0.438203
0.575186
0.371334
0.412846
0.948609
0.376727
1.87528
0.378647
0.356249
0.381887
0.444186
0.387255
0.354403
0.732741
0.353846
0.348557
0.34749
0.379001
0.710945
0.524248
0.357073
0.555948
0.372786
0.386482
0.358255
0.366634
0.455941
0.415572
0.447087
0.383187
0.351501
0.433333
0.375153
0.345884
0.431227
0.40825
0.768821
0.386381
0.495062
0.389199
0.441093
0.384482
0.461411
0.350828
0.384474
0.356535
0.378234
0.391063
0.78459
0.350287
0.57142
0.295751
0.394857
0.380136
0.390946
0.384121
0.470295
0.572145
0.359117
0.37204
0.373932
0.512864
0.421577
0.347718
1.07765
0.633321
0.592976
0.359791
0.351893
0.528971
0.364942
0.3619
0.523028
0.365426
0.364476
0.407544
0.737019
0.356231
0.583415
0.35658
0.360214
0.457122
0.365954
0.387935
0.492228
0.354797
0.537658
0.441339
0.445186
0.479707
0.890104
0.36159
0.363
0.386084
0.410666
0.395945
0.387075
0.355268
0.356903
0.375889
0.596002
0.384474
0.390033
0.806478
0.384989
0.676813
0.361686
0.383641
0.431437
0.36019
0.50038
0.385478
0.424947
0.40655
0.3601
0.375481
0.423749
0.524366
0.457469
0.357522
0.582287
0.378947
1.00535
0.749827
0.546816
0.371721
0.496213
0.379711
0.271032
0.431468
0.297794
0.475702
0.225462
0.433894
0.637951
0.444001
0.635253
0.67135
0.394279
0.29598
0.279837
1.16899
0.641022
0.700156
1.1878
0.830185
0.334182
0.80955
0.36104
0.37502
0.740156
0.42593
0.810646
0.409658
0.710903
0.722955
0.373695
0.388518
0.366755
0.347385
0.376973
0.35198
0.71593
0.407158
0.382307
0.572824
0.354888
0.368559
0.353806
0.377154
0.370926
0.385655
0.400492
0.353742
0.439187
0.872982
0.350522
0.36171
0.364359
0.353303
0.687596
0.656911
0.424216
0.382295
0.574181
0.352096
0.350233
0.377293
0.396007
0.360805
0.367841
0.35539
0.351155
0.440421
0.344252
0.416615
0.369062
0.358178
0.360997
0.452742
0.364154
0.37215
0.354461
0.44397
0.366004
0.389789
0.695827
0.451032
0.384694
0.420635
0.371136
0.39899
0.394707
0.378129
0.361841
0.38676
0.374624
0.366301
0.405181
0.380849
0.449421
0.483209
0.366349
0.376293
0.43184
0.451792
0.513815
0.533591
0.770414
0.927201
0.374065
0.357133
0.875031
0.566927
0.539123
0.359912
0.355836
0.368486
0.351799
0.364772
0.358706
0.366675
0.393072
0.354415
0.363327
0.353728
0.3651
0.357191
0.533405
0.41291
0.376618
0.357957
0.366354
0.672538
0.349909
0.362181
0.415276
0.966835
0.717254
0.376935
0.366618
0.376734
0.409388
0.458552
0.714435
0.437343
0.364925
0.379087
0.370287
0.360733
0.403687
0.433463
0.38117
0.352355
0.427963
0.410063
0.600163
0.429277
0.681921
0.57353
0.396672
0.414358
0.35566
0.370625
0.392144
0.354149
0.354402
0.638936
0.359998
0.374995
0.712572
0.374657
0.387729
0.323717
0.439769
0.351928
0.373504
0.35714
0.388381
0.760213
0.376475
0.460858
1.34652
0.575768
1.06401
0.822473
0.363553
0.377153
0.557516
0.351267
0.582357
0.524472
0.702948
0.369968
0.355276
0.651154
0.359857
0.580061
0.441689
0.362793
0.728725
0.816466
0.35618
0.358903
0.865971
0.35722
0.3533
0.350295
0.353243
0.376704
0.442728
0.588811
0.37281
0.799697
0.360187
0.372929
0.349562
0.863575
0.367439
0.909985
0.356582
0.392072
0.358036
0.470964
0.354391
0.492629
0.347006
0.587049
0.499872
0.501309
0.692907
0.364334
0.371187
0.808463
0.466342
0.375196
0.445856
0.530123
0.370374
0.438691
0.368324
0.621542
0.440014
0.35676
0.347309
0.480715
0.361387
0.414769
0.380589
0.354417
0.371978
0.355582
0.358515
0.367588
0.681928
0.35642
0.356314
0.355449
0.358295
0.353564
0.359907
0.367553
0.381862
0.398226
0.39548
0.393413
0.352487
0.300579
0.382373
0.408915
0.628516
0.328875
0.795891
0.357275
1.04048
0.405846
0.272326
0.386145
0.392717
0.393439
0.359973
0.342836
0.38137
0.378203
0.358518
0.369307
0.355307
0.708658
0.354986
0.363127
0.402569
1.04618
0.244772
0.372316
0.81565
0.5417
0.63327
0.55955
1.07605
0.192585
0.416472
0.396476
0.378103
0.360017
1.54399
0.457299
0.429793
0.357191
0.353351
0.730733
0.377776
0.43465
0.389763
0.387885
0.486459
0.389138
0.624815
0.362739
0.377646
0.35843
0.358882
0.399481
0.350397
0.376329
1.08391
1.10851
0.89488
0.478511
0.728212
0.367965
0.350081
0.348173
0.380006
0.355378
0.401699
0.363481
0.441811
0.387458
0.355358
0.351772
0.373594
0.356514
0.373856
0.379824
0.36352
0.383189
0.554865
0.368406
0.409471
0.785721
0.383531
0.674566
0.844595
0.382347
0.407738
0.350017
0.509069
0.39017
0.402108
0.659678
0.355188
0.415196
0.372715
0.402489
0.358278
0.359682
0.490619
0.552181
0.376361
0.387224
0.784452
0.422358
0.631108
0.591318
0.362674
1.19228
0.440326
0.4178
0.403204
0.358575
0.444399
0.391444
0.336065
0.360434
0.322399
0.603256
0.211124
0.370016
0.402761
0.458289
0.221808
0.810374
0.354489
0.376574
0.423341
0.362558
0.427515
0.495476
1.42661
0.389871
0.374567
0.378625
0.692712
0.362404
0.412438
0.390683
0.36755
0.370128
0.374171
0.403557
0.352995
0.951723
0.401765
0.928993
0.358061
1.18109
0.763801
0.656764
0.388024
0.367506
0.498594
0.386766
0.375639
0.359943
0.377616
0.778142
0.352418
0.494276
0.597644
0.354003
0.362033
0.353595
0.361421
0.373387
0.36275
0.425337
0.410729
0.385163
0.381703
0.417664
0.364991
0.467155
0.358168
0.38282
0.360552
0.854932
1.21282
0.398477
0.393667
0.353993
0.818374
0.348784
0.360402
0.37452
0.355765
0.389717
0.374626
0.350242
0.355657
0.368809
0.749624
0.574818
0.370934
0.756321
0.357356
0.368502
0.35271
0.361767
0.739285
0.397988
0.817755
0.353862
0.358972
0.795662
0.871558
0.367116
0.35991
0.645328
0.379078
0.403325
0.466311
0.410749
0.386841
0.451016
0.384736
0.354768
0.391072
0.371744
0.516504
0.352198
0.378778
0.353049
0.363417
0.687818
0.686036
0.356405
0.360433
0.373669
0.372575
0.371125
0.544639
0.371246
0.383242
0.417403
0.373311
0.477765
0.425577
0.519454
0.414234
0.352897
0.355067
0.3521
0.410121
0.349577
0.533205
0.448941
0.352621
0.910275
0.366149
0.348316
0.389315
0.358136
0.400503
0.645579
0.367344
0.463566
0.372611
1.12662
0.422242
0.407026
0.378749
0.678888
0.379359
0.558085
0.397563
0.437721
0.355379
0.432902
0.423792
0.664299
0.487647
0.364935
0.357659
0.357507
0.557036
0.383147
0.99493
0.845075
0.377088
0.45688
0.360531
0.499443
0.477473
0.411486
0.673556
0.513174
0.69843
0.361559
0.402634
0.913658
0.516931
0.385461
0.503581
0.361604
1.07145
0.422846
0.387772
0.357474
0.352066
0.35607
0.369099
0.355567
0.718893
0.35748
0.593309
0.35579
0.463521
0.420176
0.558308
0.367965
0.371742
0.357369
0.598031
0.48902
0.537837
0.354649
0.362445
0.482892
0.405558
0.394593
0.348021
0.347389
0.35056
0.366281
0.35373
0.407722
0.358583
0.577594
0.452381
0.957696
0.774834
0.61119
0.586365
0.422859
0.429145
0.352916
0.610697
0.361027
0.376456
0.366622
0.491657
0.478139
0.366923
0.450569
0.787701
0.489995
0.352954
0.351464
0.982208
0.837081
0.411992
0.828594
0.880378
0.654478
0.733009
0.60056
0.713483
0.434699
0.65374
0.807434
0.352798
0.355491
0.350661
0.484739
0.629314
0.366734
0.357062
0.43161
0.387843
0.398955
0.82965
0.51567
0.895343
0.370141
0.350612
0.362706
0.345722
0.376463
0.827726
0.418525
0.60091
0.734028
0.352755
1.10496
1.18605
0.351348
0.51852
0.480075
0.796403
0.387347
0.501437
0.780988
0.730891
0.484519
0.76251
0.536002
0.676151
0.376288
0.379939
0.388132
0.938984
0.763471
0.41751
0.374183
0.576543
0.472277
0.594335
0.369379
0.406124
1.00049
0.902185
0.270187
0.349931
0.300312
0.354227
0.229597
0.423422
0.482091
0.62215
0.223783
0.466496
0.505022
0.182237
0.486719
0.870155
0.450488
0.419271
0.631843
0.375295
0.531099
0.365176
0.355059
0.365442
0.38388
0.733644
0.722292
0.807162
0.418557
0.424777
0.586859
0.420077
0.269999
0.432711
0.395157
0.368177
0.557064
0.380283
0.344
0.362053
0.451416
0.434798
0.762001
0.502473
0.824112
0.889563
0.78721
0.377047
0.43037
0.690679
0.350679
0.580276
0.396628
0.423946
0.360108
0.810323
0.60121
0.372953
1.3531
0.637429
0.354506
0.46603
0.794974
0.806152
0.42625
0.382269
0.49439
1.03847
0.387619
0.361463
0.385097
0.38189
0.546257
0.434794
0.651701
0.479078
0.619142
0.936906
0.574573
0.48861
0.724363
0.712316
0.839875
0.620411
0.668767
0.847442
0.565173
0.41626
0.477844
0.360433
0.349818
0.358865
0.429759
0.55731
0.956394
0.376348
0.393163
0.406432
0.378828
0.386301
0.586843
0.494861
0.36292
0.38679
0.90485
1.05237
0.241546
0.427786
0.35772
0.39761
0.807064
0.711466
0.377884
0.314958
0.367841
0.284047
0.32487
0.605187
0.369993
0.375454
0.361468
0.422994
0.831893
0.475609
0.391142
0.770918
0.351419
0.809611
0.661555
0.48771
0.665555
0.401127
0.351803
0.359474
0.36303
0.379849
0.4382
0.358374
0.372669
0.362092
0.362888
0.556687
0.457937
0.724633
0.364613
0.506367
0.40183
0.428649
0.381095
0.452541
0.387383
0.378227
0.374409
0.350371
0.366265
0.36707
0.481184
0.352553
0.392462
0.400348
0.632535
0.367171
0.428584
0.497709
0.7903
0.852634
0.419068
1.33799
0.293354
0.400106
0.400783
0.551799
0.374331
0.842855
0.469907
0.351549
0.453712
0.572414
0.444644
0.484593
0.666264
0.621294
0.493292
0.749662
0.383135
0.355139
0.42718
0.358357
0.349583
0.440959
0.355496
0.357747
0.579728
0.359365
0.360765
0.75228
0.873645
0.35093
0.35425
0.97563
0.355888
0.361651
0.585254
0.362868
0.690538
0.451084
0.795401
0.358427
0.569399
0.474909
0.687625
0.359994
0.469661
0.358091
0.855448
0.365583
0.356754
0.533302
0.457637
0.510711
0.391529
0.389583
0.375846
0.359525
0.517515
0.359656
0.355665
0.344918
0.472865
0.558131
0.35029
0.366418
0.352751
0.358197
0.3678
0.752714
0.355404
0.473297
0.356797
0.604599
0.376338
0.403571
0.38091
0.497533
0.367745
0.466967
0.359289
0.370545
0.374925
0.393131
0.362053
0.465361
0.451323
0.838189
0.821582
0.778472
0.426465
0.38424
0.381573
0.349071
0.35095
0.940195
0.657922
0.42595
0.399255
0.358262
0.373652
0.354153
0.352858
0.544192
0.528841
0.746322
0.494381
0.402689
0.366713
0.451141
0.355106
0.636948
0.364199
0.422695
0.375025
0.391481
0.982234
0.447743
0.349633
0.369392
0.430221
0.352021
0.253342
0.355739
0.334541
0.409419
0.925646
0.502897
0.771755
0.357383
0.380404
0.392204
0.378202
0.398418
0.360354
0.34891
0.350355
0.365109
0.366045
0.359125
0.588984
0.425502
0.844378
0.454584
0.359588
0.527595
0.382183
0.362854
0.348268
0.98805
0.889044
0.301108
0.332928
0.36027
0.794845
0.449891
0.464938
0.411075
0.397388
0.281007
0.381458
0.381223
0.349308
0.445846
0.479296
0.852656
0.554551
0.463125
0.348477
0.42984
0.646684
0.383152
0.355517
0.793618
0.846029
0.55954
0.648834
0.352507
0.348958
0.443144
0.355372
0.82192
0.355148
0.357734
0.357044
0.683735
0.353473
0.400046
0.491148
0.490059
0.357541
0.358929
0.372343
0.36362
0.343785
0.36689
0.41787
0.588791
0.471803
0.387258
0.620354
0.377004
0.619589
0.404785
0.889237
0.478152
0.45605
0.682212
0.312293
0.459364
0.516377
0.597901
0.445752
0.350392
0.365369
0.355264
0.378922
0.837473
0.394035
0.357471
0.370983
0.411272
0.355765
0.511579
0.38065
0.38138
0.491027
0.379105
0.356897
0.39456
0.387203
0.842235
0.795304
0.419671
0.369127
0.455537
0.368778