/*--------------------------------*- C++ -*----------------------------------*\
| =========                 |                                                 |
| \\      /  F ield         | OpenFOAM: The Open Source CFD Toolbox           |
|  \\    /   O peration     | Version:  2506                                  |
|   \\  /    A nd           | Website:  www.openfoam.com                      |
|    \\/     M anipulation  |                                                 |
\*---------------------------------------------------------------------------*/
FoamFile
{
    version     2.0;
    format      ascii;
    arch        "LSB;label=32;scalar=64";
    class       volScalarField;
    location    "0.0263738";
    object      nut;
}
// * * * * * * * * * * * * * * * * * * * * * * * * * * * * * * * * * * * * * //

dimensions      [0 2 -1 0 0 0 0];

internalField   nonuniform List<scalar> 
47425
(
0.00644555
0.00545219
0.00510845
0.00209854
0.00369364
0.00495749
0.00510061
0.00344182
0.00743011
0.00180141
0.00255612
0.00733422
0.00615474
0.00457102
0.00392454
0.00392394
0.00533182
0.0028215
0.000291226
0.00315988
0.00409083
0.00746827
0.00340302
0.00553679
0.00734414
0.00746812
0.00464368
0.000509682
0.00509118
0.00641016
0.00753176
0.00725217
0.00745253
0.0056352
0.00673114
0.00531126
0.0074722
0.00538566
0.00547154
0.00468377
0.00518131
0.00658403
0.00566357
0.00261215
0.000767952
0.00351259
0.00372125
0.00455862
0.00450288
0.00716293
0.000647587
0.00249133
0.00703134
0.00100062
0.00335398
0.00302276
0.00749653
0.00637038
0.00223345
0.00572232
0.000846564
0.000657694
0.000999591
0.00389514
0.00738421
0.0073511
0.00558629
0.0056848
0.00109158
0.00546074
0.00457358
0.00705892
0.00718919
0.00404978
0.00121901
0.00746101
0.00102726
0.00440687
0.00023412
0.00229824
0.00118844
0.0056701
0.0074995
0.00733469
0.00736458
0.00429411
0.00661357
0.00702119
0.00556284
0.00138151
0.00747201
0.00462875
0.00746186
0.00329479
0.00263256
0.00193021
0.00695364
0.00698698
0.00408871
0.00471648
0.00566065
0.00112272
0.00685955
0.00105842
0.00708743
0.00668609
0.00734062
0.00385091
0.00747134
0.00735765
0.00243621
0.00566724
0.00631904
0.00235819
0.007019
0.000347397
0.00707281
0.00077891
0.00456768
0.00643847
0.00448461
0.00747158
0.00602634
0.0034414
0.00373535
0.00663944
0.00428487
0.00742143
0.00347423
0.00747077
0.00747877
0.00363228
0.00108056
0.00303295
0.00696343
0.00626852
0.00722746
0.00649804
0.00516819
0.00353028
0.0050569
0.00287337
0.00491892
0.00581594
0.00676835
0.00742463
0.00441129
0.00555801
0.00245379
0.00504895
0.00593423
0.000549279
0.00738842
0.000425778
0.0038427
0.00424612
0.00359167
0.000299625
0.00401082
0.00487148
0.00714335
0.00748889
0.00703463
0.0073014
0.0012475
0.000541403
0.00746253
0.00122148
0.0033824
0.00088647
0.00121781
0.00425958
0.00481629
0.00467728
0.00509572
0.00140138
0.000384855
0.00524016
0.00667535
0.00743847
0.000320778
0.00732285
0.00600212
0.00737703
0.00723943
0.00681804
0.00633076
0.00122316
0.0024978
0.00663659
0.00747364
0.00527559
0.00437614
0.00474216
0.00724166
0.00720393
0.00582902
0.00488169
0.00728183
0.00439414
0.0054466
0.00301525
0.00743547
0.00714602
0.00310982
0.00238349
0.00678226
0.00716346
0.00416667
0.00747138
0.00552575
0.00561426
0.00745125
0.00380595
0.00576679
0.00588437
0.00529905
0.00184173
0.00405233
0.00395501
0.00211696
0.00314453
0.00632902
0.0037651
0.00239599
0.00170946
0.00720931
0.00282893
0.00708645
0.00502724
0.00555857
0.00489337
0.00351428
0.0074906
0.00227476
0.00373662
0.00197795
0.00314842
0.00226675
0.00205405
0.00425072
0.00655485
0.0074888
0.00343626
0.00742126
0.00729626
0.00534243
0.00588785
0.00745028
0.00481109
0.00752636
0.00251201
0.00547384
0.0074211
0.00391355
0.00747865
0.00740018
0.00313769
0.00365919
0.00738283
0.00316034
0.00746843
0.00473162
0.00277081
0.00621521
0.0040811
0.00741574
0.0058084
0.00585772
0.0043997
0.00459187
0.00250081
0.0019728
0.00714043
0.00262686
0.00213197
0.00262391
0.000558794
0.00202646
0.000686359
0.000902981
0.00663763
0.000891213
0.00306244
0.00450674
0.00411633
0.00353175
0.00392855
0.00413782
0.00695868
0.000745286
0.0066072
0.00737551
0.00628667
0.00544422
0.00358622
0.00321596
0.00735372
0.00540188
0.00454939
0.00408265
0.0073634
0.00405244
0.00610994
0.00106591
0.000825419
0.000560081
0.00747273
0.00717473
0.00752378
0.00341824
0.000804933
0.00412173
0.00301921
0.00158484
0.00490143
0.00347709
0.00313161
0.00395299
0.00182447
0.00177517
0.00749916
0.0058774
0.00728229
0.00436408
0.00746027
0.0045953
0.00599198
0.00674641
0.00497369
0.00475058
0.00112102
0.00487923
0.00465811
0.00298933
0.00754208
0.00113947
0.00681803
0.00726274
0.00682303
0.00741786
0.00738433
0.00743472
0.00668469
0.00709706
0.00679846
0.0062317
0.00725624
0.00445068
0.00428779
0.00728021
0.00731738
0.00567884
0.00715748
0.00711308
0.00316845
0.00467077
0.00755111
0.0070514
0.00386421
0.0019041
0.00648562
0.00446929
0.00392201
0.00726264
0.00697191
0.00288368
0.00741957
0.0052665
0.00741639
0.00288133
0.00086257
0.00452157
0.00748387
0.00192654
0.00745916
0.00659579
0.00399799
0.00503156
0.00745399
0.00562728
0.00740434
0.00744738
0.00482428
0.00420538
0.00439729
0.00427508
0.00679809
0.00716932
0.0042603
0.0071622
0.00737849
0.00444925
0.00629252
0.00556346
0.00711917
0.00571033
0.00390744
0.00220251
0.00718238
0.00080152
0.0073238
0.00233363
0.00501368
0.00358282
0.00358571
0.00713941
0.00252826
0.00725267
0.00380442
0.0073484
0.00101913
0.00100045
0.00743998
0.00341749
0.00437084
0.00408426
0.00445241
0.00464131
0.00461501
0.00410394
0.00523946
0.0074462
0.00334468
0.00509352
0.00701571
0.00332021
0.00489764
0.00674679
0.00101591
0.000347492
0.0071419
0.000520481
0.000416047
0.00409711
0.000441722
0.000663093
0.00696005
0.00449327
0.00479409
0.00471714
0.000989092
0.00406979
0.00696736
0.00681193
0.00504924
0.00494342
0.00427795
0.00435481
0.0008835
0.000775056
0.00146319
0.00543139
0.00122638
0.00440234
0.00652529
0.00738839
0.00637517
0.00739074
0.00424756
0.00479038
0.00284792
0.00519435
0.00748982
0.00454799
0.00607508
0.00455553
0.00731769
0.00562339
0.00532763
0.00524268
0.00562876
0.00346466
0.00296079
0.00584706
0.00433119
0.00732628
0.00109407
0.00286446
0.00255567
0.00740689
0.00272471
0.00275296
0.00374049
0.00747933
0.00473056
0.00731479
0.0051989
0.0035601
0.0034815
0.0045249
0.00387363
0.00662751
0.0024566
0.000941297
0.00733039
0.00189605
0.00611649
0.00187814
0.00712635
0.00679609
0.00742191
0.00519065
0.00658125
0.0032019
0.00590771
0.00719622
0.00746803
0.00739453
0.00478135
0.00280757
0.00455422
0.00748462
0.00621095
0.00654673
0.00652091
0.00611009
0.00510509
0.00498552
0.00309779
0.00472929
0.00372605
0.000699351
0.00586353
0.00515872
0.00661466
0.0074138
0.00184718
0.00174088
0.00468043
0.00695365
0.00451328
0.00473897
0.00708828
0.00181639
0.00748783
0.00253917
0.00263227
0.0030501
0.0061458
0.00302222
0.0075342
0.00494861
0.00507765
0.00734601
0.00746841
0.00695857
0.000865042
0.0057991
0.00257295
0.00736043
0.00178909
0.00725426
0.00616156
0.00247205
0.00264068
0.00510689
0.00739013
0.000632373
0.00660415
0.00619438
0.00670434
0.00691601
0.00739345
0.00262943
0.00300261
0.0073061
0.00671112
0.00525786
0.00743465
0.00171006
0.00740843
0.00576977
0.000496047
0.00492052
0.0074476
0.00068442
0.00142678
0.00745307
0.000278833
0.000308013
0.0049109
0.0073957
0.00677596
0.007536
0.00441682
0.0040576
0.00150252
0.0075164
0.00286827
0.00678207
0.00210207
0.00245963
0.00439277
0.00519436
0.00172684
0.00371906
0.00684837
0.00386675
0.00414378
0.00331928
0.00306654
0.00308983
0.00692943
0.00378075
0.00285665
0.00440771
0.00544568
0.00339915
0.004147
0.00717867
0.00280682
0.00389332
0.0046317
0.00293254
0.00351328
0.00547265
0.0049327
0.00657922
0.00202391
0.00512662
0.00704486
0.00726509
0.000304943
0.0044129
0.0058658
0.0005702
0.000760038
0.00748877
0.0048379
0.000245704
0.00214969
0.000923306
0.00227417
0.00315778
0.00059031
0.0061542
0.00711908
0.00591191
0.00336121
0.00336731
0.00333402
0.00734982
0.00321965
0.00551751
0.00435583
0.00691519
0.00443281
0.00449998
0.00208754
0.000653316
0.00302906
0.00333239
0.00423721
0.0070315
0.00348901
0.00733604
0.00600995
0.00566264
0.00531709
0.0071522
0.00206649
0.00471442
0.00726156
0.00180496
0.00201727
0.000943033
0.00144694
0.00412679
0.00759893
0.00490456
0.00742641
0.000959932
0.005025
0.00100462
0.00437073
0.00451708
0.00634448
0.0050505
0.0058708
0.0041646
0.00227109
0.00404124
0.0066237
0.00192749
0.00494317
0.00748656
0.00498714
0.0040728
0.000805485
0.00638931
0.00188791
0.00434546
0.00747619
0.00735937
0.00263127
0.00445833
0.00467297
0.00736631
0.00543942
0.00491996
0.00476683
0.00442855
0.00447895
0.00550041
0.00107667
0.000684654
0.00495523
0.000912593
0.00537927
0.00314653
0.00368947
0.00721636
0.00588251
0.00609327
0.00468168
0.00442792
0.00743013
0.000611969
0.0019181
0.00362676
0.00525455
0.00725406
0.00394505
0.00679955
0.00256562
0.00723548
0.00119781
0.00424246
0.00735189
0.00455764
0.00710894
0.00592004
0.00504098
0.00705964
0.00388831
0.00743106
0.00728743
0.00479052
0.00101838
0.00753109
0.000542965
0.00210191
0.00243837
0.00044609
0.00442354
0.00351505
0.0025617
0.00439572
0.000871224
0.000411225
0.000883279
0.00395655
0.00599575
0.00416425
0.00309536
0.000973192
0.00273049
0.0039137
0.00667471
0.00512078
0.0048135
0.00324187
0.00627992
0.00444146
0.00128104
0.00233396
0.00555511
0.00246582
0.00122722
0.000795049
0.00462382
0.000334621
0.00155612
0.000691332
0.000860075
0.00451345
0.00309605
0.00744539
0.00718528
0.00498371
0.000416313
0.00161887
0.00491792
0.00497161
0.0074709
0.000820684
0.000624446
0.00749934
0.002313
0.00388943
0.00746486
0.00227446
0.00747189
0.00752823
0.00488254
0.00501472
0.00168708
0.00699589
0.00751007
0.0059769
0.00536673
0.0053427
0.00118418
0.00182216
0.00743674
0.00148113
0.00713928
0.00745022
0.00735041
0.00186028
0.00465991
0.00207431
0.0030019
0.00654779
0.00742715
0.00149353
0.000770168
0.00484509
0.00417956
0.00181852
0.00560835
0.00561918
0.00318346
0.00292384
0.00294793
0.00259469
0.00240439
0.00115648
0.0074241
0.00125437
0.00662127
0.00401188
0.00748026
0.00214994
0.00286481
0.00752976
0.00233611
0.00138379
0.00421402
0.00166418
0.00556767
0.00666366
0.00499156
0.00355103
0.00499099
0.00348215
0.000779566
0.00522934
0.00321387
0.00182592
0.00181431
0.000724227
0.00177869
0.00425254
0.000578422
0.00740881
0.00721428
0.00413588
0.00245228
0.00406936
0.00160033
0.00145782
0.00336428
0.00628749
0.00522237
0.00335663
0.00367126
0.00404688
0.00413166
0.00132723
0.00426304
0.00568402
0.0021427
0.00163652
0.00225915
0.000554173
0.00403444
0.00538435
0.00387856
0.00406298
0.00541612
0.00740975
0.00338445
0.0038882
0.000866471
0.00309071
0.00517303
0.00383569
0.00656679
0.00356713
0.000868113
0.00463757
0.00220956
0.00670265
0.00227248
0.00286864
0.00376203
0.00548044
0.00533497
0.00358568
0.00150008
0.00404327
0.0017577
0.000753348
0.00578671
0.0073328
0.00615344
0.00122787
0.00611446
0.00179309
0.00670477
0.00174793
0.00151738
0.00307678
0.00377068
0.00435374
0.00746544
0.00515548
0.0032239
0.000940722
0.00243778
0.00063105
0.00745148
0.00268154
0.00317803
0.0023315
0.0040197
0.00283966
0.0017145
0.00167573
0.00401793
0.000824611
0.0039451
0.00414486
0.00493028
0.00559622
0.00453829
0.00521807
0.00148141
0.00390714
0.00388676
0.00586786
0.00670867
0.000816586
0.00176003
0.00077159
0.00186934
0.00135113
0.00210241
0.00403399
0.001399
0.00407479
0.00142525
0.00203373
0.00207035
0.00142238
0.00357926
0.00619408
0.004987
0.00752148
0.00167709
0.00377089
0.00364989
0.00495404
0.0016836
0.00667676
0.00462056
0.00688637
0.00746836
0.00298339
0.00229202
0.0030332
0.00396673
0.0067156
0.00235569
0.00739453
0.00361988
0.00333783
0.0071519
0.00277781
0.0017998
0.00528412
0.00262089
0.00445856
0.00246612
0.00208729
0.00298061
0.00327045
0.000224828
0.000501571
0.00166981
0.000380321
0.00349477
0.00397873
0.000571261
0.000511998
0.00615198
0.00120667
0.00343574
0.00428679
0.000482461
0.00266773
0.00700805
0.00327361
0.00182753
0.00705776
0.000756296
0.000358288
0.00249021
0.000800833
0.00238668
0.000970438
0.000717638
0.00612981
0.00470595
0.00279154
0.00171527
0.00385278
0.00718052
0.0024243
0.000664095
0.00667359
0.00176067
0.00521459
0.00216906
0.0070879
0.00645869
0.00211387
0.00214956
0.00441095
0.00196925
0.00585274
0.00111933
0.00741992
0.00715814
0.00311299
0.00190661
0.00500958
0.00747346
0.000795547
0.00138052
0.00182942
0.00378554
0.00367313
0.00226402
0.00106987
0.00456128
0.00103498
0.00185487
0.00638271
0.0035838
0.00225293
0.000922314
0.00270356
0.00212765
0.00604534
0.00666094
0.00239908
0.00445295
0.0029324
0.00534535
0.00740479
0.00724724
0.00493428
0.00217663
0.000713576
0.00507533
0.000488469
0.00485895
0.00481894
0.00319411
0.00647848
0.00408018
0.0052847
0.00549655
0.0019761
0.00667302
0.00155503
0.00752964
0.000382568
0.00115701
0.0017822
0.00201254
0.00512655
0.0056196
0.0035913
0.00678786
0.000732746
0.000711924
0.00350528
0.00204683
0.000866748
0.000907672
0.00233828
0.00115755
0.0004981
0.0038299
0.00706184
0.000446735
0.00431474
0.00569894
0.00481444
0.000735227
0.000588887
0.00441337
0.00484377
0.00146249
0.00221781
0.000854586
0.000741409
0.00337069
0.00105085
0.00111554
0.00346845
0.00488587
0.000923473
0.0066985
0.00106392
0.000233506
0.00743908
0.00548226
0.00443689
0.00640984
0.00311855
0.00349422
0.00731573
0.00307536
0.00419437
0.000996063
0.00182096
0.00583541
0.00136854
0.00570893
0.000381399
0.00696086
0.00390922
0.00220274
0.00684646
0.00105233
0.004126
0.00319778
0.00241817
0.00223682
0.00414327
0.00227077
0.00213948
0.000786354
0.00696764
0.00115312
0.000768294
0.00111569
0.00494218
0.00109485
0.00210819
0.00478632
0.00510765
0.00117783
0.00201823
0.00256842
0.000755044
0.00258862
0.00110644
0.00178039
0.00297164
0.00234732
0.000963003
0.00295162
0.00713932
0.00231008
0.00431015
0.00255768
0.0022525
0.000603677
0.0060695
0.00432585
0.00576603
0.00154459
0.00563948
0.000550541
0.00240331
0.0056329
0.00734926
0.00204402
0.00194919
0.000988716
0.00184898
0.00266071
0.00135642
0.001007
0.00444441
0.000925224
0.0017978
0.0032911
0.000526392
0.00138741
0.00309043
0.00308788
0.00561433
0.00177142
0.000540588
0.00198256
0.00213958
0.00260093
0.00712255
0.00217914
0.00554793
0.00380894
0.00626839
0.00124576
0.00209161
0.00155718
0.00460159
0.00184044
0.00440939
0.00276117
0.00132826
0.00193665
0.00246663
0.00267387
0.00629602
0.000416987
0.00154468
0.0017594
0.00142419
0.00227854
0.00635325
0.00111164
0.000453099
0.00172167
0.00332303
0.00296496
0.00252698
0.00248124
0.000977105
0.00615359
0.00140555
0.0017196
0.0066758
0.00152573
0.00351315
0.00263242
0.0029404
0.00156429
0.00245889
0.00718725
0.000666567
0.00346652
0.000678693
0.00270191
0.00477344
0.00297408
0.00228188
0.00161136
0.00345068
0.00455296
0.00329349
0.00141313
0.00470635
0.00536389
0.000597712
0.00744989
0.0041514
0.000818396
0.00431621
0.00265194
0.00137595
0.00250056
0.00114442
0.0046032
0.00019662
0.00157216
0.00101304
0.00226553
0.00135937
0.00351617
0.000946174
0.00140156
0.00128252
0.0036052
0.0040991
0.0073729
0.00421857
0.00406122
0.00293605
0.000617334
0.00389511
0.0062707
0.00569606
0.00586771
0.00364238
0.00433107
0.00746271
0.00747996
0.00309324
0.00097737
0.00740085
0.00289848
0.00234856
0.00559364
0.00719557
0.00294285
0.00299018
0.00746719
0.0063811
0.00352574
0.0037401
0.0072136
0.0039304
0.00106589
0.00401905
0.00446571
0.0063256
0.00748525
0.00144342
0.00525713
0.00657843
0.000768744
0.00115737
0.000970514
0.00731368
0.000914667
0.00046066
0.00719542
0.000301049
0.000828232
0.000538291
0.004039
0.00527487
0.00443799
0.00167817
0.00745498
0.00456669
0.00468772
0.00404036
0.00303598
0.00397966
0.00354867
0.00125406
0.00447456
0.00292136
0.000881537
0.00408859
0.000401827
0.00214658
0.00129863
0.00730328
0.00312219
0.0020511
0.00690589
0.0052955
0.00196627
0.00751293
0.00235673
0.00190705
0.000389149
0.0069445
0.00141864
0.00634576
0.00316739
0.00300602
0.00623372
0.00142753
0.00585805
0.00239144
0.00609708
0.00128023
0.000263175
0.00455975
0.00747941
0.000443444
0.00497006
0.000280193
0.0042799
0.00386912
0.00487425
0.00480387
0.00610721
0.00702939
0.00461536
0.00217897
0.00592401
0.00223354
0.00422199
0.00410827
0.00739471
0.00239317
0.000682733
0.00410214
0.00181141
0.00648136
0.00516366
0.00313549
0.00443633
0.004884
0.0063723
0.00246157
0.00270689
0.007471
0.00407185
0.00492655
0.00534273
0.00390173
0.00208723
0.0014667
0.00469513
0.00412023
0.00259738
0.00403618
0.00668743
0.0053959
0.00702537
0.00218315
0.00227861
0.00196317
0.00370828
0.00509755
0.00493661
0.0013757
0.00658331
0.00660429
0.00590712
0.00166027
0.00301238
0.00130114
0.00129601
0.00125
0.00407812
0.00533284
0.00524258
0.00487302
0.00697134
0.00127529
0.00494511
0.00723875
0.0044279
0.0033677
0.00492516
0.00113916
0.00501967
0.00239949
0.00276711
0.00358387
0.00664939
0.00497821
0.00400223
0.00401234
0.00522235
0.00315033
0.00388156
0.00302844
0.00413082
0.00509575
0.00488633
0.00231098
0.0020266
0.00550065
0.00439511
0.002594
0.00386692
0.00231654
0.00737839
0.00668469
0.00257358
0.00522183
0.00643861
0.00482807
0.00728385
0.00741485
0.00449258
0.00467236
0.00175489
0.00498855
0.00280987
0.00718332
0.00508287
0.000946997
0.00442913
0.00434227
0.00605273
0.00571815
0.00413805
0.00438017
0.000331876
0.00351228
0.00229562
0.00695989
0.00601844
0.00514906
0.00747026
0.00710053
0.00356181
0.00429331
0.00704264
0.00737336
0.00234408
0.000969359
0.00144191
0.00312218
0.00179812
0.00360784
0.00480869
0.00360972
0.00196551
0.00204737
0.00393416
0.00440734
0.000856195
0.00541149
0.00437986
0.00410883
0.00419707
0.00736239
0.000342687
0.00520653
0.0038308
0.00732525
0.0028477
0.00335762
0.000369594
0.000250186
0.00518373
0.0065997
0.00742507
0.00414128
0.00386209
0.0061695
0.000235148
0.00102544
0.00545135
0.00261584
0.00140981
0.00555225
0.00662431
0.00272598
0.00744636
0.00576298
0.00723922
0.00480913
0.00265964
0.00417102
0.00448742
0.00652036
0.00229263
0.00473523
0.0074359
0.0011675
0.00570084
0.00393543
0.00284989
0.000996009
0.00128965
0.00357535
0.00288321
0.00604478
0.00284873
0.00300488
0.00744536
0.000601243
0.0013703
0.00288094
0.00413975
0.00341738
0.00404499
0.00404796
0.00100123
0.0074822
0.00724534
0.00575389
0.00541003
0.00100545
0.00144814
0.00114729
0.00171768
0.00357462
0.00288634
0.00748022
0.00753975
0.00456343
0.00590408
0.00530498
0.00644168
0.00751357
0.0010687
0.000382668
0.00739282
0.0074372
0.00359949
0.00140738
0.00371433
0.00747225
0.00579296
0.00149679
0.000916425
0.00373567
0.001907
0.002292
0.00204557
0.000457035
0.00302985
0.00690264
0.0075177
0.00616597
0.000920601
0.00649504
0.00435756
0.0044971
0.00748075
0.000772305
0.00018382
0.000374974
0.00174562
0.00142231
0.00695147
0.00744069
0.00288847
0.00464226
0.000794204
0.000959917
0.000522133
0.00044229
0.000623576
0.0019402
0.00711071
0.000884417
0.00737358
0.000405486
0.00393371
0.000711508
0.00458223
0.00201962
0.00719748
0.00350217
0.00225093
0.00226757
0.00693977
0.00560168
0.00401101
0.00100343
0.00128449
0.00501099
0.00522008
0.00047418
0.000339387
0.00426953
0.00143517
0.000692649
0.00111496
0.0051966
0.00739864
0.000601397
0.000538716
0.00132888
0.00748783
0.00118873
0.00694916
0.000600912
0.00107944
0.000273763
0.00216815
0.00675486
0.0019439
0.00731528
0.00483701
0.00420233
0.00250206
0.00638896
0.00423193
0.00597989
0.00390774
0.00456328
0.00743738
0.00718325
0.00434443
0.00710034
0.00678281
0.00461052
0.00587786
0.00196305
0.00401362
0.00248775
0.00413439
0.00687839
0.00552168
0.000932856
0.00404125
0.00359982
0.00230035
0.000647087
0.00462544
0.00259899
0.0040757
0.00105342
0.00243612
0.00138266
0.00603143
0.00734091
0.00540996
0.003743
0.00644782
0.00368513
0.00345935
0.00417156
0.00724996
0.00529558
0.0065289
0.00498861
0.00338688
0.0052005
0.0038048
0.00072171
0.00389031
0.00428346
0.0046407
0.0031573
0.00119091
0.00222672
0.00439546
0.00520481
0.00338083
0.00102655
0.00112426
0.00446517
0.00344497
0.000373948
0.00159139
0.00208392
0.00413067
0.00153781
0.00326366
0.00409911
0.00359269
0.00115763
0.00483108
0.00420905
0.00284019
0.00682839
0.0023848
0.00293429
0.00331392
0.00341784
0.00197556
0.00465215
0.00590725
0.00749153
0.0022551
0.00351241
0.00445141
0.0019923
0.00555127
0.000984901
0.00297841
0.00344475
0.000434021
0.00205905
0.00721362
0.0035443
0.000784312
0.00170571
0.0024681
0.00742866
0.00291389
0.00133259
0.00658251
0.00755487
0.000691298
0.00212209
0.00156118
0.00193021
0.00664041
0.00506512
0.0012595
0.000495481
0.000785584
0.0051393
0.00612611
0.000566804
0.00731352
0.00199989
0.00306201
0.00143991
0.00138835
0.00691436
0.00369902
0.00111358
0.00410759
0.00456753
0.0051214
0.00370845
0.00557886
0.00108956
0.000300583
0.0042175
0.00364439
0.000469803
0.000611377
0.000676651
0.00251332
0.00115494
0.00224946
0.000569812
0.00355406
0.00354209
0.000790176
0.00247098
0.0025232
0.000507598
0.000825201
0.000352364
0.00743317
0.00708638
0.000411191
0.00633651
0.00432859
0.000749234
0.00604608
0.00298209
0.00508254
0.0034037
0.00512412
0.00678707
0.00049079
0.000372117
0.00176104
0.000643887
0.00241422
0.00423852
0.00446447
0.00508829
0.00335631
0.00564273
0.00635229
0.00464588
0.00551874
0.000422894
0.000403269
0.00521098
0.00208673
0.00633446
0.00389047
0.00305243
0.0036119
0.00374665
0.00519371
0.000516414
0.00128117
0.00435922
0.000591648
0.00285045
0.00129251
0.00251217
0.00382031
0.000925679
0.00284512
0.00120361
0.00217521
0.00293097
0.00293325
0.00680669
0.00134867
0.00746516
0.00626038
0.00277764
0.00438686
0.00150253
0.00353597
0.00196581
0.00350957
0.000837283
0.00421799
0.00350025
0.00373452
0.00742914
0.00356395
0.00407716
0.00169747
0.00054301
0.00347985
0.000638938
0.00347066
0.00506733
0.0019813
0.00512729
0.00580409
0.00561746
0.00320211
0.0012874
0.00239851
0.0015255
0.000661526
0.00193846
0.00520423
0.000167018
0.0010608
0.00576
0.00293229
0.00149233
0.00398731
0.000812373
0.000453351
0.0027123
0.00126019
0.00142633
0.00306704
0.000851503
0.00204008
0.00714484
0.00354733
0.00104609
0.00101088
0.00730878
0.0010284
0.00739838
0.0026816
0.00619699
0.0026831
0.00194426
0.00101765
0.00101791
0.00585221
0.00567645
0.000237036
0.00745249
0.00442127
0.00114876
0.0066038
0.00293543
0.00216956
0.00409193
0.000502587
0.00155767
0.000447666
0.00148996
0.00315505
0.00130182
0.00690248
0.00601357
0.00120914
0.00727674
0.00392827
0.00266225
0.0056012
0.00149842
0.000525128
0.00738468
0.00272324
0.0072953
0.000852475
0.00534728
0.000607774
0.00290502
0.00244877
0.00670145
0.00263481
0.00268853
0.00703516
0.00569627
0.00351546
0.00751155
0.00123855
0.0036395
0.00358654
0.00658405
0.00479972
0.00357627
0.00297425
0.00294422
0.00257956
0.00337299
0.00463926
0.00484383
0.00174325
0.000601832
0.00078419
0.000756295
0.00127487
0.000868879
0.000829075
0.00336142
0.000276653
0.000560611
0.00128868
0.00228236
0.00288548
0.000770042
0.0010294
0.00244437
0.00127232
0.00216943
0.00647202
0.00289723
0.00120005
0.00422316
0.00037377
0.00282936
0.000356102
0.00216374
0.00119058
0.00141198
0.000680076
0.000563337
0.00212761
0.000476799
0.00279599
0.00195515
0.00496626
0.00179627
0.00553675
0.00660334
0.00103
0.00361484
0.000877795
0.00153544
0.00547294
0.00238588
0.00488994
0.00128329
0.00104349
0.00736669
0.00557969
0.00178175
0.000901757
0.00377977
0.00278113
0.00118095
0.00116477
0.0054213
0.00735319
0.00398637
0.00469682
0.000730248
0.0075279
0.000962887
0.00032953
0.00545354
0.00305802
0.00490116
0.00450795
0.000718584
0.00280545
0.000730814
0.00379967
0.00534639
0.000552949
0.000797598
0.00611082
0.00247031
0.00612336
0.0071522
0.00114108
0.00271764
0.000739795
0.00423685
0.00694279
0.00231746
0.00663824
0.00644123
0.00597311
0.00520979
0.0027908
0.00223185
0.0013935
0.00342889
0.0012653
0.00388117
0.00731809
0.00220141
0.00130149
0.000835554
0.000929173
0.00127362
0.00204827
0.00103446
0.0010492
0.000803996
0.000962384
0.00330229
0.00302786
0.00419042
0.0014465
0.00472023
0.00309864
0.00333895
0.00170822
0.00055128
0.0034915
0.00276011
0.00350029
0.00551631
0.00343797
0.00536882
0.00620922
0.00528282
0.00289779
0.00324564
0.00281493
0.00625528
0.0030858
0.0013211
0.000803852
0.00449896
0.000624371
0.00735304
0.00375041
0.00738756
0.00465423
0.0010415
0.00275249
0.00128578
0.00384928
0.0041476
0.00405146
0.00463456
0.00549606
0.00303281
0.0035599
0.00363904
0.00699514
0.0009037
0.00332714
0.0014721
0.0029631
0.00112338
0.0067874
0.00468709
0.00356252
0.00406794
0.00298848
0.000980674
0.00712905
0.00489792
0.000624658
0.00247844
0.00243184
0.00312027
0.00244453
0.00274195
0.00213947
0.0057268
0.00716578
0.00681338
0.00204809
0.00184863
0.00531988
0.000393815
0.00548394
0.00179734
0.0070538
0.0069285
0.00203753
0.00441294
0.00635646
0.00112286
0.00741494
0.00430525
0.0016952
0.00206606
0.00742982
0.00131448
0.0070053
0.00697207
0.00130164
0.00383675
0.00289754
0.000865893
0.00749125
0.00181455
0.00155577
0.00175224
0.00105572
0.0011945
0.00565929
0.00579779
0.00294099
0.00624588
0.00223425
0.00300776
0.00635017
0.00702415
0.00348766
0.00128822
0.00301661
0.00445381
0.00219978
0.00346282
0.00227951
0.00738516
0.00210159
0.00135878
0.00374723
0.00442414
0.00552524
0.00570002
0.00378105
0.00436406
0.00228963
0.00401411
0.000566249
0.00457447
0.00714755
0.000992019
0.00287634
0.000693735
0.00094102
0.00577753
0.00401162
0.00134937
0.00310072
0.000383115
0.00151915
0.000676857
0.00169551
0.000429941
0.0029505
0.00164102
0.00173682
0.000612708
0.00111198
0.00303568
0.000555597
0.000366313
0.00191944
0.000333635
0.000890219
0.00157234
0.00136978
0.000547892
0.000934019
0.00750047
0.00378995
0.00102421
0.000860279
0.000997274
0.00145805
0.00160331
0.000754072
0.00295524
0.00374987
0.00467127
0.007309
0.00326617
0.00708663
0.00108218
0.00301828
0.00443843
0.000760015
0.00402781
0.00233787
0.00516845
0.00683474
0.00322631
0.00484178
0.00179855
0.00724783
0.00218977
0.000602915
0.00548787
0.00739857
0.00388191
0.00571018
0.00131245
0.00294328
0.00599843
0.00652676
0.000625954
0.0070901
0.00457215
0.00704562
0.00192661
0.00342861
0.00460559
0.00627022
0.00562154
0.00143868
0.00396127
0.00254603
0.00719351
0.00732485
0.00731646
0.00424412
0.0048725
0.00371882
0.00665976
0.00353735
0.00373997
0.00301511
0.00121737
0.00133576
0.00374189
0.00203519
0.00433727
0.00276671
0.00350903
0.0037621
0.00701398
0.00319167
0.00434132
0.00653811
0.00204344
0.00474757
0.00307993
0.00120433
0.00496275
0.00286992
0.00140355
0.00401761
0.00120098
0.00203414
0.00111362
0.00038239
0.00289453
0.00593997
0.00234046
0.000493567
0.00317513
0.00711342
0.00695199
0.00655524
0.00398108
0.00478324
0.00742345
0.00743032
0.00417832
0.00303672
0.00740924
0.0071287
0.00749217
0.00606885
0.00322591
0.00194016
0.00315353
0.00655013
0.00404504
0.000940344
0.00599269
0.00659638
0.00354923
0.000531288
0.000704785
0.00376233
0.00537917
0.00556951
0.00334478
0.00392763
0.000610517
0.00202844
0.00531976
0.00409213
0.0072816
0.00381563
0.00199409
0.00377993
0.00330412
0.00395559
0.00140762
0.00197953
0.0014845
0.00106755
0.000329826
0.00170466
0.00194691
0.00409125
0.00413368
0.003604
0.00331735
0.0068888
0.004611
0.000459757
0.00741299
0.00186113
0.00115982
0.00341424
0.00303425
0.000305605
0.00206591
0.00439995
0.0039322
0.00750374
0.00311352
0.000965492
0.00393447
0.00179979
0.00393947
0.00291612
0.00063475
0.000901431
0.00374839
0.00362523
0.00113637
0.00517146
0.000718445
0.000702533
0.00128129
0.00741986
0.00729411
0.000269296
0.00679121
0.000495401
0.00227587
0.0033824
0.00117835
0.0010059
0.0070265
0.00745944
0.00100995
0.00706704
0.006635
0.00542621
0.00726541
0.00442768
0.00426998
0.00241686
0.00648876
0.000363957
0.00330151
0.00537305
0.00407051
0.000322319
0.00438165
0.000568727
0.0053999
0.00402093
0.00404094
0.00118387
0.00564288
0.00452616
0.0054815
0.00087572
0.00215422
0.00214927
0.00153709
0.00291415
0.0069251
0.000857666
0.0031318
0.003365
0.00316659
0.0054035
0.00331043
0.00378691
0.00727198
0.00040311
0.00154768
0.00483166
0.00546045
0.00209227
0.00498449
0.00294139
0.00356996
0.00569251
0.00238414
0.00526024
0.00584644
0.00435868
0.0014116
0.00485527
0.00523246
0.00545844
0.00367272
0.00710229
0.00538675
0.00629989
0.00282573
0.00471573
0.00274646
0.00259292
0.00399801
0.000494971
0.00566327
0.0034148
0.000997905
0.000789214
0.0014006
0.00393346
0.00270977
0.0019728
0.000346659
0.00400391
0.000888897
0.00404155
0.00737758
0.00294342
0.00181626
0.00393083
0.00562244
0.00735002
0.00610011
0.000338772
0.00603
0.00706977
0.00264428
0.000491769
0.00047988
0.00418833
0.000275272
0.00096801
0.00109153
0.00129881
0.000735269
0.000381378
0.00568592
0.000862526
0.00406229
0.0068598
0.00389045
0.000461964
0.0021592
0.00707282
0.00658852
0.000949407
0.005452
0.000477756
0.00694733
0.00295211
0.00561527
0.00300243
0.000634914
0.00730758
0.00320116
0.0028962
0.00641508
0.00373426
0.00681322
0.00296567
0.00058021
0.000576584
0.00061485
0.00165558
0.0016475
0.00685868
0.00700126
0.00587342
0.00374075
0.00734517
0.00174547
0.00749581
0.00104999
0.00423345
0.00719725
0.0065614
0.00480398
0.00716321
0.00387094
0.00308556
0.00732773
0.00324949
0.000937699
0.00673616
0.00123635
0.000906887
0.00670053
0.00027042
0.000544928
0.00288814
0.00298261
0.00426668
0.00133035
0.00443979
0.00217084
0.00183735
0.00617699
0.00174884
0.00692687
0.00239187
0.00460495
0.0025629
0.00197665
0.000717149
0.00333176
0.00407801
0.000727594
0.00153746
0.00221098
0.00114494
0.00565121
0.00136197
0.00444612
0.00196003
0.00299133
0.00608
0.00135363
0.00266084
0.0026928
0.00656604
0.000627828
0.000903645
0.000420191
0.00657936
0.00480811
0.000998802
0.000634143
0.00250947
0.00428135
0.00253564
0.00124115
0.000662344
0.00204207
0.00605363
0.00309757
0.00443659
0.0059299
0.00406229
0.000639403
0.00624107
0.00212376
0.00318121
0.00716752
0.00267333
0.00276609
0.00674815
0.00421041
0.00354216
0.0023178
0.00103474
0.00490164
0.00198563
0.00246282
0.00213077
0.00304751
0.00201539
0.00169828
0.0036637
0.00663004
0.00635153
0.00641815
0.000735902
0.00422266
0.00110109
0.00378688
0.00445884
0.00594616
0.00362732
0.00715601
0.00253115
0.0074777
0.00254448
0.00241894
0.00365314
0.00486597
0.00243929
0.0035921
0.00320254
0.00446333
0.00295933