/*--------------------------------*- C++ -*----------------------------------*\
| =========                 |                                                 |
| \\      /  F ield         | OpenFOAM: The Open Source CFD Toolbox           |
|  \\    /   O peration     | Version:  2506                                  |
|   \\  /    A nd           | Website:  www.openfoam.com                      |
|    \\/     M anipulation  |                                                 |
\*---------------------------------------------------------------------------*/
FoamFile
{
    version     2.0;
    format      ascii;
    arch        "LSB;label=32;scalar=64";
    class       volScalarField;
    location    "0.0263738";
    object      omega;
}
// * * * * * * * * * * * * * * * * * * * * * * * * * * * * * * * * * * * * * //

dimensions      [0 0 -1 0 0 0 0];

internalField   nonuniform List<scalar> 
47425
(
54.6879
69.3208
68.5073
163.892
127.834
71.6505
88.3217
103.903
49.4317
534.395
141.972
51.2424
65.7536
76.5344
89.5333
92.5523
65.6817
52.9377
1111.29
172.544
85.9223
47.3539
107.283
63.6413
49.5652
47.0588
74.8018
662.903
67.9861
56.232
48.1031
50.0706
48.3134
63.3586
52.4921
67.8589
47.419
68.0359
64.5327
74.5756
73.934
56.6969
79.7975
145.13
1643.63
109.748
97.5284
79.0574
77.8959
49.4661
570.911
189.766
49.9026
786.01
116.234
123.792
47.1282
56.1741
83.741
62.4212
1077.99
1102.42
811.535
49.6719
49.4217
48.7588
64.7531
64.4662
769.046
50.4721
76.8275
50.7571
49.2961
87.8379
654.479
49.4701
783.507
80.5338
1370.07
232.14
685.645
63.0835
47.8507
49.1963
47.7732
82.9393
53.4649
49.8768
89.5654
378.382
48.6851
79.2832
47.7719
116.392
149.471
196.784
50.3768
50.2437
84.4402
81.4501
63.3766
91.1211
51.5266
104.022
50.0114
54.3243
47.9022
90.4353
46.919
49.6249
253.71
62.7996
60.4611
156.021
51.2506
909.418
50.7108
231.725
82.8054
57.5621
77.4056
48.6855
60.9796
60.9624
99.9662
58.6677
84.2387
49.2375
108.481
47.7941
48.1546
101.453
136.861
125.104
53.4602
62.3742
50.1025
60.3294
68.641
98.6266
72.5032
135.801
72.2872
72.5326
54.0878
49.3634
98.4067
64.4691
154.281
73.1302
70.07
481.734
49.0528
683.184
50.3304
84.9989
57.5699
885.244
96.6156
76.3393
51.6385
47.7047
50.0528
48.9448
375.713
814.67
48.6154
656.418
107.473
672.147
650.152
89.0973
74.4548
49.0611
75.5763
69.3892
707.531
66.3768
53.0518
47.4743
980.993
47.7143
58.3018
48.2302
48.4524
53.0455
56.3281
85.2985
148.549
52.9949
48.2597
66.6802
74.7196
77.2258
49.4136
50.5538
62.1264
73.5731
51.1559
77.5104
67.5704
123.176
47.5471
50.6945
53.1777
159.219
51.4341
50.5305
90.0725
48.7892
63.22
62.2779
48.6485
89.3166
61.4564
60.8289
67.0988
239.272
51.3966
96.702
256.16
107.903
65.5878
91.0273
167.808
214.724
49.3425
128.617
54.101
62.8666
63.7655
74.2213
109.081
49.3445
166.757
95.4028
286.111
118.602
237.663
181.721
82.7297
54.51
47.6534
102.738
47.7526
50.0756
65.1139
62.3114
47.13
74.2573
46.5686
192.64
65.338
49.3419
91.8923
47.2984
47.9938
124.087
94.2466
48.7812
129.311
48.9577
75.0716
136.426
65.0433
93.6864
47.9815
65.3496
59.8934
82.4499
77.4534
209.284
282.554
49.8401
195.446
181.153
196.205
122.747
267.567
179.248
1117.1
52.8138
1039.88
127.525
79.453
82.5962
108.098
89.25
93.1045
52.5286
589.68
49.118
50.3451
55.3573
64.3372
103.097
114.757
47.8232
65.2031
58.5577
93.6116
48.4401
90.9907
57.8242
743.285
1001.35
663.938
47.3531
49.1919
47.4361
105.065
660.287
87.1419
120.117
207.129
77.3244
106.451
125.87
89.76
349.995
184.449
47.7633
59.6882
47.968
85.815
47.1836
75.9435
58.3521
52.1698
70.9288
74.4844
533.062
53.6048
75.4912
129.876
47.554
559.732
52.9042
48.4068
51.8325
48.5525
48.7672
46.8929
53.8104
50.1145
52.1418
57.3018
49.638
79.3345
88.2523
49.261
49.4277
63.0207
51.4881
50.0897
53.3299
78.0871
47.7886
51.8605
94.471
62.4788
58.1154
83.4028
92.2048
48.1264
51.1921
134.601
48.835
67.8465
48.2197
134.496
786.092
76.3013
48.5102
200.281
48.6443
56.6411
97.0758
72.7313
47.496
64.2258
48.7197
46.6625
74.2954
89.4058
83.1103
85.1616
52.3837
50.038
84.7764
50.4161
49.2466
82.5597
55.5454
65.3499
50.5037
62.0993
91.8089
66.1127
49.037
464.228
48.2969
330.691
73.9602
108.839
106.88
49.2737
146.558
47.9579
96.7079
49.0078
705.902
331.312
48.2573
51.9976
79.9114
85.092
79.9814
77.1657
75.4275
91.0803
68.9016
47.1138
103.352
68.2958
49.7486
77.9292
72.2418
53.7421
146.592
1147.48
49.7589
287.322
936.724
92.1908
975.589
868.815
50.8574
77.7031
73.2021
74.3774
617.254
93.1997
50.8843
51.9009
70.7772
72.1433
82.4659
81.1223
425.072
651.899
145.445
66.0763
74.9632
88.6385
54.1705
49.5406
61.9859
49.3588
84.8802
75.9203
132.753
68.1683
49.3629
77.0853
59.3805
81.6765
50.0216
62.8452
66.3647
67.9063
63.8152
111.064
127.312
60.0397
86.8546
49.7159
453.044
132.305
74.0685
48.7316
142.027
194.791
50.3393
47.4227
50.6194
49.8597
68.359
51.4639
111.895
76.3138
50.19
53.4653
152.942
100.304
47.624
54.0742
58.2371
58.1589
49.2653
51.677
47.2621
67.4401
56.8674
113.766
59.3381
48.4783
47.6149
49.7625
75.2099
131.191
49.2305
47.4946
57.289
53.624
53.716
58.2687
73.5991
70.9504
53.0425
76.9874
101.06
415.211
61.7733
69.1038
55.8741
49.3854
117.502
118.087
80.5629
51.2569
84.606
92.2024
50.6488
128.995
48.663
227.394
54.0909
54.5613
58.2311
115.131
46.8916
71.9601
71.1809
48.3337
46.6879
50.5144
1106.09
60.7172
154.095
47.7836
92.4721
49.6021
57.6062
79.3913
71.7558
70.8046
47.6553
415.451
53.1115
56.982
52.7676
50.8935
47.7388
60.302
103.112
50.7358
52.3757
68.0933
47.5209
208.171
48.1846
61.5485
505.204
73.2784
47.276
377.538
528.512
48.1467
645.689
695.08
70.7223
49.0374
51.8325
47.2238
88.1013
93.1238
449.69
47.6718
133.77
51.6736
98.5312
59.1025
86.5351
69.2333
474.488
221.443
52.511
92.4114
84.6267
83.8111
124.563
128.659
51.9068
97.4085
133.164
79.1162
68.978
125.305
53.5048
50.3987
126.289
96.5667
76.4544
127.511
105.221
63.9673
73.8338
58.0476
57.6478
70.8069
50.613
48.792
1346.52
61.4246
70.0892
1049.94
1010.45
46.8986
79.469
1631.26
175.695
92.046
250.377
119.605
744.914
56.8373
50.2021
61.2703
153.863
114.171
113.04
48.176
121.446
64.0895
80.6309
52.1697
82.6781
56.6052
349.099
669.072
125.079
54.5249
87.6216
48.6931
111.67
49.0927
59.9657
64.2058
67.7101
49.0235
188.957
77.6696
48.1008
75.0261
193.804
863.47
201.855
90.5391
48.2708
75.6822
47.6835
860.461
70.441
509.577
86.3051
97.8305
61.2125
71.4295
62.1653
83.6494
58.3729
88.2513
52.5676
210.728
80.9153
49.2619
68.0794
91.2668
1052.32
60.7819
206.414
64.2475
48.7644
47.3006
149.142
79.1248
68.2129
48.6337
65.2205
62.5472
75.501
81.031
79.7071
63.9037
123.576
194.367
71.9639
97.3456
65.9517
116.915
93.2687
48.5282
65.0151
57.3079
73.6118
80.3905
47.9565
305.168
395.267
98.3236
68.0807
48.7115
93.582
51.9227
141.353
50.9444
221.574
85.0782
47.7202
79.005
49.6039
59.1221
70.5912
50.0186
90.3096
48.5613
48.6287
51.0191
169.563
46.5912
390.441
204.015
237.346
351.37
82.7915
147.115
58.7957
52.3733
144.446
348.154
368.342
91.3446
58.3615
101.661
122.225
157.74
134.956
95.4097
52.9171
68.8777
88.4406
118.144
58.5324
86.2013
357.175
61.2797
64.4939
153.615
121.437
115.57
116.519
654.432
445.023
227.819
253.492
80.7217
122.245
47.6248
48.7947
74.1153
394.465
189.397
73.4885
75.0866
47.5828
356.957
349.645
46.9645
173.317
92.2931
47.3095
170.436
47.0413
47.0719
72.3324
73.8685
89.7857
50.6024
47.5087
59.2161
71.0316
69.5211
144.452
100.009
46.7431
257.923
49.5303
47.1355
47.7613
204.243
81.4445
254.178
117.697
53.3073
48.6256
70.0629
1114.49
74.0431
85.6005
79.76
66.3151
63.466
121.836
124.637
128.071
348.192
87.2639
723.074
49.4532
70.0097
53.5108
64.2866
47.3583
170.806
131.602
47.3792
380.559
106.343
67.183
247.121
72.4888
53.3791
73.4687
68.3225
71.0038
108.278
371.158
67.1813
71.7358
211.151
226.058
658.499
221.639
91.9341
185.103
48.5092
49.49
96.8694
144.525
88.976
85.7509
95.9898
104.659
50.2757
66.2482
109.955
102.317
92.6001
206.377
745.094
92.7245
77.5253
116.08
576.396
221.316
218.295
95.5066
67.3802
96.877
95.4955
110.676
47.8145
51.4644
97.1219
418.071
118.895
69.6079
97.4477
53.3238
111.033
131.807
78.6542
401.402
52.9334
66.8899
131.388
97.4659
65.9463
67.2065
104.944
100.825
95.6593
64.2869
134.625
50.0546
48.5411
50.6668
88.6008
57.2832
150.192
53.871
225.285
298.406
206.738
92.5024
83.7874
48.728
70.3944
116.595
470.525
219.447
859.202
48.1292
59.8155
55.6181
260.35
86.6352
308.853
241.504
236.061
103.364
253.366
89.3992
83.1885
71.6972
50.9489
91.1464
69.6012
73.8134
175.604
80.2704
59.7319
53.0972
267.505
427.921
152.296
183.144
626.246
193.55
95.1365
76.8704
85.355
108.308
187.029
190.605
643.053
50.6037
57.871
70.5707
48.8453
66.5069
103.18
97.0241
54.5547
110.619
53.226
78.556
51.8619
48.2402
126.29
64.211
124.732
49.7962
48.6459
164.225
48.9121
94.1771
104.032
48.632
63.431
120.535
71.0283
64.3488
78.7348
384.035
187.182
126.627
109.036
1836.19
987.427
559.668
408.705
107.93
53.3656
1037.37
404.515
55.4386
68.0363
109.943
88.5786
361.205
140.792
51.0902
116.655
58.7454
50.1372
206.235
887.75
140.721
1185.31
150.964
249.552
1049.88
57.3628
80.5652
134.783
237.704
96.782
52.0553
51.9696
830.729
56.6077
327.87
67.6204
167.55
49.7624
55.4334
490.548
491.303
86.8943
58.4144
70.4411
395.488
48.303
48.9397
394.129
519.59
74.141
48.3575
1032.51
834.882
466.88
101.58
182.745
420.33
473.853
78.3839
103.149
96.9561
59.1407
101.735
480.193
1400.39
63.4466
62.1915
60.7846
51.1798
52.1801
81.1746
136.199
67.2284
49.5691
48.7197
71.4781
390.669
1081.77
51.1572
235.602
94.4325
72.798
170.543
54.1615
89.4166
68.3719
52.5111
202.475
52.3835
478.488
47.4092
782.537
536.271
397.966
206.199
79.8783
65.9075
106.922
52.1813
203.031
1398.23
107.605
359.321
192.231
433.192
145.117
794.736
588.306
95.2183
50.1323
1440.87
82.5737
49.825
73.8882
504.424
998.976
80.2858
53.3945
448.698
82.9205
751.66
724.031
111.073
127.569
905.325
106.474
51.333
606.571
51.6907
744.573
1020.34
49.2209
65.5614
82.1539
56.0728
127.608
98.9683
49.9207
125.845
90.8847
121.299
59.7757
48.0686
150.699
105.574
662.791
54.6476
98.1039
197.809
49.2646
778.988
86.3646
117.85
153.011
520.741
87.4879
662.162
183.823
139.781
57.3766
1005.09
216.223
239.642
81.5497
155.665
61.9146
76.1031
66.608
317.715
276.442
103.808
690.244
150.256
101.791
269.946
131.217
148.548
761.267
227.846
49.1905
156.968
84.324
148.46
279.201
932.482
58.4204
50.2233
62.6263
623.916
63.8671
331.13
62.5278
63.7876
49.0541
132.973
59.9214
209.427
285.589
55.1638
64.7412
95.2497
80.4259
966.349
261
110.243
709.214
328.017
122.048
174.727
64.6626
59.8457
986.365
59.419
562.725
239.918
51.1374
61.3229
77.9646
96.1591
57.4344
72.1417
116.701
83.7892
76.8837
69.5942
81.038
184.313
68.0248
201.165
159.711
176.837
56.0259
713.08
390.447
60.6262
513.769
325.548
55.7107
115.802
522.478
228.529
51.4491
158.092
299.046
172.43
397.892
57.1698
543.094
103.88
53.2323
68.5788
112.909
163.954
129.843
67.9656
246.339
48.9966
279.39
111.414
1150.1
147.31
74.1865
123.216
235.785
59.0025
193.29
96.0367
108.55
695.812
76.0498
71.7503
959.772
47.1209
91.7958
392.804
60.3366
254.424
859.01
154.94
79.941
78.4288
944.637
247.928
379.254
240.912
79.4679
66.715
104.784
574.141
882.478
229.252
91.1147
49.0743
87.8872
88.7997
131.693
328.754
95.9058
57.3643
60.6284
59.8841
50.1826
88.6489
49.7764
49.2578
124.334
93.0905
48.1442
132.855
212.701
64.9411
49.6292
134.887
62.0419
48.7812
55.1716
105.583
98.8228
50.4638
98.1814
567.135
91.1093
52.6266
55.4744
47.3654
206.246
66.9823
54.0044
590.19
929.396
283.755
49.6087
633.355
155.399
49.6426
909.532
103.454
904.021
93.4951
68.7315
85.2787
69.7216
47.8744
85.2197
87.4721
94.9619
115.482
88.9773
106.584
150.494
82.7221
76.8864
421.951
88.7304
1230.53
71.7787
641.858
48.8117
121.825
187.449
51.7362
69.6516
193.408
47.1783
350.869
305.085
1248.92
56.0624
619.107
55.5335
114.789
148.997
56.4492
534.479
65.4244
262.813
57.1362
686.153
676.72
80.5355
47.0192
318.831
73.3183
305.644
82.1237
98.3461
72.2733
72.9599
57.4571
51.0999
80.5249
248.704
70.2442
180.501
87.8471
86.3032
48.6536
156.91
405.87
91.1445
250.481
61.6567
67.7929
121.732
83.7816
74.0944
56.8171
157.306
132.599
48.6894
85.8165
71.2485
70.9086
95.3725
307.341
324.846
81.5186
94.368
249.919
88.6108
52.8967
65.032
49.9821
176.011
169.023
204.082
107.022
71.5017
71.6339
69.0279
53.9045
53.0397
61.2224
446.61
131.169
634.281
472.352
592.597
56.7002
66.1363
66.783
71.3552
51.7435
293.619
74.5915
48.5817
82.2595
110.375
71.9107
277.304
70.1636
158.937
102.765
102.563
52.1634
71.354
91.2045
93.3118
67.4262
118.283
92.6869
158.147
84.2412
70.3081
77.8654
154.378
176.875
63.8326
85.3053
132.965
100.001
171.791
48.35
52.2716
134.898
66.7931
54.8051
78.6512
48.9978
48.2306
79.2707
78.3741
372.369
71.7246
87.0232
48.7137
70.1526
642.284
82.8481
87.2576
58.0966
63.398
91.3398
88.0187
919.493
108.457
269.489
50.2829
59.3653
73.4744
47.7186
50.7913
109.989
85.1856
50.4823
48.1587
277.99
106.551
471.488
123.847
225.183
106.492
72.7851
111.468
480.19
184.672
90.3874
80.0496
912.23
64.5105
82.3948
92.2588
87.0182
48.5327
952.639
67.5402
96.5558
49.3439
128.524
59.6143
935.534
1013.98
68.1305
53.1358
47.7371
94.2035
98.6761
57.8108
1175.54
781.118
64.1317
142.492
407.41
63.2217
69.7927
110.554
47.4763
60.9881
49.5715
74.4314
180.868
88.8836
80.0436
49.5808
60.9599
76.279
48.7624
272.903
63.7785
123.078
139.876
382.958
284.475
105.546
134.813
70.4055
133.2
124.569
48.7789
579.259
294.223
131.283
92.8734
106.501
94.4703
92.8101
313.832
47.4102
48.2653
63.0415
66.8256
133.065
82.3346
366.613
421.77
51.1197
131.534
48.3889
48.767
80.1878
61.7141
68.618
54.7173
47.2114
317.438
403.495
48.4564
47.4404
164.974
922.504
54.4633
46.6534
72.4617
152.519
902.839
92.7611
354.34
283.813
321.35
354.13
73.2057
51.2617
47.1369
58.9456
933.787
54.3031
85.8311
82.9438
47.0308
582.329
999.144
980.152
208.389
275.93
51.3198
48.3725
55.2409
82.1989
624.232
562.14
359.575
549.092
374.544
61.8928
50.0355
823.055
48.6496
902.7
95.9588
897.634
81.9433
134.32
50.5543
150.799
169.424
170.685
53.386
64.4161
91.3602
80.4462
67.2653
72.4459
69.652
1142.73
660.304
88.226
316.644
510.353
295.56
69.0289
48.9241
473.089
510.633
455.079
49.0231
867.201
51.5533
967.647
899.714
476.744
250.349
52.2017
60.0698
48.2935
74.1655
86.9191
152.023
63.9039
83.3912
58.6578
96.6563
78.3996
47.5119
49.4242
110.113
49.382
51.2761
80.8724
60.0258
88.2319
91.89
158.974
92.889
51.1993
78.2876
110.495
84.273
96.7935
129.318
1178.86
58.1455
327.647
66.5995
96.5296
316.967
74.9803
56.307
48.2054
86.1117
96.7455
54.3671
99.5995
103.926
84.6583
50.6708
66.4022
53.3816
70.8358
112.239
70.54
101.98
300.192
91.0554
83.5871
76.9937
115.228
88.244
298.46
49.1638
68.1695
110.76
280.218
290.402
79.6568
108.786
929.009
244.888
189.666
92.2713
74.5518
115.071
89.3586
52.9911
139.775
79.9344
89.1709
327.636
53.3778
166.253
123.405
117.595
107.925
204.231
79.9184
60.4572
47.8837
56.8642
98.1774
82.8818
575.453
63.6866
91.195
129.4
104.968
872.71
59.9662
50.0116
105.602
281.395
363.012
156.399
48.9475
136.187
68.9661
52.3385
47.648
515.113
104.276
62.7132
354.764
55.8694
70.0045
158.528
722.307
932.937
79.9819
68.4925
895.958
48.3736
157.77
115.462
521.849
315.418
52.6773
97.313
528.69
94.1353
64.335
68.4946
102.622
56.3453
68.5247
366.977
50.4692
102.449
500.055
149.949
557.903
82.3759
416.44
55.4463
1097.22
106.764
106.396
559.005
201.599
255.28
412.395
402.415
291.143
47.7754
49.7935
378.372
58.3412
87.2412
362.132
63.1748
62.7717
70.7941
137.597
72.2824
52.7823
722.248
374.314
145.263
368.35
168.301
89.9084
84.0407
77.6821
116.258
63.8498
55.8984
82.9873
62.4728
304.125
322.147
72.5849
57.8614
57.018
75.7912
110.625
108.158
99.6841
76.9452
344.5
62.8441
65.4907
374.537
132.886
531.67
164.502
95.5029
666.894
139.858
115.569
321.479
135.427
129.012
52.3677
782.61
47.5991
55.7742
56.9914
88.369
71.5332
104.259
190.62
106.806
142.571
83.4537
113.597
102.184
47.0775
274.446
97.1919
536.1
1275.65
101.441
360.207
106.94
70.3652
631.071
68.5874
60.3813
74.6198
100.058
634.551
299.911
56.6488
309.68
327.766
68.0538
1834.9
375.674
78.8902
318.861
65.3848
89.6167
235.818
363.747
148.92
726.69
59.5103
54.3448
157.493
57.2949
50.4872
107.63
302.698
488.572
47.679
146.78
48.7973
147.244
60.5033
147.324
284.839
90.9615
263.321
61.4102
63.9404
758.795
48.206
54.0202
121.142
54.6908
130.598
303.148
51.2611
945.138
512.793
854.623
469.907
119.501
71.0112
51.36
58.8239
84.9408
48.9771
90.1508
151.152
63.7438
76.9167
618.935
48.3359
150.695
49.6505
132.696
66.7641
709.807
128.179
91.6385
48.6084
137.906
152.638
50.8872
58.6166
102.1
46.6731
206.697
93.6832
107.722
57.7345
49.8829
104.859
52.2642
130.755
271.606
50.4374
69.2731
51.1267
67.1759
425.365
229.906
137.6
406.115
786.893
348.222
77.8469
557.397
460.208
659.969
70.2593
186.75
363.528
297.243
262.509
930.005
59.809
51.2915
185.342
738.531
55.7783
359.313
103.889
369.046
76.3439
75.0891
554.609
467.877
383.724
61.5444
309.14
131.249
505.061
48.9629
214.041
64.3905
54.4949
99.8713
98.8267
305.657
116.232
65.3345
164.322
74.1065
234.218
332.767
50.4053
68.4944
59.7015
923.007
81.0843
132.724
159.078
140.953
64.6136
49.1753
94.3701
74.5746
378.579
47.8766
107.199
332.947
66.0019
53.9767
74.0173
71.2644
572.83
139.831
195.393
91.0195
66.2085
1063.44
1180.99
59.0805
149.709
58.9486
50.2299
384.134
77.3607
493.945
56.6117
51.3331
98.5794
59.6266
53.2848
60.676
66.9071
139.432
202.578
276.407
225.971
71.6258
79.6237
49.0286
173.219
545.812
873.747
75.8013
561.594
189.065
615.74
84.7271
382.102
111.392
140.417
130.806
87.1957
273.701
72.1784
175.261
111.213
62.2702
1006.98
107.898
587.113
108.176
64.5811
111.079
82.7344
62.3678
67.0861
252.862
109.022
123.825
55.5516
122.821
538.146
132.291
79.3679
165.601
50.6982
60.5256
48.4944
78.7744
80.816
150.98
74.5249
99.5478
84.748
71.8065
80.9469
62.9331
74.5427
60.1661
211.271
55.2357
106.63
53.6799
70.8797
129.757
82.033
51.6882
82.0283
100.079
92.9792
130.857
332.02
49.1351
116.666
330.904
159.317
156.316
53.9929
157.135
86.7164
267.423
62.7082
51.9189
54.882
143.981
61.4546
65.3619
814.853
115.486
328.796
51.0067
50.7892
172.812
82.6981
56.9342
126.091
49.2824
84.6585
58.8293
356.726
47.9461
154.853
50.9015
51.6653
78.2011
66.102
133.884
107.325
47.3616
252.529
68.9199
74.1982
92.2439
745.169
63.8931
62.6101
131.277
61.5502
57.2212
128.692
55.9462
50.8109
107.777
190.791
127.452
87.5728
366.618
111.178
296.911
48.9748
182.548
68.0111
96.1215
113.102
53.9486
74.5519
63.5275
82.5149
163.992
67.3729
560.903
100.005
50.0202
475.579
131.746
1449.19
305.702
94.6453
87.9653
101.079
122.459
390.895
66.2728
439.965
92.0562
356.702
68.1065
348.115
69.829
235.715
217.499
129.882
380.536
427.033
609.027
1266.21
532.034
755.433
292.439
380.783
357.973
48.1357
98.9511
309.885
71.8852
584.397
60.5895
443.396
594.397
126.452
103.609
78.5129
47.5284
115.417
49.6682
257.348
134.897
86.1354
179.969
88.1096
157.647
68.4549
55.1819
114.969
53.3644
222.674
48.8066
70.6536
688.123
63.8722
48.8892
93.8609
61.8724
523.902
223.19
70.7211
58.5734
174.944
49.6602
76.6013
53.5499
55.8729
105.234
79.8682
56.679
62.4659
306.128
86.9043
61.2179
51.3049
48.899
49.3403
106.675
74.7366
100.072
53.2242
74.9385
97.8628
54.8937
243.747
76.9216
52.761
62.8985
85.5688
144.211
112.483
100.51
51.5885
121.178
86.2927
56.0254
58.1838
80.2197
78.0968
98.3441
73.8199
131.116
68.1168
83.4648
117.613
262.318
691.809
1094.79
129.232
60.1237
373.872
173.768
120.934
50.5962
51.1848
49.0693
88.3677
76.2605
48.3207
49.3484
52.7724
116.71
49.037
49.6202
48.7309
58.8565
165.351
58.7561
119.427
54.6488
90.5688
268.352
58.3892
54.906
63.5104
1010.31
1017.69
100.187
68.1552
66.3638
60.3664
79.7835
497.089
68.1012
68.5979
92.6382
50.3963
94.541
56.4319
75.7282
115.362
89.0776
65.9084
207.152
232.118
68.0716
1988.19
191.577
203.744
61.9128
86.0396
102.837
118.21
51.4094
76.8601
318.29
48.5631
201.488
549.998
109.734
127.784
520.978
71.7285
79.9846
94.9859
47.5949
124.74
376.459
95.6863
87.9017
341.803
197.443
1150.76
589.698
96.989
51.1505
143.312
67.9241
180.368
143.764
524.835
49.8619
48.7073
586.732
52.9887
202.416
74.1108
107.259
618.427
811.674
50.6909
48.1139
857.439
50.5473
53.248
64.5562
48.6198
85.0794
103.684
243.627
57.4547
546.667
109.097
51.3473
85.8767
682.478
83.8585
610.084
66.035
59.2749
88.6021
88.5113
62.8032
93.2143
63.3049
548.032
108.081
110.852
450.792
125.022
53.6002
564.832
101.665
111.5
79.1245
98.1073
111.881
75.2267
50.6498
256.345
72.647
73.838
63.6044
111.194
72.5022
60.8816
51.0818
62.2602
156.022
67.5981
61.322
84.3348
405.95
73.4089
68.0969
65.1192
97.5558
49.7818
66.8134
58.3428
135.138
84.4465
143.996
151.726
88.1656
391.688
61.1302
58.9633
373.576
331.542
546.591
90.8297
383.975
58.1361
412.913
96.4419
323.379
97.3485
48.7929
116.475
209.975
96.2146
63.7654
50.2457
58.2461
448.042
58.8701
51.3633
57.8145
2013.5
378.173
49.6861
1508.5
448.981
324.563
175.601
1463.48
320.664
68.8796
346.777
93.0763
52.4821
396.867
932.908
67.7823
50.5019
53.6313
524.971
51.4395
909.776
56.1026
131.392
86.6314
129.608
331.591
49.6387
117.971
123.759
55.9435
106.977
51.429
126.895
1868.14
1922.55
742.663
95.4585
442.011
48.7047
50.0026
59.2794
101.586
48.3825
57.6559
48.4912
74.3204
91.523
49.3742
53.6123
77.7675
49.7702
96.5802
123.098
49.6088
117.923
135.32
49.3768
58.7879
866.394
57.2389
811.007
609.073
132.385
136.705
82.035
125.404
63.7493
56.882
359.037
57.5017
62.9233
53.8071
56.4422
77.8027
140.342
105.62
184.056
112.962
52.1192
523.061
64.9359
285.442
254.208
64.1763
875.406
74.3618
60.5775
61.3209
58.9762
72.2038
52.9588
124.801
54.8937
389.294
205.48
368.583
56.2389
57.9703
83.3006
349.776
322.926
82.7983
148.513
65.9829
372.274
65.7451
81.8477
460.558
87.8763
55.1263
93.2049
1083.37
58.0676
60.3651
122.81
51.28
138.452
135.271
59.8026
83.8385
243.497
173.339
771.233
73.0491
388.513
310.132
308.228
55.7675
182.35
104.227
105.567
54.0188
56.6703
58.8357
473.546
83.4589
99.5489
157.82
79.3936
60.8852
97.4811
50.5059
147.517
48.5109
64.5185
169.797
105.433
78.4433
171.224
101.609
86.3249
80.2467
129.36
48.227
246.207
364.349
111.486
76.5909
48.6014
222.023
58.7656
49.3876
87.4668
50.1031
110.141
91.399
49.0723
51.8316
103.092
222.777
205.894
49.6482
762.021
47.8683
98.5296
93.3113
48.445
746.642
151.445
658.453
50.5917
69.5383
517.513
660.352
92.5962
102.286
196.624
128.332
56.0698
81.7186
62.37
149.31
83.1075
136.471
50.0086
137.286
103.142
113.758
57.3266
90.6732
47.7202
62.7194
558.171
233.577
100.717
56.8831
107.698
88.5357
89.186
147.538
49.0018
52.6031
63.1826
89.6043
86.2892
65.663
115.609
58.6025
56.0455
54.7091
70.9479
59.8066
61.7218
166.487
77.3933
68.8455
1381.34
80.2833
64.8499
81.4172
48.0101
86.4512
211.204
51.0479
81.6931
81.3993
1002.41
65.0424
61.1669
95.725
1481.85
96.2439
154.778
126.203
69.1174
48.6139
73.0796
67.0791
804.859
98.4937
68.8674
66.3363
50.497
254.742
51.2753
641.68
268.2
112.3
76.706
60.0413
110.227
91.1684
60.5346
433.389
121.019
322.549
49.0349
140.65
658.894
119.676
52.566
103.629
53.7626
719.378
62.3047
57.5987
91.5421
47.2638
59.4799
86.7081
51.5275
220.879
50.1254
346.841
48.1216
79.5076
65.2323
151.316
90.4986
131.371
106.701
556.247
102.567
124.815
76.4177
49.566
102.562
59.3771
54.7338
79.9301
76.0048
63.0574
127.605
48.1568
63.4072
49.7653
274.46
86.7006
519.762
524.42
297.107
162.679
65.7825
69.8903
60.0766
194.662
92.7327
50.2318
50.4831
113.954
123.449
50.5038
75.6741
1060.3
104.147
67.1822
72.4226
637.677
842.877
61.028
525.64
556.15
212.859
287.507
170.544
469.239
72.8256
228.005
736.716
73.8186
47.5032
58.4546
99.0549
319.473
50.0557
49.2129
68.9559
151.297
156.785
1100.52
113.331
951.79
119.53
67.7976
87.957
77.1586
66.6016
577.345
93.2018
298.426
481.261
65.2508
638.969
2091.87
62.9384
127.676
102.246
431.152
154.489
120.986
707.53
1019.43
98.4659
564.334
129.599
373.71
82.6868
49.9929
154.547
700.425
633.824
61.9383
109.863
150.772
96.0867
233.64
53.9837
66.288
892.926
310.569
410.892
47.6876
397.216
66.3571
379.004
62.5812
106.5
194.93
326.645
87.0641
109.644
330.081
100.533
620.325
76.5665
63.3694
344.688
50.7209
152.362
48.909
53.7981
48.4651
83.9054
405.516
455.828
327.375
61.9569
66.0268
268.591
61.9497
420.548
68.6782
55.6629
83.0001
186.099
153.918
581.301
51.0728
76.3624
68.014
306.956
105.666
567.532
862.641
432.93
105.05
65.1915
375.545
386.656
156.415
53.0539
64.9108
47.6095
732.983
238.698
363.455
2004.55
239.054
97.3576
83.0645
744.199
398.219
66.6376
90.6945
103.544
415.33
57.959
50.1976
91.0303
74.5659
630.89
329.967
235.501
158.841
256.92
380.758
168.775
96.0854
804.152
436.618
684.699
210.726
327.749
592.651
158.834
61.4771
104.087
58.8171
54.6976
72.826
72.8202
148.524
258.922
86.4798
179.416
182.415
147.197
75.4336
186.378
103.871
77.4012
129.779
684.921
1080.34
497.398
69.6588
120.135
77.9841
241.149
546.41
155.855
432.098
77.0964
402.891
315.833
187.307
49.6281
49.5572
71.2804
65.017
613.369
89.3545
57.5217
449.518
72.5373
773.055
410.371
99.5108
418.274
60.9552
47.6237
49.87
48.0531
101.123
68.8466
94.1727
135.183
74.9182
48.9906
163.742
571.498
500.278
48.4317
107.003
54.8323
66.4101
54.458
579.413
54.5883
53.4205
54.5747
100.833
49.8379
53.5372
93.4861
54.7719
57.4642
57.7313
231.593
48.6525
63.1664
119.334
409.953
418.429
65.5133
652.062
541.362
57.9745
57.3633
163.348
72.3849
267.271
85.1614
93.6679
81.9309
245.434
72
92.4459
996.555
404.72
101.86
597.206
51.1627
49.2367
65.8534
48.9868
47.8846
73.3101
56.425
76.1285
192.145
79.6767
416.135
147.81
300.392
81.3909
47.0821
635.023
131.272
86.1844
557.236
104.494
635.13
72.451
444.965
48.5295
173.313
87.9814
248.865
49.5273
88.1516
79.6235
633.542
49.2255
47.2657
85.4548
81.4507
123.682
59.2501
64.761
91.806
51.3387
130.179
52.1853
64.3541
148.349
90.1702
185.281
66.6769
49.5077
60.4917
47.9167
55.3699
180.306
47.0938
89.1839
47.4336
234.659
120.598
55.2216
115.982
112.004
60.4677
82.753
68.3935
131.266
159.857
54.8948
49.5087
89.4504
75.3256
401.786
546.164
483.509
63.9515
51.219
56.9991
62.8169
88.868
826.528
237.006
64.9261
55.4384
71.191
50.2016
50.3326
75.6985
142.395
178.367
456.902
237.052
57.7125
77.546
82.3025
47.0817
253.323
73.9635
93.9158
115.587
55.4432
953.254
77.1675
56.5178
68.9746
68.5066
161.105
447.872
48.068
408.766
58.6092
750.481
112.665
500.072
72.2823
50.8042
59.0559
105.212
54.2399
48.9124
126.032
47.4287
49.3304
52.8143
61.7701
210.869
62.2092
739.928
76.6925
60.2038
140.985
171.59
48.6515
463.467
925.873
731.958
538.379
438.296
53.2531
406.164
353.101
81.9783
59.6969
55.9049
670.281
92.9772
98.8622
49.3335
73.9224
260.358
700.213
156.27
83.6491
47.0054
67.0298
239.4
50.8937
56.8752
545.584
482.011
260.236
721.164
76.8197
48.0216
71.7702
81.6755
1106.71
50.4606
48.8238
47.7695
300.861
48.3839
55.7667
97.2191
100.073
47.9324
109.69
49.8655
149.51
78.7759
139.583
58.8279
211.189
92.6167
115.024
181.555
113.49
223.537
55.1046
622.481
93.159
334.557
329.514
385.459
84.1456
103.16
192.57
73.7808
47.454
52.6898
52.3496
88.8978
567.535
119.775
48.836
84.806
63.2174
49.5495
119.259
59.7806
136.892
99.7259
51.1333
102.525
54.614
75.6242
276.186
522.82
68.6461
101.464
81.5173
105.995
530.101
242.009
536.265
837.776
143.613
51.3997
52.5529
48.5143
107.537
824.834
81.7894
789.43
134.904
49.8354
119.949
382.242
50.8152
50.5481
57.2479
76.5976
56.4562
234.126
71.2662
91.3713
254.362
49.3955
100.108
60.0925
130.192
72.8786
56.6032
629.429
80.4753
117.411
59.3418
85.7712
48.7748
112.484
123.289
94.5576
95.0327
75.6245
63.485
68.6877
55.7086
232.692
57.9129
55.5204
118.628
225.894
236.544
64.2216
94.8881
115.79
170.784
71.0596
314.812
70.2493
140.788
104.286
65.5692
160.869
85.5764
72.6271
292.929
101.035
52.8459
50.1693
307.129
91.3439
104.806
54.5417
114.831
87.8892
49.2259
96.5736
378.615
87.3732
72.216
90.0926
632.799
72.3576
91.2122
149.586
61.8287
159.54
53.5809
708.024
84.6552
80.4654
86.6336
57.0998
118.543
56.801
462.372
47.3226
77.2537
612.447
58.6859
115.264
207.015
102.569
51.9354
525.707
56.4297
48.3596
94.2583
135.045
55.5816
300.304
47.8185
376.977
100.683
48.3475
78.3259
120.008
698.66
183.659
72.5111
50.4284
130.959
371.693
450.627
119.117
126.149
981.658
208.767
292.854
131.72
85.9998
105.508
60.1229
526.433
986.786
153.383
176.506
100.589
910.161
485.23
446
407.079
169.893
64.4122
55.8839
152.862
73.8464
539.865
331.608
81.7355
744.968
110.153
58.0964
66.866
52.4758
108.887
89.1902
92.5284
79.7634
143.439
184.592
858.182
57.5363
119.418
638.198
597.446
182.32
180.892
67.1799
679.975
47.8777
65.7074
366.064
148.481
48.8432
309.184
405.045
68.7523
125.54
51.8797
100.952
56.8146
81.0166
175.624
87.6562
581.148
47.7275
56.2909
90.7846
470.595
171.625
124.554
169.979
238.195
123.119
76.4232
387.061
110.128
73.3595
236.205
768.507
276.671
58.3506
345.281
160.469
89.658
67.4697
127.367
49.5699
101.214
82.6585
78.2088
72.2064
60.9941
88.257
48.9752
47.6418
49.4821
101.076
52.4481
160.943
420.63
701.801
97.3251
80.2993
58.983
54.688
105.947
637.927
55.1573
147.109
74.7147
201.549
60.7576
103.938
105.444
377.865
49.5663
56.1654
246.453
53.7069
72.5981
103.674
64.7776
355.212
82.19
355.591
383.604
249.512
612.375
182.44
384.95
83.9888
123.229
145.932
57.1832
394.263
111.69
88.2317
153.851
87.2922
80.7079
48.2119
59.0631
52.499
47.5789
87.0468
305.505
48.0109
871.279
114.756
318.876
118.999
332.447
1829.45
57.5807
265.058
1171.69
112.493
338.806
79.9448
70.9446
747.797
974.085
265.408
163.278
58.6024
322.743
104.133
548.232
54.3364
58.5512
220.429
990.381
62.6736
79.265
55.7173
200.979
416.72
53.2637
470
250.394
535.053
686.429
55.1264
297.169
66.8883
587.201
395.356
228.91
351.821
200.934
423.938
274.102
241.731
77.3125
72.8716
70.8794
55.0765
57.489
1282.57
70.1008
101.671
70.8226
76.435
109.064
936.535
119.965
251.108
307.268
123.759
308.454
131.114
46.8675
70.6448
900.341
536.474
228.996
191.291
217.202
81.253
440.339
56.8916
223.534
241.03
58.5876
471.578
112.848
263.851
351.436
122.287
161.609
167.737
118.164
53.602
143.711
66.6836
493.528
69.3037
183.399
78.5512
239.65
62.165
69.5666
360.023
127.153
284.511
48.9619
1038.2
48.796
60.4687
53.5005
59.7202
85.1108
478.779
134.874
60.1242
615.614
77.7167
51.8086
63.6648
822.668
49.4872
90.5015
832.47
186.479
848.808
387.677
130.691
157.278
178.307
194.048
712.719
69.7345
309.195
113.205
64.9248
182.759
67.9231
121.246
66.6057
615.995
411.211
502.254
323.598