/*--------------------------------*- C++ -*----------------------------------*\
| =========                 |                                                 |
| \\      /  F ield         | OpenFOAM: The Open Source CFD Toolbox           |
|  \\    /   O peration     | Version:  2506                                  |
|   \\  /    A nd           | Website:  www.openfoam.com                      |
|    \\/     M anipulation  |                                                 |
\*---------------------------------------------------------------------------*/
FoamFile
{
    version     2.0;
    format      ascii;
    arch        "LSB;label=32;scalar=64";
    class       volScalarField;
    location    "0.0263738";
    object      p;
}
// * * * * * * * * * * * * * * * * * * * * * * * * * * * * * * * * * * * * * //

dimensions      [0 2 -2 0 0 0 0];

internalField   nonuniform List<scalar> 
47425
(
1.08972
1.11838
0.138152
-1.0318
-14.8004
0.17869
-13.0044
0.105039
14.116
-29.7377
-0.0463713
14.8487
-9.18419
0.00384784
-0.543739
13.5063
0.115011
27.5597
-96.7801
-26.3216
6.06884
16.6972
-0.087354
0.673329
15.6614
0.755731
0.0295359
-33.8752
0.0536247
0.041373
16.5415
13.6963
14.4647
0.0822685
0.197398
-0.00142545
17.7816
14.424
7.32438
0.92597
1.31646
0.716753
2.73083
14.4224
-35.8835
0.905152
0.100418
14.1768
0.825796
0.245781
49.305
1.44294
-0.101141
-25.4509
0.97126
9.4355
1.12119
0.235123
-14.1179
0.091185
-27.6244
-28.2314
-65.3917
21.6046
13.7938
3.98016
14.2852
-0.351167
-43.7433
23.912
3.98859
0.526109
2.30494
7.57314
-52.1057
13.6846
-65.9422
0.0915322
-108.833
-16.0827
-56.1286
10.5798
22.7439
13.3017
1.15789
1.2903
1.71134
0.440619
-1.03088
-21.6103
16.2099
3.11017
0.202212
1.22764
1.19283
0.805482
0.239865
1.01979
1.29006
12.8674
12.7695
25.9354
10.4787
47.5157
10.1619
1.39066
1.01878
1.00944
0.99879
14.7398
-47.3895
14.0498
1.16976
1.27606
0.568407
37.4115
0.837825
51.685
9.25133
-1.06784
1.29089
14.5771
14.0492
-4.67505
12.2826
0.815782
0.911061
13.7063
0.305907
0.424006
22.2481
0.950682
57.9434
8.45182
0.806907
-5.68828
2.54718
0.787425
12.1822
0.527244
14.4046
-7.64667
6.95862
1.02149
12.0871
13.7597
-12.3582
13.8283
7.27186
14.6626
1.35468
43.8133
13.9244
1.02784
22.5227
0.723747
6.29993
-107.039
1.00743
0.192791
-0.238153
0.737893
0.480082
12.0489
-40.4527
-75.0221
13.8302
-51.8587
0.542577
-36.962
-53.3945
0.911789
13.4264
19.7525
0.679455
14.1392
35.4122
0.0058812
0.0712795
0.273844
29.8316
0.729546
0.126517
0.144355
0.0664763
13.0704
11.3427
52.4459
0.420321
0.981213
14.4443
0.456632
-8.94625
14.6133
0.421199
-0.020575
14.5615
0.741104
-0.543253
0.989709
-0.0283498
1.81441
1.1888
0.35546
10.5102
2.67731
-0.0232517
0.69015
13.2384
13.5794
0.724882
0.17951
13.4568
0.849749
1.93564
-1.42611
2.50306
-13.1891
22.434
14.8478
-18.2226
-1.44528
3.17385
2.49017
3.37946
-16.2679
0.01809
-0.982964
-1.80421
-6.28939
3.49391
0.358465
1.53861
14.6118
-0.0521996
13.2791
-20.649
0.709372
-18.4565
-0.223085
0.175433
0.208427
0.173623
-5.70761
8.97064
13.7567
0.960409
13.6802
0.362613
0.0939009
0.894135
-14.2884
0.0097275
14.7035
-0.143211
0.324612
16.3343
-0.076266
7.56818
13.4467
0.286998
14.4079
10.6597
10.619
-6.02473
1.03342
0.248611
-5.89746
0.268029
10.9537
11.3218
-18.2084
-20.3406
11.3732
-16.0121
11.0351
-16.7823
32.1264
-18.6177
36.925
-26.7385
1.16593
-31.594
1.30859
0.343188
-0.784706
0.532324
0.166102
1.29585
0.64166
59.2228
20.8722
13.6917
0.0475329
0.128611
9.52869
-5.07352
10.9962
14.2252
-6.36065
1.0822
0.641034
0.228804
0.0613152
-68.2046
-78.5727
40.4733
0.213622
0.76317
12.5248
13.3903
51.9641
-0.220476
0.0811202
-9.28088
1.33159
0.116041
0.794578
0.157182
-38.1125
-9.31918
13.0136
12.6285
-0.254311
0.865385
-0.0474764
12.4305
1.01297
0.453763
0.184167
-2.7883
-67.2401
9.24919
0.10735
14.573
-0.263334
-66.3382
14.2055
0.487777
0.541826
13.1309
12.9322
0.877853
14.9633
0.405046
0.156571
0.293111
17.8101
-0.0148726
0.239835
13.6749
8.46538
13.8399
14.2555
13.5883
-2.06097
0.12168
21.4105
13.7549
13.8716
16.2106
-1.85323
0.338787
0.19684
9.22435
1.3121
0.196557
13.898
14.4383
11.1035
0.437922
-32.2839
1.78887
11.9826
13.8353
12.0178
0.0794154
13.4899
13.5747
17.252
13.3119
11.8643
0.585974
14.3392
1.00074
14.1533
-0.00650085
11.4727
14.3356
0.178991
7.82498
9.02427
-0.0715425
7.74463
0.849823
8.39232
14.2327
0.0812878
-11.6182
0.105939
-22.4536
0.241004
-30.1003
0.147081
4.04921
0.274894
0.134939
0.118587
0.0475031
-0.0822324
9.18437
-81.5639
60.95
0.63306
8.79406
7.28844
5.94728
0.525459
0.220092
0.316204
0.219554
0.537653
1.50709
5.56958
0.0221619
-0.0655147
-2.98185
-1.22649
0.711651
21.297
-76.2337
1.26442
31.0133
-73.2281
1.21299
-78.5296
-26.0142
0.645576
3.11525
4.11919
0.769742
-81.2349
0.736626
0.70884
0.236637
0.441916
2.40971
0.804849
0.913891
-16.9946
-76.4382
-17.7316
14.3965
23.8679
-0.176273
0.937358
2.30097
-7.32719
2.638
14.4286
14.6377
14.7067
7.88581
14.5889
0.410038
12.0373
0.20826
0.885398
0.456409
0.553855
14.3169
14.4927
13.5431
9.1291
12.8601
0.879082
1.63248
-16.6712
13.1551
-9.13255
14.4497
0.297663
-0.429528
14.8171
0.786753
13.054
14.0155
13.4816
11.6514
0.443885
0.98777
13.6074
1.28905
11.8046
27.2207
0.460115
15.173
13.369
17.1317
0.917341
0.282421
0.737381
0.150025
2.48753
0.059846
0.129374
0.542008
0.805531
0.846576
0.0845773
0.0538497
26.3616
-0.0623676
1.09914
0.886932
0.799637
0.35145
-0.0620513
12.8615
10.3216
13.6325
13.6521
49.5392
-0.134126
0.0575788
13.9967
14.3136
-17.9495
-21.5385
0.0522376
0.803988
1.10254
-4.90406
13.1529
-22.8295
14.577
-51.3301
29.7108
18.7461
0.100155
-17.3347
0.142122
0.983527
-0.244548
0.992333
0.0464672
0.701888
-69.0605
0.234013
-0.00545351
0.139022
-17.5117
0.40677
0.107029
-17.2256
-13.1946
-0.115922
0.206482
-40.6013
0.486426
0.877683
-0.00591048
0.412355
0.28011
-9.36339
-5.91356
20.2125
0.897658
0.890062
0.218093
-24.4165
21.0593
0.8791
-41.3221
-0.129035
0.116978
-43.3935
-33.0664
15.2898
-40.6892
-40.7654
0.15908
14.3545
0.148374
18.4824
13.6502
-0.0123646
-41.3508
13.0492
0.176662
0.470869
-15.3972
-8.85682
14.5485
8.6777
-56.5768
-18.6864
4.14739
-0.0493379
0.947947
8.13336
-0.0155756
0.763608
13.5655
9.77126
14.6289
0.155631
13.5314
-19.6535
8.31286
5.89966
-21.7104
11.4699
0.325502
7.27155
11.9565
0.184839
13.9464
0.276865
32.4733
13.3273
1.12987
1.05725
-102.822
8.3501
-5.51561
-34.3596
-36.5144
0.124283
1.29692
-36.9637
-0.237613
8.97542
-7.49369
14.1073
-32.9549
0.446134
0.170892
13.5731
-24.4611
14.6934
14.7155
0.486072
0.0468645
0.766646
0.0039525
0.639419
1.09593
0.323558
-23.7079
-41.7606
3.3264
13.2528
0.270088
19.2634
12.9714
14.5337
14.5581
14.6118
14.6791
22.7992
1.71993
14.615
10.6604
-10.2686
0.318562
-80.6322
-19.9618
-0.0562638
20.2462
6.80912
0.0246361
-87.21
0.046085
-51.8122
0.640681
-6.66843
-8.20585
0.590752
15.1639
10.4764
30.2096
0.205977
0.395215
1.22022
-9.11814
14.6518
-10.6698
1.5548
-89.5107
-6.81189
1.47286
-8.84517
14.4512
0.864143
7.08984
1.27389
-9.97697
14.4972
13.3428
-9.42309
0.210706
1.35259
0.17507
0.381992
35.1419
34.328
16.0542
22.1637
0.158395
0.0718227
6.33629
1.20037
0.438501
0.229025
1.0021
0.332866
0.829705
38.0901
-3.56429
0.239279
13.3698
0.594702
0.568279
0.766453
0.11249
-0.570079
-17.4274
0.816732
0.190941
-0.148781
0.523291
16.6108
-0.194277
1.38969
0.564901
0.583225
0.53859
21.607
42.1963
0.805351
-42.842
-2.69452
-24.3892
-41.4394
1.22368
1.55582
10.5666
-0.138682
48.2917
-43.2563
61.0253
-5.19782
2.59623
-9.74846
0.421401
60.5439
7.53863
1.80079
0.674017
0.543519
-5.09109
1.22193
1.11631
0.656965
-46.4063
30.6164
13.7628
14.2105
50.0024
46.2771
-5.92891
-53.6834
-10.0121
52.6164
50.065
14.0404
0.374046
19.5131
0.461737
7.86753
-40.6217
6.91278
7.20369
8.58865
0.264773
-43.3898
-43.8391
0.186492
7.32242
0.597356
0.309614
8.53061
0.21292
18.0308
-0.0390536
0.343333
36.9584
0.131377
-0.48308
-0.0357132
0.370642
0.119384
56.1887
-15.7785
0.124014
9.92445
0.573133
17.2727
17.4777
-8.60907
0.250089
-53.3927
-9.61613
7.71391
4.4408
29.7218
-60.421
0.352855
0.109812
-11.6767
1.02034
14.1794
2.81098
-0.0660148
14.7447
-61.0433
-14.7233
-58.5111
14.6854
31.5023
0.531084
-7.49556
18.8215
-9.16462
0.0664664
20.5471
-62.0844
-14.6498
-10.0285
-48.8545
-9.12961
1.18524
0.272556
-8.69921
0.199467
-10.1863
-45.2436
-0.0343016
-12.19
0.964768
0.695416
-35.4803
0.911299
1.31578
13.8842
17.3543
13.8747
-17.4208
-1.3094
1.00884
-11.6153
50.3762
1.47158
17.3198
0.846008
0.71206
1.19906
1.38006
-16.2445
-89.1939
-6.98394
2.00761
-12.0234
-12.2856
-13.1201
-2.27041
0.832298
14.4089
14.5332
1.16675
-1.97162
17.8486
24.1553
14.5169
-43.624
-9.79445
1.33806
0.450025
0.313405
0.808821
36.5256
13.9893
-7.1401
0.172235
9.89948
14.1234
14.0392
13.7282
13.4073
14.4583
-21.5991
-6.28567
23.5152
25.2251
18.2927
9.09765
-0.638084
40.2229
1.29552
-4.53511
1.30288
-8.93807
-22.786
-0.791494
0.848822
14.5619
17.5117
14.1918
0.958675
-52.0761
-21.0585
-34.2975
11.4549
-5.86117
9.47633
-46.4266
1.11108
-53.1521
1.24308
1.59006
-3.42025
3.45516
0.749311
13.5448
-0.0125044
4.6461
-4.84065
0.676431
4.01615
-18.7093
-11.9995
0.650347
18.2695
56.2216
-72.9946
41.4673
-18.1662
-45.6982
0.221578
0.539609
22.7201
0.616335
54.6974
0.460955
-0.0531829
-75.5519
14.8376
3.28364
0.283621
14.4894
27.6151
12.9272
0.308873
13.3031
-11.2205
11.2127
15.1497
15.1057
14.5359
0.488354
-6.83742
-6.27921
31.4037
14.8479
0.81424
11.9079
0.526703
0.454616
8.55917
-6.69076
-15.7821
-5.44124
-4.17754
14.8964
-28.7836
0.758627
0.176874
0.337847
-85.8456
-63.9021
-15.3456
-39.0156
1.19505
-1.51895
-32.1986
-41.4409
-2.47229
9.57722
0.551181
1.22137
-25.1915
6.22372
0.33013
0.81397
13.9353
2.58338
38.542
-93.0526
-8.86448
-23.7407
0.781999
58.2565
-84.4714
0.90889
12.5571
3.80249
-32.814
12.6368
-2.43981
18.5532
-20.3243
1.99829
-20.3965
3.73599
-4.956
1.28063
9.1293
-16.8403
-16.6753
11.8982
19.2069
-6.41918
-43.4351
10.8014
0.902288
-14.6073
-27.9022
13.0704
9.75918
-51.894
-71.9667
-31.9881
11.4899
-1.54632
-10.2468
-34.7262
11.42
23.2659
-18.8019
-4.62644
-2.86774
-14.98
-33.5317
0.538696
14.0015
13.8439
16.3727
13.6385
11.2288
-12.0061
14.4917
14.5992
15.199
1.03872
-63.2412
-29.971
13.5934
40.8132
-12.6321
13.302
-35.6803
7.34375
11.3279
-4.77167
-2.33876
12.4645
10.4366
-38.3787
15.0294
-25.0049
-79.8731
-32.8265
11.7562
-4.48023
13.5036
0.767882
0.980453
-10.4645
-33.5797
0.520187
-57.8931
-28.9078
63.4006
-17.3435
-67.973
-22.1384
-0.0151145
0.970462
-36.6229
0.69932
18.6253
-0.0758065
-45.6063
-32.9152
-0.0600651
3.67478
-28.9315
-18.9185
-38.4022
51.383
0.730366
-12.0992
-78.0891
-0.0244486
23.8965
-20.3376
17.8049
-91.8352
-22.2576
12.6404
0.0625925
0.293547
2.0874
0.687978
2.94103
1.6327
0.858125
9.28699
40.099
14.3046
27.0574
-25.2482
-0.710845
23.4111
-0.573497
1.38175
-6.2232
15.4035
-57.1645
0.790118
1.00559
0.648056
-26.7896
1.14649
-84.7371
0.313312
14.5237
5.01418
-92.5821
55.9495
-46.1949
-14.8406
41.3163
2.41407
14.0225
-5.25001
-21.0894
-54.3386
-19.1937
51.8189
13.9316
-9.49837
-50.9693
-5.66046
0.048656
-31.7868
-20.6697
1.13324
-8.35575
13.6736
14.0944
-46.9192
-48.9352
0.399166
10.0477
13.7572
-85.8321
13.8358
-24.1658
-10.4454
13.5191
14.3205
-14.9238
1.7627
54.6361
-11.9292
7.15242
34.6357
32.6858
11.5643
-74.1988
-26.5277
-8.82685
-101.511
66.6204
14.4013
-34.5342
14.323
26.7108
-93.2538
4.84455
-91.2826
-36.048
-0.7005
24.12
-2.80529
14.2958
13.9978
19.532
-17.5284
-2.22571
-0.0249524
29.818
0.334727
-1.63445
19.6487
-6.55039
1.13401
-10.4704
17.0017
-48.0671
-23.4461
4.97097
-23.7869
-61.0478
0.0763854
50.1827
-44.2116
-1.44567
31.8984
-5.73148
-7.31298
-17.2322
-21.4375
9.02944
-34.9286
-13.6055
7.48289
4.2831
0.410198
-17.4829
-4.74173
28.7001
-36.7302
1.14426
21.8667
0.400061
-45.4686
0.0623205
0.539104
-5.41803
-16.6286
25.6804
1.47493
-7.20918
-5.96453
-92.4927
0.0208251
-7.04918
-47.4457
0.751605
-4.03895
61.3181
-2.16882
-12.2398
-59.5429
0.348314
6.5543
0.119693
-114.758
-53.8187
-25.8731
-51.8906
25.4922
0.281974
-7.45929
-40.0751
-62.7579
-4.88828
0.308573
14.0202
0.559257
0.5662
4.24758
56.045
15.2572
13.8994
-3.25661
0.386392
15.9764
14.9178
25.0825
14.4357
0.592006
19.85
14.9803
12.2046
-7.97869
1.13255
13.2914
11.5804
-5.346
13.6727
0.43167
0.578346
12.3182
15.6765
14.2638
-78.5721
13.6618
21.8833
1.07179
-0.0339029
-24.2616
15.4925
14.8276
-72.1208
-51.5966
60.5841
17.3372
-76.6602
19.1496
1.13329
-68.9576
4.55876
-73.3161
0.240603
0.00736493
14.2516
24.3801
12.251
1.60337
1.33795
1.76077
10.3322
10.2228
1.1463
-11.0584
0.846048
-7.77903
62.4096
13.6978
-40.402
-12.7001
-58.6824
0.753916
13.0071
-0.542956
15.3453
0.963702
13.8451
0.751436
-28.6094
-18.0568
-33.7907
-0.61888
-4.16428
0.683201
4.16651
-22.0117
1.15933
-41.3218
0.475892
-36.3526
0.934902
-46.9196
-74.0971
1.58211
-0.0674029
-45.8084
0.386897
-43.6371
13.2142
2.44166
0.764552
1.12594
2.03287
0.73881
-6.68155
-17.7656
-3.52339
13.2395
0.930803
13.1393
0.548283
13.0834
-35.5726
11.4681
-24.0293
1.84392
0.592335
11.2564
0.426957
11.2714
11.1152
0.805774
0.952453
14.3415
0.912713
-1.00666
1.60169
1.20585
-18.3656
-36.1242
-5.90038
0.98474
-44.0566
0.739438
0.358939
0.347092
0.33646
0.333512
1.47235
13.6566
13.1709
0.815171
0.290431
45.0676
1.01319
0.657692
1.28524
-36.9883
1.64672
-43.7936
-29.1226
-38.1118
13.1763
0.223626
1.65076
0.100562
0.728549
-34.1907
-5.25034
0.762475
0.81506
1.69493
1.86577
-47.4012
1.8337
0.0742641
-10.5273
0.301722
0.26578
0.206274
0.0447593
0.0129119
0.216516
0.428553
-5.46909
-9.39666
0.0108248
13.066
0.297741
-3.88137
-2.82314
0.524963
1.1813
-5.5613
1.14803
0.354299
0.928151
0.690483
-4.88337
-0.0021946
0.841653
0.460453
0.402665
1.0588
-2.70164
-0.0380224
-51.2174
0.406624
-12.8872
1.29306
-0.238538
-52.6182
0.016187
1.35988
0.141737
0.320386
0.652122
0.949552
55.9667
1.57253
-12.6938
0.950436
0.313542
1.59263
0.692973
0.295673
0.908473
0.445732
0.494325
0.276121
-3.45171
-8.86919
-31.4529
12.3401
-7.62815
0.291249
0.728716
0.798549
-16.2812
-0.105773
0.102665
0.0914337
-47.5431
0.102096
1.32358
0.102166
0.0985383
1.23302
-128.609
0.106228
0.616139
13.2923
0.0493561
-5.82457
25.0077
29.9808
-0.0239154
8.70841
0.197251
1.04303
0.207948
0.339852
-46.1854
-51.1992
0.0733979
0.492378
-35.1876
0.0204354
2.03929
-17.3771
0.00680899
0.709226
6.13589
-0.330435
-2.90814
-0.109174
1.37492
20.7603
-0.036905
-0.20089
13.5067
-17.2323
13.5454
-18.6527
-21.9353
-41.2664
-17.9526
0.492229
13.4471
-10.5248
13.627
1.39506
17.6443
-25.9923
-19.6216
14.0639
-7.52335
14.0736
0.39477
0.890054
-45.1168
0.643015
0.500818
13.5147
13.6982
43.8548
47.1057
65.4104
-34.9262
29.7368
14.057
16.2725
24.6397
13.818
0.620261
0.00761066
0.396445
-0.291348
-45.2593
-44.5796
0.518419
1.23108
1.25165
-74.3384
-1.46227
0.872489
1.68778
-25.6648
-47.2041
0.596006
-35.1053
-0.89421
-24.6735
-24.9674
-14.4403
0.239154
0.454974
14.5945
-47.7446
-0.0361893
14.7169
0.648713
0.0593788
-64.0265
-63.0883
-70.123
0.307134
-40.2361
18.5902
10.252
5.41109
-8.70174
-74.4299
-71.2096
-40.5968
64.1697
-42.0704
37.3076
13.5572
-32.8687
14.274
-50.0656
13.7171
-46.1679
13.4949
-18.9036
1.34078
-22.212
14.2692
14.0351
1.44705
13.7985
13.5933
34.5707
4.69685
14.1893
13.6539
-55.4905
-52.2752
-7.69049
-18.7248
-53.3268
-18.206
0.689236
16.7082
-46.084
-23.1586
-24.1698
14.9394
-80.0936
8.15482
-51.3544
-91.4391
-46.0834
-5.90555
17.0521
8.6824
10.8393
14.0664
0.987619
-22.858
1.07823
1.53514
0.835049
0.0841034
0.0871983
0.822735
0.545067
-17.5525
0.140861
0.0589443
-0.119557
0.94785
-13.5943
0.684953
0.376978
0.439125
0.985149
-2.11158
-13.903
0.541065
15.9646
-22.6891
-91.7348
-3.06991
-68.8691
-5.03328
-8.20833
-13.7001
38.2187
7.25795
9.85319
-3.17353
0.0484038
0.116268
0.25361
0.0171369
-0.106788
-0.259604
0.34887
1.01536
1.26258
11.291
-5.61949
0.825034
49.3852
-0.0302779
14.4408
-0.0853206
0.00918034
45.297
-51.4875
27.0921
0.281559
0.887867
-18.8112
-47.3013
-0.152362
1.09078
18.146
-5.98521
1.50668
0.1782
-13.206
13.8492
-0.564469
17.1456
57.9248
1.0972
0.93015
-5.85288
0.312182
0.965523
0.456923
0.725727
12.8877
13.9304
9.16109
13.6047
14.392
6.7123
4.93004
-2.16031
-47.2268
7.48442
-5.34701
13.2013
13.394
65.3263
5.51693
1.46451
2.02498
-33.636
-24.6006
4.94724
17.9309
1.38854
33.777
-3.42087
16.3371
-24.3958
50.5187
32.9943
-2.87283
1.94629
7.71011
-29.8524
-74.1413
-62.3941
1.8194
-6.58984
-75.8735
1.46464
-7.54533
-3.30461
-23.8265
-51.6504
1.53387
15.8837
-80.7697
12.7872
-3.48121
1.40479
11.6267
-2.86646
13.4393
-8.83835
15.4221
11.3777
-42.3785
11.3605
61.7126
-13.4333
57.7786
33.6446
-58.9963
14.6388
14.6467
-43.9778
-7.5436
1.92025
-41.9157
-17.9715
-9.56183
1.20296
1.19705
-40.5484
-0.42462
7.81791
60.7457
-4.24538
9.3235
-2.92671
-10.9957
9.1585
9.68727
-23.1249
-40.4228
-24.2418
-43.4525
0.317549
-9.71574
1.27019
-10.3459
-6.88912
1.17736
1.09008
-8.84143
-1.14662
-42.3034
-43.0978
-0.303995
9.44891
0.684392
-7.37172
-15.8794
11.0475
9.99931
-9.33616
-42.8525
11.1922
-4.09097
-44.4249
2.85406
-23.7907
0.0841463
-1.91548
-45.9981
3.22766
55.574
-3.25018
2.16604
2.11578
1.09907
-88.5553
0.683836
0.78346
-3.63782
0.311081
12.3485
0.307687
-18.2146
12.689
34.7799
14.2757
12.9105
12.8565
0.895332
-2.39921
-2.51985
-5.52382
-87.4929
0.00146933
-31.7984
-5.54102
-0.248896
-55.2587
-0.120401
0.609606
1.61135
-3.95777
-43.3634
-15.5037
13.6884
43.2361
-0.977328
1.07356
-27.4772
-32.6513
-1.41853
-41.9036
36.5798
13.1274
-3.18082
40.5369
14.021
-54.4347
18.8578
10.1632
51.4651
36.3258
14.4107
12.8257
64.036
-47.1934
0.916229
56.3274
7.9537
14.2531
-5.37736
14.5722
-18.9868
14.2336
62.167
13.5157
13.9527
43.7871
11.8956
17.1708
-11.2402
-1.00206
16.5479
-55.757
26.2538
-15.4905
-43.9817
-55.9776
-14.4505
14.1326
39.2557
16.1682
6.71128
13.8859
13.3185
15.2583
1.04258
0.977938
44.0743
-31.2198
13.3419
-18.7704
3.5933
12.0748
-10.5315
-55.7804
0.726833
-10.8541
13.8398
4.90129
0.625022
12.9567
-4.47558
0.985217
0.986528
-35.7357
4.28769
0.801659
-4.65775
12.3499
0.747436
22.8497
0.883436
-8.9475
29.051
6.86943
19.7634
38.4023
-44.8511
60.0105
44.3941
-23.3207
-46.7415
-46.3124
-17.5434
-44.096
-44.3483
-19.6559
-14.8685
-22.6899
-46.312
62.7307
1.09219
-55.123
8.81067
-0.0292949
-25.4945
-59.5764
-5.47587
-40.6278
-11.1314
-39.6164
-10.2626
43.1098
-30.6457
-21.0676
-45.6534
27.6451
-44.2458
1.00076
-65.7639
26.2756
9.53214
0.710232
0.447322
48.1752
8.14391
-32.9308
-15.055
14.6366
0.97534
-2.40781
-19.3564
-25.2114
-0.476641
-1.28254
19.2364
-21.5642
-3.24856
0.954988
-15.7144
46.4869
-0.127069
7.14572
1.06391
5.66372
-33.5692
11.7525
9.62586
-10.9509
1.1842
7.5698
2.30728
1.59427
65.9342
4.71263
-23.8237
-2.75381
3.43633
-84.8652
-87.4907
10.5429
10.993
9.84455
13.241
-17.1208
-5.27498
61.1646
-7.19808
13.0426
-18.8554
-0.252825
-3.64435
10.3484
-7.13853
10.3003
-14.0257
-48.2788
-31.3265
36.4513
-18.0853
18.3985
10.8343
-43.8918
-54.0767
33.0688
-63.5864
11.3193
-47.5893
37.6598
-13.3206
25.2337
-8.53248
2.47785
0.196012
-1.3255
-8.62461
-29.2234
2.46154
14.3864
-79.3004
14.4947
-14.7992
14.4038
0.178653
11.5964
2.52752
0.872647
0.227942
-0.797232
7.97548
3.01627
16.7649
0.467931
-55.9387
36.6959
13.0423
42.8972
14.168
5.43145
12.7055
14.6229
32.6989
1.04793
32.6761
0.816425
0.572306
-12.4707
0.684759
0.346288
-14.3601
-9.26949
-20.7151
-0.834103
37.5417
6.12657
31.3335
0.828208
16.5303
17.1572
1.67759
0.357414
0.229088
2.69467
62.616
0.254387
-2.88306
-41.592
14.0555
14.3772
19.155
14.1838
-14.1374
-20.598
2.90796
-1.00109
-0.89488
-8.8591
37.3334
0.311337
-42.0945
0.69531
-21.4249
1.93208
10.6966
-18.4116
13.9788
13.9115
-11.0113
14.517
0.883766
8.81467
-41.5865
19.0684
58.1701
1.34257
1.20247
38.4729
11.3725
2.44865
35.5616
9.34725
-8.51104
40.4026
-15.3852
42.5093
-69.2877
5.72787
14.4131
1.17904
-4.82605
3.51625
0.819448
0.65892
0.240225
14.5286
-24.9667
5.61419
1.60996
-12.6972
1.66327
0.890813
13.9997
14.2601
25.984
6.5394
2.89823
-5.0072
1.34866
-6.87461
13.8175
1.58029
-12.6836
63.8612
-13.1646
1.34067
62.5276
14.0054
-84.9296
56.5611
2.34149
4.21047
35.6142
14.3755
-42.4491
39.552
-42.3234
1.62542
-42.0596
-14.0274
-29.209
38.4367
2.14389
63.7835
0.421108
-43.4275
-39.5722
-89.6752
-86.7086
-30.5988
-67.1789
-19.9982
-42.5519
61.3691
10.9277
12.1414
51.206
25.7638
-31.586
10.0683
-33.7632
51.1541
0.753045
12.4906
0.015226
0.714894
0.0851251
0.606653
62.5695
0.710234
0.445173
19.1354
1.03217
0.825991
12.8505
-3.93053
0.694788
-4.18844
0.738767
8.72764
31.4721
-34.0388
1.91807
3.22962
-2.50473
1.12778
-40.5903
-42.0266
-13.978
1.76948
43.4726
15.4424
-0.296195
-3.45986
6.78028
5.59313
0.744865
13.3747
13.5748
-47.8748
0.837593
16.6842
-0.816981
4.59444
13.1534
0.090109
9.74189
13.5038
13.1348
-9.28252
12.5827
13.0515
53.1155
30.2084
12.7517
27.6059
12.68
0.69908
13.1546
0.709324
-0.628432
1.70468
7.35833
-0.119561
22.279
12.5107
-12.3136
29.1652
0.446072
11.2133
32.6432
-8.86346
35.883
-18.1325
-37.1716
-54.7896
1.89711
0.130943
-14.0239
35.8753
-4.01648
-0.0390004
10.4501
2.63378
0.258874
0.324932
10.9485
14.73
31.7372
9.26856
3.18003
13.3556
12.8492
0.108944
-25.3191
38.1311
-0.121658
9.95063
-6.03073
42.2865
14.1712
12.304
-6.6011
-39.3801
-86.016
13.563
13.351
-4.5087
-8.95282
-4.61133
-23.1763
35.827
1.04394
1.62037
0.538283
-0.52472
19.3244
-11.2011
-0.20256
0.654856
34.9577
0.698287
-2.09669
25.8559
-26.4718
-18.6105
0.585659
-6.47422
15.5865
-0.0651867
0.490898
14.507
11.2111
-7.25282
23.9451
6.67155
-48.494
0.31932
0.894808
-42.3381
-7.67113
15.4592
0.529391
9.42229
14.0895
65.4345
0.568749
-5.49211
-28.5534
-27.1375
-67.7203
-46.6123
0.565527
19.1617
51.504
-0.0361832
14.8532
13.7668
-37.055
14.7669
7.76111
-23.2932
13.9012
21.2124
-11.5958
10.46
-34.2466
-60.2115
16.9248
21.4863
-49.1537
17.0799
12.9597
4.45079
15.6386
14.1448
2.4644
-25.5249
-2.84333
16.6639
16.1174
16.168
14.619
10.3309
0.0487221
42.902
-0.0933091
-1.95219
1.71463
39.7728
14.3204
-7.6662
6.21237
60.8859
-16.1976
-20.8608
-43.8918
4.71897
-2.11274
-37.8801
-12.6659
16.6631
-10.193
-0.970029
-0.0362935
-4.44221
13.5085
11.9872
9.25261
0.105644
0.0165312
-13.7348
-1.4464
-7.85218
1.26008
1.363
0.142418
1.16057
-2.19194
14.571
-29.9583
14.8461
1.08668
1.42191
14.1853
12.9637
13.6352
1.48458
1.7301
-4.22174
5.44677
1.17785
2.261
-40.0549
2.93823
-6.26914
-50.9401
-41.749
-46.2945
16.5696
-65.8067
19.0936
-40.4912
1.02229
-45.1174
0.225102
3.86437
3.08796
-1.48575
0.644393
3.94207
0.283273
16.0248
2.04407
17.2177
-1.89256
-6.83857
-87.6906
-43.3266
26.5419
33.503
-43.0981
-28.1798
-28.4718
-70.0125
-43.8158
-4.02971
-44.6111
1.36571
1.22624
-54.2967
-78.8752
-8.02003
1.46569
14.7696
53.6083
-2.31326
-79.506
2.41196
6.61908
0.527476
1.28696
-30.1997
2.48517
1.24273
1.28944
3.60465
9.19847
1.75062
0.741173
-70.374
-73.9177
-28.4954
28.12
-33.7367
14.151
0.536351
15.9082
8.68648
5.64099
26.1048
13.592
28.1369
-0.0223256
5.68868
7.17703
1.58221
4.09426
-6.08365
10.0453
14.9595
10.0243
43.69
2.14616
23.4351
-47.1372
-1.4109
-37.8809
39.5055
12.2594
11.2016
7.45079
-21.7384
-6.70697
12.0389
-35.2103
9.51722
6.18151
-1.4872
17.4741
11.3677
-2.41242
-9.58065
-23.8093
14.6166
-0.995311
-41.5185
1.83421
-33.2189
-35.9923
14.456
-76.5195
-1.99417
34.8624
-3.35176
14.3185
12.8477
18.0136
-2.21732
13.9485
-44.1849
-5.76535
-42.9553
-3.13567
-7.61622
22.8218
-44.2038
-11.488
1.25223
2.26268
21.4551
-44.8137
13.2061
2.56406
-31.431
0.551652
0.789212
13.1312
-91.2448
-1.95308
4.78753
0.93301
0.812428
12.9867
11.6185
1.87094
12.9115
-9.24951
13.1278
-88.5801
12.9104
-56.31
-21.1701
-2.17237
9.96902
-3.12501
-5.14444
12.4525
-1.83668
1.22354
-3.73284
57.6489
0.48636
39.2531
-2.78564
0.449042
-1.82656
-0.245501
14.4327
12.8962
14.1409
-1.46297
0.805376
13.4806
-4.48511
0.358976
0.360016
-15.6098
3.67339
-0.193227
14.1695
-36.3124
-58.8351
-0.0984887
-1.52922
0.440063
-27.3006
0.290635
0.298949
1.27481
0.564391
1.24993
1.12083
0.0981848
0.492181
13.3788
-30.1449
-31.3362
14.4429
51.8194
18.1207
13.7674
-0.0448558
14.4413
45.3378
-0.0279885
41.1404
1.88429
-0.598394
8.63224
33.5794
0.930457
-0.0669021
56.9178
14.7291
28.2194
-4.13729
-8.46468
0.154616
-1.34728
-0.0978778
0.795688
3.90533
0.934294
54.5002
0.700246
0.639277
0.604667
13.8246
-23.7584
-12.2127
-1.45626
1.75632
1.65126
0.510926
14.9037
-19.2667
26.9984
20.5868
0.659905
0.470621
46.9885
-9.2883
45.631
32.2525
12.7737
14.0376
0.395822
-3.75781
3.37692
-7.45029
-7.25745
14.3767
-85.8567
1.08542
0.928141
0.786026
12.5363
1.31182
53.5839
-1.29078
49.2079
0.935417
-67.3933
-7.76284
-8.62356
0.984697
-36.8275
1.05008
34.9747
14.0405
36.4493
0.83765
-11.364
5.46881
-36.9201
29.4211
13.4074
13.5942
1.02024
-16.8629
13.513
-88.0592
-13.1855
13.6662
38.0175
13.3197
-15.223
47.6024
5.79336
-2.10454
46.5663
36.1911
3.37984
4.85834
-62.491
45.7925
11.3073
44.6719
-1.77843
-55.3359
30.4577
0.248481
0.0692172
-0.00267526
0.330327
1.72599
15.849
-34.1063
1.44362
-21.2601
18.4413
42.4988
-9.87597
39.3045
0.0225765
0.0391754
-7.14822
60.0151
-10.726
52.5739
17.2059
6.1438
27.5993
7.85786
20.3231
-0.0214994
-0.193091
-0.0547832
-0.0495866
10.1631
-8.50314
15.4768
-27.1528
0.201834
-28.5267
14.5505
-14.613
50.3705
2.921
1.79112
0.14636
44.392
0.0780152
24.5625
0.330943
10.4489
-4.0486
2.46056
36.2849
39.3113
-8.11218
0.230279
1.407
-32.6457
-55.0564
-6.08014
56.4185
31.8599
59.0328
61.3189
49.533
-48.6917
1.23896
49.4744
-40.2707
0.0677298
6.7234
0.270455
-17.684
-25.7248
0.0758871
3.31687
-3.24919
-0.219176
12.9772
-33.2187
44.2136
-35.6634
13.085
1.2288
12.4155
4.17231
-2.32923
-86.8927
1.9459
-21.6778
-10.7812
13.2312
-75.7014
-86.9329
13.102
-5.64415
-7.74494
19.9956
13.0189
-7.93082
27.6181
-69.6707
-20.6552
-29.8735
41.6974
-29.2169
6.87176
27.8841
7.13823
-39.2736
-41.3836
6.36092
0.974546
54.5208
1.58771
-28.685
0.136512
-9.57469
-49.4834
-6.23938
-41.9505
1.12404
-42.8788
0.217472
-41.7999
13.1905
-15.1787
55.0687
-43.3865
24.9993
-20.7474
-44.7064
-11.2843
-26.7282
36.9809
34.7625
-25.1074
13.102
22.1944
18.0827
7.64925
15.146
-4.14085
-45.741
-121.829
-59.1357
21.4283
24.9055
-27.2946
28.1141
-40.7584
-7.27847
8.83127
4.25162
-37.9616
14.2935
-44.2959
16.8825
35.6277
36.8917
65.3316
34.8539
-16.8788
-45.6065
50.4672
14.3188
39.9948
-35.108
-43.526
53.3836
31.9278
-1.49955
23.812
20.6439
-32.4508
-43.9357
-86.9305
23.7843
11.1513
40.3271
-42.273
49.8368
32.8082
14.6105
41.5743
-59.6095
7.80593
4.62013
15.0049
-5.85995
-30.2875
-50.0243
48.4514
-0.924586
-36.1805
-71.7771
48.0753
48.5234
45.3468
-49.2543
-79.2042
48.3209
-12.8193
-43.9298
49.1811
1.22563
-5.46997
13.7337
0.752653
2.24879
-3.88773
46.6486
-22.0662
-0.253339
2.3179
2.21523
2.80404
1.38268
11.9755
-23.0021
-2.00191
1.86444
-41.2564
-59.6364
-45.6388
-10.864
2.29298
-9.73106
-32.7776
-21.1111
2.03973
-43.1398
4.0207
-41.687
-41.5761
46.3199
23.2675
28.9264
0.0311357
11.2613
-55.0002
-15.901
-5.37054
-52.991
-0.0660598
-45.7457
-29.5101
-15.9523
-30.5895
1.12024
17.8986
13.9119
16.9783
13.0625
45.2092
0.293107
-0.129692
0.0376101
16.9183
-18.5155
-63.3174
-43.0118
17.1966
41.7249
26.2348
33.8986
5.56855
-66.9385
-2.6231
16.5686
7.74146
0.743437
21.6615
11.6359
-6.59844
17.1606
-6.42523
-5.80306
1.50974
18.3054
39.4195
-20.7386
58.8604
-68.6227
22.0515
-87.823
-58.7135
-6.17687
13.1748
40.5778
-2.92656
-33.7628
2.05963
17.0061
-17.3113
-48.9675
21.4993
50.2836
65.6673
-50.9639
-10.764
-45.1811
16.7101
3.02979
-7.90671
12.5759
9.13302
-14.5747
5.63106
12.7381
-29.5297
-4.21881
-47.2434
-1.04985
-61.9079
0.0272689
13.8625
-85.415
-9.73404
-0.120928
65.0029
11.7689
52.8251
7.12061
-38.1353
19.6463
7.4213
38.2533
59.6472
17.9382
38.765
-0.168107
-38.4808
14.4538
14.1807
2.82434
13.092
-25.4105
2.07958
-3.81993
14.5588
5.79026
-13.3239
7.04485
11.6598
-2.76698
-4.36673
-23.8452
0.0185368
15.196
-0.0148786
16.1691
0.26222
-6.28233
14.1485
-13.9991
13.708
-41.3007
-0.0776283
35.4876
-6.76082
40.5074
0.259591
3.55035
0.0300973
0.0138596
-4.38234
5.93424
18.5514
39.0639
29.4698
-66.2968
-40.8815
49.1973
29.2273
23.367
10.5931
0.0915577
0.0593129
-58.4353
49.8378
23.9532
19.6562
0.611143
21.0899
0.0836254
0.0862957
-12.0473
-18.0943
-26.0908
-47.2724
12.7681
1.21328
-12.3064
14.2062
42.6202
12.911
-7.59817
13.079
-3.84034
-62.0696
-12.4592
0.13796
8.66618
-2.42293
-2.81011
-41.9491
14.0427
-43.0783
28.0844
-59.787
-21.6066
-17.9373
0.197227
24.4423
8.48545
14.5611
37.0704
14.4611
-4.30772
12.3639
13.5461
13.105
14.3422
-28.6219
15.9329
13.9487
46.3212
14.2842
-13.5439
14.6131
14.4955
-42.4725
-60.6732
-18.1882
-44.9371
-40.5098
13.6042
60.3296
-51.0204
-7.6671
17.3677
24.2835
-40.8723
0.641246
0.364532
12.2688
-14.5576
-48.5068
-34.9245
37.5311
5.16721
0.838396
9.4949
-55.0981
30.891
11.5018
-42.9376
-60.2972
-50.9259
65.9619
15.9108
11.9685
8.63668
16.0846
-60.554
19.7715
12.9608
21.5932
-14.6159
18.614
26.813
48.8681
40.481
12.2993
-9.73676
25.5834
-3.049
0.562018
0.349136
32.8816
-20.9492
-14.3337
0.351834
59.8232
0.339964
-53.9038
31.6501
28.6157
43.6354
-47.8957
-30.1229
-44.0889
36.6035
-5.84365
-21.4437
-11.3509
12.7203
2.41791
16.2629
1.15116
23.2698
0.990623
13.1838
1.10449
-5.0246
0.288508
39.9309
8.025
5.58809
-16.8595
8.36454
0.995747
9.22793
0.000135257
-31.7198
-37.0445
-12.6922
6.73234
40.5831
0.811148
63.1527
-44.8178
62.4362
58.0351
0.911826
4.17009
5.32405
0.854778
0.9194
-74.0347
16.5102
-39.51
-26.1023
6.51421
1.61478
-41.2893
6.51643
6.34174
12.8704
8.98923
0.878731
-50.2611
-0.304498
1.28342
-0.912535
1.21376
0.737375
1.17583
1.17966
-0.138196
6.14818
-42.7253
0.0923874
1.45381
-7.60112
-3.07704
23.8445
-14.9204
13.8362
13.8077
-0.146757
0.159238
-5.11772
-9.03846
7.68257
0.5827
3.5669
9.06187
-0.000284546
59.5455
0.375762
1.77178
0.0794868
-0.0516167
-19.2064
-0.0333003
-46.6347
1.21151
53.6898
4.7549
-0.161255
-12.5375
-6.9614
0.808012
-28.0029
1.97034
0.0978111
7.66838
-46.0135
0.149561
5.51163
28.1106
42.8305
-3.21786
9.65862
11.1786
-33.1352
-15.7742
0.0634673
51.1249
-46.906
-13.8881
-5.05993
54.1007
-6.66611
-3.71537
33.378
-52.4373
4.63503
0.0162859
0.0773661
0.331266
0.00844097
-0.151201
-50.1688
18.983
-0.209668
-42.1095
6.01245
0.329979
-3.26132
3.14108
19.3985
-36.0045
7.49663
17.5696
-17.5139
1.75819
15.5574
63.6009
16.6759
-66.3964
44.6426
19.5721
31.8843
0.310923
50.2216
0.299694
12.076
25.3667
0.0204838
-33.3976
-47.1012
0.717956
0.442026
-119.523