/*--------------------------------*- C++ -*----------------------------------*\
| =========                 |                                                 |
| \\      /  F ield         | OpenFOAM: The Open Source CFD Toolbox           |
|  \\    /   O peration     | Version:  2506                                  |
|   \\  /    A nd           | Website:  www.openfoam.com                      |
|    \\/     M anipulation  |                                                 |
\*---------------------------------------------------------------------------*/
FoamFile
{
    version     2.0;
    format      ascii;
    arch        "LSB;label=32;scalar=64";
    class       surfaceScalarField;
    location    "0.0263738";
    object      phi;
}
// * * * * * * * * * * * * * * * * * * * * * * * * * * * * * * * * * * * * * //

dimensions      [0 3 -1 0 0 0 0];

oriented        oriented;

internalField   nonuniform List<scalar> 
92401
(
0.147406
-0.0953522
-0.00708599
-0.0449679
-0.0626842
0.0600211
0.0373408
-0.0346777
0.0224415
-0.0394337
0.0427356
-0.0257434
0.00634865
-0.0124258
0.0123297
-0.00625259
0.00137399
-0.000453964
-0.00569341
0.00477339
0.0195042
0.00973032
-0.0255389
-0.00369563
0.00545106
-0.00449189
0.000414812
0.0324534
-0.0258486
0.0128994
0.0484146
-0.0387539
0.0321937
-0.0418544
0.000613223
-0.00116732
-0.000252748
0.000806848
0.00476875
-0.0418843
0.037542
0.0252199
0.0236814
-0.0864433
-0.0166187
0.0106623
-8.80502e-05
0.00604444
-0.0342026
-0.0401648
-0.016911
-0.0161817
0.0561886
-0.023096
0.00157332
-0.0646062
0.0630329
-0.00203074
-0.00764381
0.00195177
0.00335839
0.00233365
-0.000927368
0.00142822
0.000316694
-0.000817542
-0.00468446
0.0102474
3.77391e-05
-0.00560065
0.0159449
-0.00561183
-0.00458074
-0.00575237
-0.0402749
0.00817771
0.0367122
-0.00461502
-0.0391766
0.0107582
-0.0553215
-0.0539711
-0.00340174
0.0556296
0.00174317
0.0908885
-0.0893671
0.0232649
-0.0247863
0.0500617
0.0601765
-0.0713382
-0.0389001
-0.0323975
0.051191
-0.0579701
-0.00253936
-0.00105541
0.00385664
-0.000261872
0.0317378
-0.0636899
-0.000445431
0.0614451
-0.0612172
-0.0322305
0.0320026
0.0125978
-0.0172527
0.00109708
0.00355776
-0.036601
0.106818
0.0605995
-0.130816
-0.0845245
0.108274
0.00816184
-0.0319111
-0.130606
0.0315827
0.0300016
0.069022
0.0155781
-0.0618765
0.0369314
0.00936698
0.0613267
0.00977784
-0.0555265
-0.0440955
0.0104424
0.00203391
0.0316192
-0.0503267
-0.041234
0.0653261
0.0262347
-0.0334492
0.04014
-0.0138652
0.00717449
-0.0200743
-0.101757
0.0651014
0.0567301
-0.0864696
0.0862274
0.000242247
0.0315694
-7.96347e-05
-0.0752
0.0437103
-0.000898496
0.0276006
-0.0289631
0.00226096
0.0270795
-0.0504183
0.0233388
0.000149009
-5.69692e-05
-4.0598e-05
-5.14418e-05
-0.00019737
-0.0590456
0.0592429
-0.0687554
0.0427514
0.0627402
-0.0367362
0.089951
-0.0255957
-0.0124514
-0.0519039
-0.000404973
0.070067
0.000640779
-0.0703028
-0.0472508
0.0730209
0.0389477
-0.0647179
0.000510824
0.00100697
-0.000355893
-0.0011619
-0.00220659
-0.00375522
0.000539189
0.00542262
-0.038384
0.084085
-0.0461178
0.00041681
0.000343314
-0.000813473
-0.000688985
0.00115914
-0.0546055
0.0541653
0.000440176
0.0748366
-0.00736563
-0.019232
-0.048239
-0.0975333
0.089375
0.00594781
0.00221041
-0.0552831
0.0271139
0.0116908
0.0164784
-0.00163831
-0.0159496
0.00662378
0.0109641
-0.0126126
0.0257393
0.037772
-0.0508987
0.000953878
-0.000297288
-0.000313276
6.97316e-05
2.12999e-05
0.00074569
-0.000836721
0.00121798
0.000218899
-0.000835875
-0.000601
0.004029
-0.00907205
0.00520435
-0.000161299
0.0679776
0.00504879
-0.0172732
-0.0557532
-0.0149308
-0.0044968
0.0100644
0.00936316
-0.0404399
-0.0531742
-0.0553934
0.149007
0.00363403
-0.0334493
-0.00374995
0.0335652
-0.000433764
0.000545373
0.000713454
-0.000825064
0.00495468
0.00402964
-0.0284163
0.019432
0.0185786
-0.00697004
-0.00940963
-0.00219891
0.0414835
-0.0761078
-0.0275053
0.0621296
-0.0280865
-0.00340966
0.0102032
0.021293
0.0118645
0.00801513
0.0129127
-0.0327923
-0.000973887
-0.000419134
-5.2308e-05
0.00144533
0.0249785
-0.00957611
0.0366602
-0.00128519
0.000891793
-0.00153485
0.00192825
0.044483
-0.0331445
-0.0683074
0.0569689
0.000626759
-0.000280586
-0.000346173
-0.00106233
-5.90483e-05
0.000561028
0.000560353
0.000976385
-0.000500006
0.00107692
-0.0015533
0.0223263
-0.0218506
-0.0627774
0.0623016
0.00119636
-0.0127798
0.00261438
0.00896911
0.0435938
0.0572816
0.0189222
-0.119798
-0.116393
0.025382
0.129304
-0.0382933
-0.0052667
-0.0437001
0.00406741
0.0448994
0.0525627
-0.0286631
0.0253267
-0.0492263
0.0254772
-0.00427872
-0.151073
0.129874
0.00612372
0.0167134
-0.0259495
0.00311237
0.000694605
-0.000247098
-0.000687638
0.000240131
0.0377989
0.0127261
-0.00204823
-0.0484768
-0.00183132
0.0829192
-0.0847136
0.00362566
-0.0184826
0.0498684
-0.11608
0.0846939
0.0417342
0.00520837
-0.0522093
0.0420631
-0.000328851
-0.00240326
-0.0290245
0.0414434
-0.0100156
0.0710492
0.0166689
-0.0313234
-0.0563947
0.127973
-0.141408
-0.028735
0.0421697
-0.0143706
-0.0456485
0.0576158
-0.0809612
-0.000294453
0.0812557
0.00153191
-0.0986602
0.16493
-0.067802
-0.00236582
0.00330222
-0.000528646
-0.000407754
0.0885469
-0.147873
0.0308765
0.0284497
0.00156812
-0.00027849
0.000796345
-0.00208597
-0.0853043
0.143271
-0.104647
0.0466802
0.0287948
0.00344075
-0.0397184
0.00748287
0.0872652
-0.016664
-0.0795089
0.00890774
0.00609
0.0311098
-0.0515703
0.0314217
0.0287394
-0.134442
0.0742804
0.0852174
0.113228
-0.0784704
-0.119975
0.000439056
0.000612733
-0.00273122
0.00167943
-0.0951089
-0.0287444
0.11154
0.0123133
0.00181287
-0.00576056
0.0148223
-0.0108747
-0.013913
-0.0335282
0.0575603
-0.0101192
-0.00533353
0.0165295
-0.0139688
0.00277279
0.000303461
-0.000639843
-0.000504787
0.000841168
0.0210533
-0.0252345
-0.00115225
-0.00173666
-0.000742028
0.00143419
0.0010445
-0.0570483
0.0594647
-0.00241634
-0.00240879
-0.00609331
-0.00199766
0.0104998
-0.035887
0.0279174
-0.0059434
0.0186688
-0.0474587
-0.0557346
-0.0510183
0.0414559
0.0981156
-0.0885532
-0.00742679
-0.00165578
0.00491301
0.00416956
0.0469642
0.0117742
0.00171198
-0.0604503
0.00032481
-0.00895411
0.00666043
0.00196887
-0.0384463
-0.0536942
0.011609
0.0805315
0.0646654
-0.038837
0.0265214
-0.0523498
-0.00889036
0.0593596
-0.0586012
0.00813198
-0.0594602
-0.0341287
0.00854943
0.0850394
0.0169218
0.00516116
-0.0336527
0.0115697
0.0594945
-0.0584312
-0.00106334
0.0019074
0.00186215
-0.00116362
-0.00260592
0.0414056
-0.0438011
0.00239547
-0.0507414
-0.0408624
0.107464
-0.0158601
0.00086447
-0.00964495
0.00940147
-0.000620995
0.00307545
0.00595142
0.00246439
-0.0114913
0.00171099
0.00611332
-0.0074995
-0.0250605
-0.0572578
-0.009336
0.0916543
0.0253896
-0.00718158
0.0167568
-0.0349648
-0.0845757
0.0924427
-0.101981
0.0941144
0.0757581
-0.0505644
-0.0251936
0.00126672
-0.0342583
-0.010034
0.0430256
0.00793869
-0.00552773
-0.00885072
0.00643977
0.0459108
-0.0694762
-0.0613306
0.084896
0.074314
-0.0647553
0.0291146
-0.0386732
-0.0132498
-0.00839
0.0316078
-0.00996798
-0.0587315
-0.0873832
0.0566176
0.0894971
-0.041239
0.0535463
-0.0110406
0.0979996
-0.0487091
-0.0492906
-0.00400383
0.0145609
-0.00261839
0.000936812
0.000635967
-0.000694748
-0.000878031
0.0477624
-0.0162564
-0.00527875
-0.0262272
0.00351009
-0.00176188
-0.000511748
-0.00123646
0.00554207
-0.00986343
0.00851701
-0.00419565
0.0727167
-0.0422438
0.025647
-0.0561198
0.00845022
-0.000266647
-0.00684608
-0.00133749
0.0016011
-0.000560791
-0.00104031
-0.0636229
0.0640964
-0.000473449
0.0117403
0.0055231
-0.0957445
0.0784811
-0.0110036
0.0139199
-0.0101122
0.00719593
-0.0725859
0.0166775
0.0829459
-0.0270375
0.018784
-0.097739
0.0753747
0.00358036
-0.0522212
0.0421415
-0.00795614
0.0180358
0.00853182
-0.00176239
-0.00285995
-0.00390947
8.46976e-05
-0.000975449
0.000890751
0.0259372
0.171089
-0.242059
0.0450329
0.000273431
-0.000270934
-0.0248369
0.0605894
-0.0529867
0.0172342
-9.18574e-05
0.00511259
-0.00419631
-0.000824417
0.000757936
0.00183001
-0.00308796
-0.0719794
0.000345495
0.0716339
-0.0327869
0.114488
-0.0480398
-0.0336615
0.000219517
0.000884139
0.00934877
-0.0104524
-0.000510444
0.0902143
-0.0897039
0.00232943
-0.00162946
-0.00111651
0.000416543
0.00127467
0.000597774
-0.000603755
-0.00126869
-0.0365985
-0.00146963
0.03235
0.0192001
-0.0641627
-0.0719155
-0.0163338
0.00572781
0.0825214
-0.000581567
0.00185624
-0.0990778
-0.0416877
0.112444
0.0283212
0.0274893
0.168184
-0.0843726
-0.057639
-0.0261727
-0.0176149
0.118587
-0.0437718
-0.0571999
0.0410815
0.0300774
0.037329
-0.108488
0.105296
-0.247213
0.107862
0.0340551
0.0015192
-0.00132624
-0.00142834
0.00123539
-0.0120204
-0.0358454
0.0560509
-0.00818509
0.0251933
0.0405802
-0.0255326
-0.040241
-0.0353109
-0.0261859
-0.01964
0.0811368
-0.0543528
-0.0130253
0.0553577
0.00072986
-0.0118784
0.00797674
0.00317182
0.0555022
-0.0285706
-0.05092
0.0239884
-0.0883533
0.104146
-0.0500932
0.0343004
0.0158035
-0.0227514
0.00707861
-0.000130649
0.0519086
-0.0603039
0.0638975
-0.0566473
-0.00359661
-0.0146442
0.074888
-0.00534152
-0.0124081
0.00210924
0.0156404
-0.000461639
0.0576262
-0.0571877
2.30478e-05
0.136419
-0.0540768
-0.002982
-0.07936
0.0591184
-0.00781675
-0.0483185
-0.00298314
0.0529963
-0.0210077
-0.0753124
0.0433238
-0.0095247
-0.00201182
0.0146159
-0.00307942
0.00523662
-0.00168555
-0.00476354
0.00121247
0.0021232
-0.0428497
0.0394553
0.00127122
-0.000951481
-0.0864303
0.00375655
0.0191649
-0.0128861
-0.0630399
0.0475956
0.0154443
-0.0597502
-0.0167971
0.0105351
0.0660122
-0.0983201
-0.00275696
0.103378
-0.00230112
0.00383687
0.0230358
-0.0125789
-0.0142938
-0.0701464
0.150036
-0.0664662
-0.0134234
-0.00504213
0.0140299
0.0224519
-0.0314397
-0.0506652
0.0966798
0.0379183
-0.0839329
0.0275681
0.00227244
-0.0146528
-0.0151878
-0.035743
0.036765
0.00110125
-0.0036589
0.00671041
-0.00935693
0.00630542
-0.000474351
-0.00411631
0.0101327
0.03657
0.0382196
-0.0747896
0.00110319
-0.00184286
6.542e-05
0.000674249
0.0189986
0.00822399
-0.0183789
-0.00884368
0.0221716
0.00925863
-0.00267021
-0.0287601
-0.0509564
-0.000801507
0.00637243
0.0453854
0.00037723
-0.043227
-0.00091614
0.000586111
0.00143322
-0.0524668
0.0377432
0.051633
-0.0369093
-0.0437363
0.0293936
0.0184666
-0.00412393
0.00131791
-0.0031197
-0.00962154
0.0114233
-0.00844825
-0.00491314
-0.0036176
0.016979
-0.0427531
-0.00455087
0.0115609
0.0719839
0.0396942
-0.0722236
-0.0394545
-0.0439215
-0.000220629
0.0441421
0.0865729
-0.0485526
0.0590799
0.00367788
-0.00784507
-0.0382537
0.0424208
0.0359562
0.0111178
-0.0057337
-0.0413403
-0.000481174
0.000288406
0.00098627
-0.000793503
-0.0168076
-0.0446594
0.061467
-0.000288593
-0.00125491
-0.00454555
0.0318932
-0.0236698
0.00606558
0.0280283
-0.041939
0.0972851
-0.0906468
-0.00178251
-0.0048558
-0.0212619
0.100481
-0.0187977
-0.0604214
-0.0315888
0.00682941
0.0154382
0.00932125
-0.0391049
0.0354389
0.0144077
-0.0107417
0.0321874
-0.0251252
0.00141592
-0.00847818
0.0184249
0.0719839
-0.120651
0.0302423
0.0754528
-0.0741687
-0.0240868
0.0228028
-0.14273
0.00288598
0.00270076
0.137143
0.0300496
0.0127762
-0.0412214
-0.0016044
0.0401529
-0.0579485
0.0198177
-0.00202213
0.00206182
-0.00123075
0.000236007
-0.00106708
-0.0147658
-0.00150495
0.0734531
-0.0416056
0.0188899
-0.0507374
-0.0113344
0.0472974
0.00069796
-0.036661
0.00572071
0.0959376
-0.0932165
-0.00844175
0.0502929
-0.0986511
0.0578861
-0.00952789
-0.0491619
-0.000413843
0.0382413
0.0154329
-0.00434196
0.00877235
-0.0198633
-0.0234714
0.0479473
-0.0133721
-0.0111038
-0.0491248
-3.708e-05
-0.0054404
-0.122599
0.176055
-0.0480154
0.00991851
0.00899706
-0.0621561
0.0432405
0.0504476
0.00527631
-0.0458054
-0.0123629
0.00659754
-0.00355433
0.00931969
-0.0555342
0.000318232
0.055216
0.109575
0.0433774
-0.135038
-0.0179149
-0.00893555
0.000404418
-0.00383176
0.0188532
-0.114226
-0.0229914
0.118364
0.0125544
0.0656927
-0.0692501
0.00296669
-0.0544205
-0.0107023
0.000454671
0.0018218
-0.00256506
0.00193492
-0.00181318
0.000332928
-0.0510194
0.0256992
0.0743188
-0.0489985
-0.00191523
0.000956694
0.000899489
-0.0348301
-0.0077873
0.0455841
0.000217795
-0.000311231
0.000331479
-0.00090436
8.72171e-05
0.000485664
6.02522e-05
0.00209247
-0.00167684
0.00132923
6.79753e-05
0.000279632
0.000469074
-0.000278286
0.00076309
0.104823
0.120451
-0.0778673
0.000139783
-0.000888363
0.00121765
-0.0528685
0.0531175
-0.000249066
-0.0109483
0.0754135
-0.0704678
0.00600262
0.00182003
-0.0190192
0.00499071
0.0122084
-0.0601253
-0.00369147
-0.0169885
0.00412369
0.0473961
-0.0345313
-0.064627
-0.000377406
0.0650044
-0.00620855
-0.0161338
-0.0124231
0.0347654
0.000252801
-0.000334856
-0.000450891
0.000532946
-0.00403319
-0.00746166
0.00891178
0.00258307
0.0549768
0.0439176
-0.0175114
0.047295
0.0885831
-0.0378495
-0.0980286
-0.0121247
-0.0442975
-0.0212107
0.0207212
-0.0564551
0.0569445
-0.0101839
0.0288412
-0.00740504
-0.0112523
-0.0153271
-0.0132791
0.0139998
0.0146063
0.0970384
-0.0956861
0.0180767
-0.0194291
0.00102443
-0.00427258
-0.000258513
0.00350666
0.000558054
-0.0651343
0.0645762
-0.0732039
0.00370953
0.0667596
0.00273481
0.0396367
0.0378306
-0.0774673
0.0190539
-0.0602229
0.0290443
0.00227771
-0.00137654
0.000823352
-0.00172452
4.95169e-05
-0.00049439
0.00174056
-0.00129569
-6.21589e-05
0.000400254
-0.000920749
0.000582655
0.0634202
0.055631
-0.0390483
-0.0800029
0.00556864
-0.0859776
0.0821126
-0.00170363
-0.0134979
0.0001665
0.0264922
-0.0131608
0.0521855
-0.0518765
0.0194675
-0.0197765
-0.000466471
0.00125848
-0.000623388
-0.000168625
0.0203363
0.0480828
-0.0493652
-0.047385
-0.00173742
0.000854757
0.00155159
-0.000668923
0.00019508
0.0796159
-0.079811
-0.050002
-0.0152181
-0.0228594
0.0880795
-0.050343
0.00034095
0.0117536
0.0170447
0.0163087
-0.045107
0.000452281
-0.00279053
0.000185017
0.00215323
-0.00164478
-0.000704606
0.000611964
-0.107809
-0.00828453
-0.0443412
0.160435
-0.0107045
0.00726123
0.138491
-0.135048
-0.0383207
0.0426787
-0.064352
0.0599941
-0.0785075
0.0771971
0.00131038
0.00160973
-0.0507184
-0.0302179
0.0653092
0.0188231
-0.00529346
-0.0788388
0.0505656
0.0928738
-0.155189
0.0117499
0.0424596
0.0153802
0.0327028
-0.0905426
0.104385
-0.107644
0.0428959
-0.00335931
0.0127628
-0.0115637
0.00216016
-0.00224504
0.000284707
-0.00081872
0.00277905
-0.00269116
-0.00550179
0.00149833
0.00669461
0.0605205
-0.00585472
-0.0182183
-0.0364475
-0.0566368
0.02832
0.0283168
-0.0923429
-0.00762001
0.0122744
0.000277746
-0.000354065
-0.00216872
-0.117144
0.0242329
0.00592292
0.086988
0.000777855
-0.0536411
-0.00976353
0.0626268
0.0456033
0.028393
-0.101137
0.0271408
0.0382044
-0.0438454
-0.0189972
0.0246381
0.0476409
-0.0597272
0.0502908
0.0303391
-0.0561346
0.0499468
-0.0241512
0.0341684
-0.0357262
0.00074291
0.000814824
0.016179
-0.143003
0.0913648
0.0354597
0.00101551
-0.060735
-0.0032978
0.0527485
0.000182929
-0.108215
-0.0336846
-0.00935625
0.00669439
0.0363464
-0.0483913
0.044602
0.0501584
-0.0463692
-0.0421733
0.0819287
-0.0397553
0.0107692
-0.102455
0.0478405
-0.016834
0.00764827
0.0242822
-0.0150966
-0.088294
0.093121
0.0369396
-0.0417666
0.0579975
0.0335908
-0.081768
-0.00982025
-0.0480953
0.141945
0.005024
-0.0988742
-0.000410861
0.00311226
0.00339965
-0.00610104
0.0545632
-0.0730489
0.0833843
-0.0648987
0.00889609
-0.0402558
-0.00865539
0.0400151
-0.0433826
0.0309918
0.103155
-0.0907642
-0.0502011
-0.0267985
0.0541012
0.0228984
-0.0103202
-0.00062387
0.00659333
0.00435075
-0.00945732
0.0207806
-0.0176087
0.00628543
8.4443e-05
0.0736866
-0.0737711
0.0148876
-0.0441721
-0.0191069
0.0485556
-0.0338431
-0.0016145
-0.013098
0.00156285
-0.0247104
-0.0204796
0.0436272
0.0351318
-0.0349773
-0.00015447
0.0621739
-0.0415354
0.0631778
-0.0838163
-0.0995013
0.0970795
0.0994603
0.000169486
-0.010751
-0.0018515
0.012433
0.0500194
-7.28572e-05
-5.90908e-05
0.000182327
-5.03789e-05
-0.000188865
0.0467918
-0.108337
0.0617342
-0.0086349
-0.000379452
0.0049205
0.00409385
0.0268366
0.0100203
-0.0368568
0.0011557
-0.00109361
-0.008697
-0.0315515
-0.0342065
0.0150166
0.057268
0.000644212
-0.0579122
0.0728238
-0.0440053
-0.0512066
0.0223881
0.00183342
-0.0247789
-0.02115
0.0695035
0.0429256
-0.0396054
-0.00798014
0.00930533
0.135314
-0.119889
0.0354228
-0.0508481
-0.0452103
0.0370634
0.0219086
-0.0137617
-0.0528325
0.0520543
0.000778185
-0.0479798
0.029849
0.0104372
-0.0466261
-0.0105337
0.0467226
-0.00258333
0.159404
-0.158484
0.00166297
0.108105
0.0159172
-0.0157484
0.0506912
0.00857142
-0.0513404
-0.00792227
-0.0143589
0.00450436
0.0105371
-0.000682595
-0.00957621
-0.00522077
0.00478935
0.0100076
0.0668887
-0.0382514
-0.05324
0.0246026
0.029806
-0.015908
0.0235248
-0.0374228
0.027029
-0.0944156
0.090141
-0.0227545
-0.00565381
0.000385839
-0.00909093
-0.0942197
0.10777
-0.0234809
0.00993082
-0.0112681
0.0477192
0.0139332
-0.0503844
-0.00441564
3.33163e-05
0.00315694
0.00122538
0.082718
-0.00554317
0.0519494
-0.129124
5.3023e-05
-0.000724481
1.84186e-05
0.00065304
-0.0664714
0.0577548
0.0744737
-0.0657571
0.00357281
0.0013505
-0.00217181
-0.00275151
-0.0777626
0.0754676
0.002295
0.0621694
-0.0588801
-0.0032893
0.0601581
-0.000343425
-0.0598147
-0.0122764
0.123422
-0.000698886
-0.110447
0.00989826
-0.0311123
0.0329676
-0.0236639
-0.000295293
-0.056462
-0.0674582
0.0124059
0.0669274
-0.0118751
-0.0131153
-0.00211468
0.000452908
-0.000662686
-0.000126009
0.000335787
0.00111239
-0.000228909
-0.000235028
-0.000648449
-0.0636734
0.0073317
-0.00133089
0.0576726
0.000503386
-0.00536488
0.0017797
0.00308179
0.0119801
-0.0144911
5.24685e-05
0.00245849
0.00803824
-0.0066955
0.0106374
0.0559003
-0.00993002
-0.0223078
-0.0236624
0.0363549
-0.00554739
-0.0364776
0.0056701
0.000383794
0.0667534
-0.000338732
-0.0667985
0.00743268
-0.0714823
0.0193846
0.044665
-0.0430034
-0.0322523
0.0422162
0.0330395
-0.0338325
0.0197342
-0.0908837
0.104982
-0.000847386
0.0149629
-0.00775056
-0.00636491
0.0492063
-0.0589586
0.0472515
-0.0374992
-0.0629782
-0.00684953
-0.00734518
0.000681908
-0.00013018
0.00415796
-0.00470969
-0.0117505
-0.0027503
0.00174042
0.0127604
-0.00784857
-0.00909356
0.0106722
0.00626997
-0.00012052
-0.00213722
0.00130049
0.000957241
-0.000472621
0.000548573
-7.5952e-05
0.00108589
-0.0710498
-0.0258435
0.0958075
-0.000152022
-0.000182319
-0.0012817
0.00161604
0.000118059
-0.000506818
-8.38618e-05
0.00152241
-0.0661494
-0.000146946
-5.92831e-05
0.000754803
0.000654936
9.25623e-05
-0.00042304
-0.000324458
-0.0284257
0.0643157
0.0768802
-0.11277
-0.00896719
-0.00221602
0.00711313
0.00407007
-0.0143684
-0.000268247
0.00566946
-0.00514502
0.00537818
0.0128778
-0.013111
-0.000711085
0.000772055
-0.000207916
-0.0661638
0.0662979
-0.000134027
0.030566
0.0468775
-0.0598997
-0.0175439
0.0126069
-0.0754211
-0.0220854
0.0848996
-0.0132479
0.00268716
0.00541568
-0.00452466
-0.00619065
-0.00253254
-0.0165805
0.0583719
0.0127989
-0.0545903
0.0690484
0.00458665
-0.0534014
-0.0202336
0.000153694
0.000430487
-0.000793488
0.000209307
-0.000423779
-0.000169248
-0.00261096
-0.00113923
-0.00120971
0.0049599
0.0655731
-0.0460869
0.0117531
-0.0312393
-0.000789424
-0.00264984
0.00146279
0.00197648
-0.0162547
0.0108636
-0.00402925
0.00942031
0.00157138
-0.101644
0.102051
-0.0019777
0.00297859
0.000658982
-0.01029
0.00665239
0.00976051
-0.0103682
0.00164064
-0.00103299
0.0098538
0.00366814
-0.0105433
0.0375428
0.0558788
-0.0278484
-0.0273323
0.0548672
0.0282361
-0.055771
0.0277116
-0.0550438
-0.000263095
-2.39901e-05
-0.0331621
0.0124569
-0.0100317
0.0792177
0.0239853
0.0070781
0.0686782
-0.0538043
0.0971359
-0.11201
0.00470547
0.0925758
-0.0972813
-0.00674675
-0.00676059
0.0131028
0.00040452
-0.033867
-0.0876114
0.0277732
0.0937052
0.0226817
0.061871
-0.0255266
-0.059026
-0.0233809
0.114236
-0.0533128
-0.0419872
0.0449793
0.0518751
-0.0561172
0.0554047
0.000712503
-0.0384537
0.0366792
0.00177446
0.0405912
-0.0798152
0.0731661
-0.0339421
0.0662865
-0.082867
-0.00933918
-0.00810029
0.0106927
0.000904277
0.000647739
-0.00060748
-0.000944536
-0.00622261
-0.0428299
-0.00706471
0.0012698
0.00138319
-0.00248619
-0.000166798
-0.0570198
0.0514319
0.0861054
-0.0805175
0.0343116
-0.032544
-0.0017676
0.00905696
0.0243331
-0.0127803
-0.0206098
0.00420534
-0.00055297
0.00222989
-0.00588226
-0.0646193
-0.000684728
0.0206113
0.0446928
-0.00281802
0.00673511
0.000288246
0.0407803
-0.110529
0.103789
-0.0340404
0.0454781
0.0139374
-0.0592223
-0.000193226
-0.00359222
0.00692858
0.00154893
-0.00488529
-0.000702552
0.0609088
-0.0602063
0.0368046
0.00618359
0.0145034
-0.0574917
0.00415915
-0.00730369
0.00259158
-0.181696
0.0282785
0.161339
-0.00792111
0.0389195
-0.0110139
-0.0279057
-0.00106665
-0.00157372
-0.00120949
0.00384987
-0.0410611
0.0445311
0.124148
-0.127618
-0.00175506
0.000657887
-0.00210684
0.00320401
0.0902389
-0.00198938
-0.0427714
0.000452052
-0.00116041
0.00204849
-0.00134013
-0.0185437
-0.116183
0.0156544
0.119073
0.00377329
0.0518019
-0.00375367
-0.0518215
0.0491487
-0.0704117
0.059934
-0.0386711
0.0319059
-0.0366564
0.0488324
-0.0440819
0.00865653
-0.00229979
0.00613395
-0.0124907
0.00120289
-0.0445729
0.0533604
-0.0536747
-0.036342
0.0967252
0.0182809
-0.0252033
-0.0898028
0.0474889
0.0177914
-0.135077
0.0697968
-0.00154296
-0.00860144
0.00627388
0.00387051
0.0280021
-0.0501833
-0.00335763
0.0290571
-0.0269035
0.0075073
-0.00576302
0.00012203
-0.00186631
-0.0869405
0.00287315
-0.00142226
0.073034
-0.15006
0.0784487
-0.027068
-0.0867418
0.0413977
0.0724121
-0.0718873
0.0209706
0.00237823
0.0485385
-0.0431532
0.0292753
0.0101823
-0.0832835
0.0963658
-0.0130824
-0.0207326
-0.00958331
0.117702
-0.087386
-0.00347317
-0.00392336
0.00603979
0.00135674
-0.0258506
0.0592835
0.0408811
-0.0721865
0.0281812
-0.000680369
-0.000409471
-0.000975199
0.00206504
0.0465286
-0.0483074
0.0545272
-0.0379253
-0.00692629
-0.0451781
-0.123962
0.0477865
0.0761754
-0.0430036
-0.0325554
0.0275792
0.00305822
-0.00210458
0.000652645
-0.00160629
0.00257686
-0.000272191
0.000753546
-0.0858831
0.00305463
0.0828285
0.0603186
0.0141838
-0.122399
0.0478965
-0.0714976
0.000330646
0.0711669
0.00128307
-0.00180465
0.00828887
-0.00776729
0.0488896
0.154099
-0.223312
0.0203232
0.00173585
-0.00225935
0.00149566
-0.000972159
-0.0916988
0.0653719
0.0259699
0.000357045
-0.00305036
-0.000928664
0.00315176
0.000827264
-0.000751658
0.00836891
-0.00811179
0.00049454
0.00812529
0.00803113
-0.015595
-0.000561413
0.0412369
0.0116163
0.002968
-0.00266099
0.00142884
-0.0978395
0.105211
0.00698152
-0.0143526
0.0117394
-0.0668319
-0.0225398
0.0776322
0.00142398
-0.00340258
0.0880433
-0.0860647
-0.0427141
-0.036604
0.0883796
-0.00906159
-0.04078
0.0246563
0.0404367
-0.024313
0.0534684
0.0214936
-0.0729693
-0.0019927
-0.00198612
0.00027154
0.0019887
-0.00027412
-0.123557
-0.0429514
0.0398712
0.126637
0.0481718
-0.0377346
-0.0315997
-0.0376605
-0.0313884
0.100649
-0.00192625
0.00425562
0.000297087
-0.00262646
-0.0306414
-0.0800604
0.0279324
0.0827694
-0.0296618
-0.0289658
0.0207022
-0.00086649
-0.00316433
-0.00166406
0.00337346
-0.00365723
0.00194783
-0.00541836
0.00532088
0.025251
-0.0771252
-0.0852213
0.137096
-0.000275523
-0.000460362
0.000435439
0.000300447
0.0569361
-0.0604467
0.0475265
-0.0440159
-0.0144229
0.0427298
-0.00717559
-0.0211313
0.0863946
-0.0858838
-0.018868
0.0183572
0.02611
0.0227468
-0.063453
0.0145962
-0.127593
0.0742627
0.0187728
0.0345577
-0.00517736
0.00283699
0.000124927
0.00221544
-0.00779594
0.00947676
-0.000397752
-0.0134884
-0.00371817
0.0184359
-0.00122935
-0.0631992
-0.00442958
0.0147149
0.0529139
-0.00959741
0.104325
-0.00614444
-0.0885831
0.00860133
-0.0470902
0.0803085
-0.0418196
-0.00167761
0.00415238
-0.00170704
-0.00076773
-0.0149167
0.000447319
-0.00241834
0.0168877
-0.107796
0.00443815
0.0124495
0.0909087
0.000110399
-0.000300207
0.000648835
-0.000459027
0.0366077
0.00810944
0.0272668
-0.005059
0.0457309
0.0534525
-0.0941244
-6.45564e-06
0.000781287
-0.000664433
-0.000594869
0.00210921
-0.00141609
-9.82458e-05
0.0173556
0.110537
-0.0474001
-0.0804927
-0.000193781
-0.000106425
0.000242535
-0.000436316
0.0620302
0.0169246
-0.092235
0.0132801
-0.156231
0.0862223
0.0760239
-0.00601552
-0.0182802
0.000806283
-0.0518894
0.0693632
0.0251338
-0.0149045
0.0172534
-0.0274827
-0.0659146
-0.0239808
0.0898955
-0.0773518
0.0381017
0.0392501
-0.00222834
-0.000237207
0.000168719
0.00229683
-0.0393386
0.0420504
0.00763949
-0.0103513
0.0474096
-0.0551338
0.00772427
-0.0606434
0.0339731
0.045266
-0.0185957
0.0044061
-0.00232688
-0.00189621
-0.000182997
-0.0031532
-0.00259871
0.000574555
-0.042008
-0.0425677
0.0460252
0.0145313
0.00189772
-0.0624542
0.00222413
-0.000342085
-0.0018889
6.85903e-06
0.00109263
0.00565289
-0.0118321
0.00508661
0.00696164
0.0218477
-0.0398815
0.0110721
-0.0190856
-0.015916
-0.00879092
0.0437925
-0.0745604
-0.0101198
0.0296
0.0550803
-0.00165424
0.014853
-0.00834482
-0.00485389
-0.0528509
0.000483236
0.0332821
0.000266629
0.0253952
-0.134298
0.126274
-0.0173717
0.0283262
-0.0340755
-0.051299
-0.0272476
0.0549591
-7.96354e-05
0.0393886
0.00319401
-0.0425029
-0.0567333
-0.0598023
0.116536
-0.00303061
-0.00104115
-0.00172568
0.00579744
0.0031879
-0.00467663
0.00168829
-0.000199555
0.03607
-0.00530089
-0.028424
-0.00234511
-0.00315147
-0.00223798
0.00235883
0.00403592
-0.0122624
0.0676184
-0.0593919
0.0756267
5.34858e-05
0.0278391
0.00924034
-0.00627169
-0.0308077
0.0588082
-0.000211846
-0.0585964
-0.0534391
0.11315
-0.0286211
0.0599902
0.0202134
-0.0515824
-0.0150328
-0.0245781
0.0160899
0.023521
0.00329221
0.00364536
0.00072976
-0.00766733
-0.0334335
-0.0386673
0.099212
-0.0271113
0.0433603
-0.0352813
-9.4197e-05
-0.00798485
-0.0519867
0.114749
-0.0491127
-0.0136491
-0.00155473
0.00183767
-0.000201338
-8.15932e-05
-0.00103695
0.021627
-0.00398268
-0.0166074
0.00278276
0.00387456
6.59866e-05
-0.0067233
-0.000245744
-3.9449e-05
-4.2981e-05
0.000328174
3.13634e-05
7.52688e-05
-0.000352377
-0.00888898
0.0220786
0.0705049
-0.0836945
0.0808339
-0.0802028
-0.000631076
0.000309941
-0.000372901
6.29598e-05
-0.0128272
0.000955283
0.00222757
-0.001413
-0.00176986
-0.00795246
-0.00603925
0.00381577
0.0101759
-0.0557676
0.0271465
0.000215348
0.00031326
-0.000806762
0.000278155
0.0342962
0.0543514
-0.0343479
-0.0542998
0.0137298
0.15665
-0.179792
0.00941217
0.0584026
0.0639773
-0.0623898
0.00197078
-0.0129667
-0.00177157
0.0127675
-0.0331569
-0.0299704
0.0631273
0.0313286
-0.0644855
-0.0545715
-0.044851
-0.0649921
0.164415
0.050497
-0.0563691
0.00587211
-0.0731771
0.134691
-0.0714436
0.0327986
-0.0302278
0.0855664
-0.00395223
-0.068639
-0.0129751
0.0698403
-0.0709759
0.0108044
-0.0096688
-0.00023696
-0.00596698
0.00745394
-0.00125
0.00249369
-0.00580091
0.00620681
-0.00289959
-0.0001844
9.02717e-05
0.00078586
-0.000691731
0.0220955
0.0225469
-0.0336675
-0.010975
-0.00513445
-0.00536441
0.00612585
0.00437301
-0.0114578
0.0323927
-0.0427361
0.0218012
0.00088559
-0.00842813
0.0109678
-0.00342529
0.0501113
-0.00449729
-0.045614
0.0384212
0.0351835
-0.126576
0.0529714
-0.0981884
0.0601869
0.0764226
0.0329613
-0.0998211
-0.0466316
0.108485
-0.0380484
-0.0238054
0.00187091
0.00882961
-0.0123311
0.00163061
0.0281315
-0.00330537
-0.0248261
-0.0303855
0.0439409
-0.00358633
0.0196951
-0.0314359
0.00121408
-4.32007e-05
0.000907
-0.00207788
0.0118916
-0.0387952
-0.00115028
0.000172088
0.000166732
0.000811456
0.0026507
-0.000265378
0.00095864
-0.00334396
-0.000823667
-0.0024798
-0.0775578
-0.0139658
0.00159142
-0.0113301
0.0237045
0.0200624
-0.0906203
0.0213604
0.0491975
-0.00323391
0.0578681
-0.0821896
0.0275554
0.00106313
-0.000763566
0.00117901
-0.00147856
0.0787405
0.0124962
0.00217201
-0.0934087
-0.000966161
-0.000758828
0.00203103
-0.000306042
0.00385156
0.000921952
-0.0696108
0.0648373
0.00638915
-0.000927309
-0.00469744
-0.000764405
0.00626264
0.00442486
-0.00346215
-0.00722534
-0.111477
0.0973047
-0.0879368
0.102109
-0.0553521
0.1099
-0.0545479
0.00278359
-0.0447465
0.00924737
0.0327156
0.00350919
-0.00365258
0.000837157
-0.000693767
0.0487447
-0.0029425
0.00149519
-0.129033
0.00253984
0.0730543
-0.0333625
-0.00016567
0.00154484
0.0305712
-0.0250805
-0.00703552
0.0780457
-0.0305351
0.0341063
0.00390938
-0.00488883
0.00019882
0.000780635
0.0335584
0.0230037
-0.0737435
0.0171814
-0.000405522
2.9187e-05
0.000506742
-0.000130407
-0.00038915
0.00143329
0.00521849
0.000195932
-0.00775044
0.00615918
0.00550064
0.0748133
0.0408217
-0.037124
-0.078511
-0.131899
0.14124
-0.00842033
-0.000920551
0.0312911
-0.0318858
0.00059479
-0.0359507
-0.000101908
0.000274307
-0.00300643
-0.00215671
0.0149134
0.206606
-0.158399
-0.0631201
0.0287541
-0.060404
-0.0175826
0.0492325
-0.00305128
0.039084
-0.000818305
-0.0856988
0.0474331
-0.0226683
0.00972129
-0.0380615
0.0476045
0.0463277
-0.0558707
-0.0667287
0.0892869
-0.152171
0.129613
-0.000132107
0.00013974
-0.00146023
0.00145259
0.000241975
0.00217924
-0.000701702
-0.00171951
0.0447274
-0.0156578
0.0400318
-0.0691014
-0.0034893
0.000395632
0.00320573
-0.000112062
-0.0118691
0.0107485
-0.0369409
0.0121858
-0.0462169
0.00573046
-0.00294488
0.017977
-0.0207626
-0.133063
0.016284
0.126912
-0.0101336
0.0391522
-0.025909
-0.0183796
0.00513637
0.0345852
-0.0532871
0.00683279
0.00479288
0.0077351
0.0512716
-0.0637996
0.0249681
-0.00713462
-0.0250884
0.00725498
-0.0792916
-0.00782507
0.0145308
0.00120334
-0.000972186
1.08183e-05
-0.00162914
0.00394485
0.00130741
-0.00362312
0.018472
-0.0322774
0.0387735
0.0174033
-0.143515
-0.0222852
0.148397
-0.111903
-0.0153519
0.026194
0.101061
0.0575544
-0.0352903
0.0288022
-0.0510664
0.109704
-0.0062842
0.00457883
-0.107999
-0.0174232
-0.0374585
-0.00409942
-0.0156826
0.00764889
0.0121331
-0.00134504
0.000505584
0.000122712
0.000716743
0.0150564
-0.0769754
0.061919
0.107577
-0.00755166
-0.112302
-0.0267735
0.0557106
-0.0463602
0.039986
-0.122257
0.0140028
0.0682682
-0.00439962
-0.0120862
-0.0274603
0.0439461
0.00269958
0.0491709
0.0822346
-0.130109
-0.001297
0.0495851
-0.0832448
0.089365
-0.0557052
-0.0966433
0.0952588
-0.00648043
0.00786489
0.00156069
0.00372146
-0.0942816
0.0889995
-0.00148759
0.00357276
0.00586389
-0.00794906
0.000143787
-0.000866483
-0.000232055
0.00095475
0.0879456
0.00100761
-0.0179784
-0.0709747
-0.000676826
0.000800399
-0.000463638
0.000340064
0.00090617
0.00325306
-0.00228708
-0.00187215
-0.00182878