/*--------------------------------*- C++ -*----------------------------------*\
| =========                 |                                                 |
| \\      /  F ield         | OpenFOAM: The Open Source CFD Toolbox           |
|  \\    /   O peration     | Version:  2506                                  |
|   \\  /    A nd           | Website:  www.openfoam.com                      |
|    \\/     M anipulation  |                                                 |
\*---------------------------------------------------------------------------*/
FoamFile
{
    version     2.0;
    format      ascii;
    arch        "LSB;label=32;scalar=64";
    class       volVectorField;
    location    "0.0263738";
    object      U;
}
// * * * * * * * * * * * * * * * * * * * * * * * * * * * * * * * * * * * * * //

dimensions      [0 1 -1 0 0 0 0];

internalField   nonuniform List<vector> 
47425
(
(10.0945 0.0568801 -0.0211562)
(10.0444 -0.042714 -0.10334)
(10.0027 -0.0456787 0.0714875)
(11.071 -0.424211 -0.183975)
(11.9205 0.660734 0.674574)
(10.086 -0.0245493 0.0128821)
(11.8472 0.485416 0.631004)
(10.1062 -0.0013302 0.0202382)
(10.0323 0.00263204 -0.0134136)
(4.88401 6.77003 -0.658242)
(10.0664 0.00421204 0.0113252)
(9.96269 0.232238 0.0271935)
(11.7141 0.475556 0.186119)
(10.0117 -0.0113291 0.0686332)
(10.4587 0.447871 -0.101075)
(9.82353 -0.121096 -0.00105002)
(10.0169 -0.0203308 0.0802689)
(8.63225 -0.476918 -1.2482)
(8.51859 1.04528 -4.56363)
(12.8933 -0.482021 -0.937429)
(10.6159 -0.557955 -0.448139)
(9.73257 -0.0335394 0.0176742)
(10.0305 0.0929904 0.0123256)
(10.0823 -0.0386707 0.124205)
(9.98092 -0.169626 0.102151)
(9.98828 0.0111702 -0.0226149)
(9.96565 0.0414371 0.0225453)
(11.1634 -0.272158 -8.06104)
(9.9953 0.03313 0.0307962)
(10.0798 -0.0365465 -0.0178737)
(9.7081 0.627382 0.138832)
(9.95698 -0.0257016 0.0471067)
(10.0249 -0.0635343 -0.0310323)
(9.94847 -0.0293622 0.00516966)
(10.0189 -0.150521 -0.0427591)
(10.1939 -0.0159249 -0.041365)
(9.72726 -0.0744268 -0.0159747)
(9.9754 0.0517292 0.00626658)
(10.4973 0.262089 -0.0278862)
(10.0214 0.0316022 0.0120874)
(9.87755 0.0971106 -0.00456543)
(9.35567 0.2192 -0.332418)
(8.63352 -0.571911 0.124254)
(10.0052 0.0326693 0.0187467)
(0.30752 -0.531298 1.0618)
(10.1643 -0.06352 0.008179)
(9.98197 -0.0206808 -0.0969617)
(10.0037 0.0957744 -0.0212853)
(10.0297 -0.0647662 0.0235923)
(9.99994 -0.03369 -0.0509141)
(1.97317 -0.606559 -5.31515)
(9.35091 0.899267 1.11891)
(10.0391 0.00713962 0.0380755)
(7.08064 -6.18588 2.83436)
(9.9776 0.0159073 0.0128173)
(10.2144 0.0963065 -0.117801)
(10.093 -0.0753148 -0.0908723)
(10.0392 0.0779344 0.0242226)
(12.7145 0.686622 0.955268)
(10.0269 0.0116907 -0.00392967)
(5.24551 -6.05169 2.25412)
(5.25606 0.373419 2.4902)
(6.50974 -7.27766 1.59795)
(9.08131 -1.08827 0.142718)
(10.0048 0.00631691 0.00286219)
(10.5577 -0.188277 0.116322)
(10.0389 -0.00836388 0.00195009)
(10.4869 0.21572 0.471951)
(8.58103 -6.75811 3.17133)
(9.11228 0.581638 0.460821)
(10.7965 -0.286305 0.226964)
(9.98252 0.0600308 0.0322432)
(10.6168 0.0250361 0.0341379)
(10.5796 0.270295 -0.53775)
(7.04055 5.04636 1.49102)
(9.98791 -0.0249445 0.0403473)
(7.14027 -7.15882 2.4608)
(10.0078 -0.00615185 0.00804044)
(8.362 -5.95503 2.95993)
(11.419 0.416918 1.74975)
(7.52956 4.31142 1.59573)
(10.1731 0.243357 0.0857614)
(9.31164 0.107403 -0.0939319)
(10.0051 0.141533 0.0463243)
(9.87562 0.0359004 -0.0911078)
(10.0221 -0.0488623 0.0865512)
(10.4078 -0.140274 -0.0142765)
(10.132 0.0915875 -0.00501595)
(10.1501 0.991239 -1.39269)
(10.659 -0.00561173 2.56198)
(9.72253 0.442448 0.105905)
(10.4798 -0.0767477 0.0227797)
(10.0813 0.0455414 0.0669173)
(9.99002 -0.0459417 0.000761674)
(9.9462 -0.0967303 -0.018436)
(10.0386 -0.000372876 -0.0255966)
(10.0472 0.0115677 -0.0550951)
(10.1165 -0.285821 -0.0775175)
(10.0474 -0.0963108 0.138156)
(9.84835 0.121782 0.0416313)
(10.1827 0.0353398 -0.0879019)
(8.59063 0.0947677 -3.60041)
(10.2433 0.152 0.0747913)
(5.44661 1.90318 -0.351337)
(10.2781 0.0351363 0.080076)
(10.1674 -0.529804 0.114714)
(10.0544 0.0550347 0.000812842)
(9.93073 -0.0497581 0.14204)
(9.85025 -0.0248755 -0.0130794)
(9.91257 0.192594 0.0403943)
(-3.82475 -1.98959 0.476679)
(10.1192 -0.0522835 -0.00701739)
(10.085 -0.695761 0.205324)
(10.1498 -0.00204105 0.0278583)
(10.5006 -0.451472 0.128816)
(1.75889 -4.11439 -5.2549)
(10.4995 -0.42242 0.0909834)
(4.10371 0.101429 -3.7542)
(10.2571 0.112234 0.0442605)
(10.671 0.27543 0.444048)
(10.1817 0.0284557 -0.0309576)
(10.0031 -0.0372528 -0.00589554)
(9.99997 0.0483794 0.0656699)
(11.4343 0.82068 -0.592901)
(10.0706 0.0375871 0.00815473)
(10.2959 -0.770364 0.258262)
(9.98338 -0.0644755 0.0552861)
(9.99155 0.000599069 -0.00340554)
(9.91254 -0.0624352 -0.0722391)
(10.0557 0.0142638 0.0423764)
(9.40404 -0.144795 0.469446)
(9.9528 0.252272 -0.0376473)
(4.4273 0.0300688 1.13963)
(10.4732 -0.302397 0.0840955)
(9.62643 -0.202488 -0.194413)
(11.6141 -0.486006 -0.745788)
(10.9091 0.53891 0.282986)
(10.3312 -0.76692 0.380288)
(10.1251 -0.0368769 0.00131015)
(10.6995 0.232436 -0.0637993)
(10.1268 -0.115766 -0.0490384)
(12.088 -0.0625137 -0.139014)
(10.4099 0.0179553 -0.112076)
(10.1064 -1.026 0.375807)
(10.0859 0.213972 -0.0393946)
(10.0173 0.00382965 -0.00221787)
(11.7827 0.0639216 0.817962)
(10.1375 0.0370682 -0.0936091)
(10.3318 -0.0128501 -0.0546631)
(10.0119 0.00939234 -0.0444167)
(10.0261 -1.02123 0.247575)
(2.98631 -0.371053 -6.22553)
(10.0569 0.0519902 0.0537851)
(5.67414 0.130921 -10.7458)
(8.89583 -1.05804 -0.455835)
(9.98555 0.00077275 -0.0142172)
(10.6673 0.336896 -1.46334)
(7.38011 -3.56782 -2.32223)
(9.92903 0.0307591 -0.13552)
(9.88481 -0.0308632 0.057626)
(10.7306 -0.405156 0.181813)
(9.95688 0.109192 -0.0699204)
(10.0427 -0.00765266 0.00850095)
(10.0351 0.249056 -0.0473439)
(11.7675 0.0955444 -0.299548)
(1.28891 -1.83443 -1.93036)
(9.88959 -0.0335368 -0.0999075)
(7.51231 4.75445 1.46369)
(10.0106 -0.0614673 -0.0141766)
(11.8587 0.514419 -3.76316)
(8.63395 4.09993 1.16202)
(10.1495 -0.0227325 -0.00341075)
(10.0864 0.0557822 0.0165942)
(9.30369 -0.881869 -0.422961)
(10.1699 0.10212 -0.0810898)
(9.30702 -2.84284 -0.964031)
(2.77944 0.783911 -6.89754)
(9.99316 0.0187546 0.0146856)
(10.069 0.0364788 0.0331494)
(10.0412 -0.0654662 -0.0129131)
(2.56094 0.286239 -10.2279)
(9.99459 -0.0241259 -0.018669)
(10.026 0.024221 0.0261336)
(9.89094 -0.0653299 0.0219333)
(9.98414 -0.0653148 -0.0376519)
(10.0768 -0.0768014 -0.0974633)
(10.1346 -0.0412507 -0.0615983)
(5.58604 -0.365955 -0.165989)
(9.95931 -0.0287088 -0.0629164)
(10.0736 0.0397793 -0.0315921)
(10.0112 -0.000385275 0.040497)
(10.0328 -0.10466 0.0230154)
(11.5924 0.493228 -1.19529)
(10.0097 0.0201482 0.00744501)
(9.90127 -0.0367216 0.0076573)
(10.7594 -0.220556 0.0575889)
(10.027 0.000956522 -0.0114849)
(10.0187 -0.00972819 -0.0504078)
(10.9076 -0.202769 0.132211)
(10.1189 -0.135258 0.0461869)
(10.0745 -0.0113002 0.020288)
(10.214 -0.119142 -0.00418008)
(9.92725 0.0524197 0.0430446)
(10.6797 -0.298686 0.0616198)
(10.1675 -1.28891 -0.745241)
(10.3873 -0.0149288 0.0897124)
(10.0088 0.00796261 0.058447)
(10.6922 -0.230571 0.0495864)
(10.0088 0.22098 -0.0825878)
(9.96329 0.0703397 -0.0166816)
(10.1218 -0.0880812 -0.0973835)
(10.8206 0.0433022 0.0910747)
(10.0137 0.144183 -0.0105896)
(10.0719 -0.0961491 0.0197783)
(10.3577 -0.00840312 -0.0156171)
(10.903 -0.319927 -0.16551)
(10.5468 0.0270299 -0.0110482)
(10.3239 0.330901 0.975534)
(8.67179 -1.17645 -0.370018)
(10.079 -0.050884 0.00792795)
(11.3688 -0.0786575 2.15412)
(10.7683 0.0892149 0.151407)
(9.5583 -0.895431 -0.312263)
(10.5509 -0.0390081 0.0190628)
(10.3786 -0.0103781 0.1229)
(11.4031 -0.351929 2.10387)
(10.0735 -0.0554665 0.0492431)
(10.7842 -0.26654 -0.0726688)
(10.9272 0.507716 0.324854)
(11.3901 0.771182 -0.201456)
(10.5756 0.0018218 -0.0270452)
(9.94509 0.00063424 0.108989)
(10.1794 -0.071299 0.0193003)
(10.0064 0.0111661 0.0118979)
(10.0858 0.0432499 0.0098211)
(9.95825 0.165242 0.00521112)
(11.2757 0.565555 1.84116)
(9.91292 0.0455348 -0.0294162)
(11.5538 0.535194 1.65474)
(10.0886 -0.00410935 0.00418277)
(9.9313 0.0220568 0.0710206)
(9.96325 -0.0223083 -0.0254546)
(9.97622 0.0243391 0.0171144)
(11.5241 0.121519 -0.176385)
(10.3615 0.27765 0.0204945)
(9.96206 -0.0327988 0.0411858)
(10.1989 -0.0328203 0.035586)
(9.88527 -0.00913956 0.0350636)
(10.0069 0.0289904 -0.0657112)
(9.89856 0.0923478 -0.00809935)
(9.96626 -0.0347038 0.0726167)
(11.3812 0.0593598 1.82712)
(10.1692 -0.0135129 -0.0440961)
(10.0003 -0.0269864 0.00467294)
(9.97778 -0.0758515 0.0307387)
(9.96205 -0.0159772 0.0507559)
(9.87009 0.022408 0.088263)
(10.1101 -0.0912859 -0.107832)
(10.5598 -0.383687 0.155525)
(10.0428 0.00649819 0.0120345)
(10.0015 -0.0559813 -0.133991)
(9.97847 -0.0522078 -0.0220669)
(9.9845 0.0880974 -0.0751606)
(10.3056 0.0143981 -0.0489449)
(11.3251 0.250737 0.64489)
(9.82866 -0.314448 -0.0561902)
(9.91691 0.0182084 0.0304029)
(11.3937 0.263556 0.512263)
(9.86213 0.0180274 0.081595)
(10.1852 0.162218 -0.0946644)
(9.99037 0.0833561 -0.0493856)
(11.5951 0.64607 1.31641)
(11.1082 0.692116 1.52)
(10.235 -0.121174 -0.0112673)
(11.458 0.360809 1.63154)
(10.2504 0.0412797 0.0243804)
(11.516 0.501718 1.47486)
(7.04655 3.2116 2.64016)
(11.0781 0.589736 1.59262)
(5.79361 1.16906 -4.68802)
(4.37063 -5.86085 1.96742)
(10.1047 0.0213029 -0.00828844)
(4.24923 -6.26141 1.22194)
(9.86546 0.144549 -0.0413443)
(9.97108 -0.0327685 -0.115627)
(10.9072 -0.160376 0.105532)
(9.92299 0.0924158 -0.00886674)
(9.98188 -0.0544835 0.0410552)
(9.8397 0.110534 0.0437826)
(10.4325 -0.575997 0.047122)
(1.37127 1.66957 -3.03302)
(9.24121 0.675765 0.163418)
(10.0033 -0.000889448 -0.00231534)
(9.87523 0.0312651 0.0255052)
(9.97289 -0.0841112 0.0730999)
(10.821 0.139024 0.445316)
(11.6724 0.253065 -0.0570152)
(10.1969 -0.475125 0.187535)
(10.04 -0.0830865 -0.0469041)
(11.4422 0.0103131 0.460537)
(9.91471 0.0877892 -0.0289398)
(10.1509 -0.0228619 0.0894948)
(9.99782 -0.135976 0.00774952)
(9.98949 -0.0892675 0.086152)
(12.7649 3.51075 0.31334)
(7.5265 1.37479 0.803467)
(1.45883 1.08218 -5.75871)
(9.87615 -0.0153574 0.0339227)
(10.0351 -0.0287853 -0.0513428)
(9.99687 -0.569717 0.0528021)
(10.0226 -0.433406 -0.078375)
(1.12531 -0.596036 -5.27265)
(10.0299 -0.0123081 -0.0136314)
(10.0426 -0.021509 -0.020417)
(10.6451 2.61284 1.63313)
(9.98672 0.00534522 -0.132768)
(9.95598 0.0274985 -0.0367757)
(9.85721 0.110002 -0.0684307)
(9.88358 0.0563499 0.0291971)
(13.6552 1.09293 -0.0706166)
(10.8758 2.32625 1.54773)
(10.0997 0.149662 0.101049)
(10.2121 0.118531 -0.0540954)
(10.0129 0.0897375 -0.112676)
(10.1065 -0.084394 -0.102242)
(10.0649 0.0428909 -0.0593542)
(9.93448 0.0837615 0.0771673)
(10.004 0.0729361 -0.0695379)
(10.0128 -0.0430636 -0.0631007)
(10.0232 0.0184403 -0.0900317)
(11.0021 0.0602712 0.321126)
(12.1496 -1.95441 1.24736)
(10.3009 -0.668725 -1.0744)
(9.98682 0.0478443 0.0428723)
(9.95026 0.017772 -0.0230198)
(9.9267 0.00404631 0.0203978)
(12.2367 -1.33534 1.354)
(9.92815 0.022108 -0.189262)
(10.0729 -0.033249 -0.0423072)
(9.95222 -0.0661157 -0.0210088)
(10.0552 0.20865 0.0546864)
(10.0199 0.191883 0.00261619)
(10.0895 -0.0262652 0.0518288)
(9.79789 0.15424 -0.0408548)
(10.1028 -0.0332791 0.0618783)
(9.83842 -0.0120613 -0.072343)
(10.0775 0.0306044 0.0603534)
(9.66149 0.355384 -0.053378)
(9.98091 0.101818 -0.0128916)
(9.94925 -0.0304236 0.024788)
(10.0104 0.19474 0.0533429)
(10.3786 -0.413974 -0.0170993)
(10.0277 0.192109 0.0344798)
(9.85014 0.0526662 0.009503)
(10.0292 0.19975 0.134727)
(11.1515 -0.895189 0.0432516)
(10.057 -0.0133341 -0.0628582)
(9.39916 0.250507 0.229177)
(9.93482 0.128561 0.0258788)
(10.0911 0.0845621 0.0186466)
(10.3057 0.175169 2.03735)
(10.8128 -0.619574 -0.424191)
(10.0396 -0.0308855 0.0604227)
(9.96721 0.0470113 -0.0544959)
(10.334 -0.244147 0.102731)
(10.2126 0.30322 -0.0127396)
(9.96058 0.00401067 -0.0168565)
(10.0447 0.0247112 0.0705159)
(10.0272 -0.0820353 -0.0309244)
(10.1441 0.641045 -0.0860077)
(9.97933 0.00276075 -0.0481789)
(-1.06601 -1.42577 -0.250002)
(10.3922 -0.0812641 0.0633618)
(10.0932 0.785773 -0.0197754)
(9.98539 -0.0257651 0.00681372)
(10.0777 0.693425 -0.021513)
(9.7925 -0.194008 -0.380462)
(9.97463 -0.0856244 0.024293)
(9.99984 0.000601749 -0.0048932)
(9.7577 -0.0783153 -0.00523827)
(10.0147 -0.00693866 -0.00496253)
(10.0421 0.756633 -0.0583513)
(10.1976 -0.0294733 0.0341357)
(10.0824 0.0462448 -0.0282039)
(9.96152 -0.0916544 0.0266775)
(10.0334 0.0379428 -0.000705607)
(9.96887 0.0941128 0.000612426)
(10.101 0.181467 0.0502623)
(10.0828 -0.0706464 -0.0500094)
(9.9996 0.0140796 -0.02714)
(10.4117 0.813827 -0.199056)
(10.2927 1.00312 -0.226369)
(10.1173 -0.0123631 0.0163231)
(10.4751 -0.255921 0.131593)
(10.0198 -0.0419644 -0.119769)
(10.3475 0.756343 -0.180298)
(10.0234 -0.0107124 0.0233749)
(9.92293 0.0242893 -0.0166916)
(11.7885 -0.503397 -0.694096)
(9.93582 0.0168894 0.06202)
(10.3423 -0.953079 1.74162)
(9.99128 -0.0836853 0.0173499)
(11.2466 -1.14328 -3.78524)
(9.95023 -0.0469428 0.0126485)
(10.5106 0.125542 0.00129821)
(9.94918 0.0510697 -0.101397)
(9.98973 -0.0614495 -0.0634976)
(9.81358 -0.0240166 0.0495155)
(10.0871 0.00940474 -0.0414147)
(10.0483 0.072377 -0.106354)
(10.2825 0.889542 -0.167319)
(2.30247 -1.87035 2.08872)
(2.23726 -0.451765 -2.16085)
(10.0895 0.0501934 0.082214)
(10.2496 1.41869 -0.681988)
(10.5747 0.660608 -0.31346)
(10.6643 0.619874 -0.300003)
(9.99058 0.00795142 0.0575993)
(9.9888 -0.0655919 0.0177954)
(9.97713 -0.0162298 -0.0213971)
(9.95139 0.0751251 -0.0218631)
(9.99746 -0.058918 0.00157389)
(10.131 -0.0568929 -0.0256398)
(10.6342 0.582082 -0.175374)
(9.96508 -0.034248 0.0147342)
(10.0077 -0.00208163 -0.0609636)
(10.7585 -1.3156 0.57545)
(11.2011 0.524692 -0.157152)
(10.8515 0.50186 0.0179232)
(8.00372 -1.25166 -4.5864)
(0.0404361 5.86915 0.43996)
(10.2288 -0.210038 0.0415193)
(7.3784 -0.911556 -5.06088)
(0.158021 5.51339 0.727727)
(9.911 -0.0108032 0.0271479)
(-0.0568844 5.94363 0.613044)
(8.81207 -1.9886 1.60434)
(9.99983 0.0875827 -0.054673)
(10.8377 0.618818 -0.309242)
(10.8032 0.648149 -0.340971)
(11.0327 0.576061 -0.3017)
(-0.826014 5.67492 0.756271)
(10.1335 0.105848 -0.0448122)
(10.0032 0.00567523 -0.0450351)
(10.0186 -0.0837718 0.040987)
(11.0862 0.602082 -0.409281)
(10.9844 0.623735 -0.477779)
(10.0418 0.0297599 0.00558269)
(10.0547 0.0494294 0.0213489)
(9.89834 3.7807 3.30016)
(-0.828928 5.30532 0.507974)
(12.4742 -0.315744 -2.73295)
(10.0314 0.0264892 -0.00216869)
(8.66565 -0.705045 -2.89062)
(10.2784 0.215474 0.775936)
(10.0138 -0.0303256 0.0328541)
(10.6936 0.293007 0.0364467)
(11.5618 0.411108 0.310395)
(10.6742 0.174667 0.0364161)
(10.0679 0.0409576 -0.00419929)
(10.0066 -0.00166524 0.00733967)
(9.98325 0.00804703 -0.00170986)
(10.4393 0.290061 -0.0239909)
(9.99614 0.00245987 0.00134858)
(9.99354 -0.0394226 0.0776493)
(10.0148 0.113123 0.0411727)
(9.95147 0.0737795 -0.0523209)
(10.8104 0.0702799 0.0715626)
(10.0426 -0.0654179 -0.0273615)
(10.0916 -0.0547008 -0.0542579)
(10.0747 0.0334885 -0.0145244)
(10.02 -0.00467012 -0.00602591)
(9.93805 -0.123801 0.00766904)
(10.3655 0.2228 -0.0581201)
(10.2194 -0.0185765 -0.0940522)
(9.92064 0.0140113 0.00578879)
(10.7531 0.080779 0.041883)
(9.40916 4.58908 2.74448)
(9.98295 -0.125775 0.0292842)
(11.6752 1.64866 -1.15645)
(10.0094 -0.0209294 -0.0518861)
(10.498 -0.235311 0.00888758)
(8.43415 -0.289624 1.04713)
(9.74127 1.35116 -0.416967)
(10.0028 -0.00847454 -0.0588225)
(9.81863 1.41601 -0.465088)
(10.0474 -0.0149951 -0.175696)
(9.99032 -0.0042616 0.0874034)
(9.9828 1.23995 -0.746864)
(9.97369 0.0495857 -0.187341)
(10.343 -0.174367 0.00153968)
(9.88282 1.12338 -0.478243)
(10.1746 -0.0926621 0.0722355)
(10.3939 -0.0255226 -0.249525)
(8.09663 0.255684 -3.6984)
(10.0131 0.0403442 -0.0162665)
(9.66214 1.75168 -0.370503)
(9.9582 -0.0625011 -0.0217621)
(9.04883 1.93788 -0.780153)
(10.0705 -0.132869 0.00833658)
(9.91911 -0.0615157 0.00369914)
(9.98429 0.0729117 -0.029107)
(10.0122 -0.0153316 -0.0342756)
(10.9848 0.518841 0.752482)
(9.99767 0.0193682 -0.0348207)
(9.99409 0.00453163 -0.0238845)
(10.0409 -0.00224047 0.0461283)
(10.0319 0.0179614 0.0156703)
(10.9956 0.296369 0.113305)
(10.1013 -0.0389143 0.0200013)
(10.1156 0.000683052 0.0207331)
(8.73233 0.264997 -0.377519)
(10.0114 -0.00437823 0.0405549)
(9.88993 0.0290754 0.0401402)
(9.97642 -0.0817724 0.043497)
(9.95628 -0.0624629 -0.0913709)
(10.0627 -0.0724097 -0.00461846)
(10.0538 -0.00958088 0.0416324)
(10.0828 0.034352 -0.0415871)
(10.2092 1.28721 -0.904852)
(10.0464 0.00860998 -0.00464497)
(9.97665 -0.00198164 -0.0178281)
(2.85578 -0.283202 -5.27209)
(10.0045 0.0897645 0.0250968)
(10.0473 0.0398132 -0.0335358)
(10.0201 0.103148 0.00747137)
(10.0214 0.0133807 -0.00783528)
(12.4235 1.06445 0.0378514)
(12.5076 0.688762 0.357504)
(9.95971 -0.0841506 0.0237846)
(9.86231 -0.037004 0.0815786)
(9.99194 0.000256124 -0.0519003)
(11.0536 -0.215331 0.986621)
(9.87285 0.0474132 0.0636028)
(12.4401 1.39994 -0.043957)
(9.98055 -0.0546469 0.0167671)
(-0.244182 -2.38687 3.34888)
(8.09618 -0.422817 -0.448736)
(9.58191 -0.671751 2.05915)
(9.99671 0.0606899 -0.0591876)
(12.3827 1.27624 0.0359565)
(10.0059 -0.00765157 -0.0495044)
(10.0719 0.0419653 0.00436547)
(10.08 0.0265058 -0.0127735)
(9.99787 -0.00124349 0.0741626)
(10.0226 -0.00700944 -0.0297159)
(10.0813 -0.0662497 -0.0212668)
(8.72282 -0.374291 0.751303)
(9.97116 0.00173005 0.00744743)
(9.91797 0.12111 -0.0283008)
(10.0071 -0.0265568 -0.0386502)
(12.3773 0.993437 0.0718005)
(10.0279 -0.0675105 0.0291954)
(10.0687 0.0482034 -0.0034894)
(12.19 1.09467 -0.0397648)
(12.053 0.355969 0.2611)
(9.98201 0.102137 0.0193476)
(10.0275 -0.00453654 8.11057e-05)
(-0.458783 1.75562 1.30832)
(9.96529 0.0608064 -0.0443177)
(10.3026 -0.278328 0.0991288)
(9.96363 0.0600624 0.015851)
(10.0336 0.086099 0.0610123)
(10.0683 -0.0103609 -0.00715953)
(11.7837 0.492238 0.0295295)
(10.8985 -0.129831 1.17716)
(9.44792 0.564835 0.977799)
(10.0433 0.0279823 0.0360346)
(10.0536 0.0692429 -0.0351121)
(9.9583 0.0225866 -0.00529874)
(12.5242 -0.265385 1.09119)
(9.35479 0.137869 -0.288064)
(9.91709 -0.0486164 -0.0396216)
(-0.2971 1.63089 1.02081)
(9.98655 0.00767797 0.111161)
(10.0382 -0.0128706 0.0359892)
(-1.36368 1.67811 1.48775)
(11.7814 2.07709 -0.989619)
(9.82382 0.126655 0.0281773)
(0.100533 1.71468 0.656452)
(-0.0584818 1.95091 1.20192)
(10.0191 0.0425805 0.0176101)
(9.95039 -0.0234276 0.0360926)
(10.027 -0.0182786 -0.0853275)
(9.74196 -0.334788 0.0924631)
(10.0112 -0.0360237 0.0499563)
(9.87543 0.0311006 0.00406511)
(12.363 2.58106 0.840739)
(10.1745 0.212854 0.173574)
(10.06 0.131128 -0.0366057)
(10.1001 0.021086 -0.0210841)
(12.4088 0.164847 0.270119)
(11.7283 0.820148 0.026419)
(10.0741 -0.131193 -0.0863472)
(10.1961 0.264899 -0.154349)
(-4.58654 -2.28322 -0.620143)
(4.63626 -1.4804 -3.20497)
(10.61 0.283795 -0.169211)
(9.9631 0.007206 0.0633415)
(10.1755 -0.162695 0.129924)
(10.7401 -0.159523 -0.615345)
(9.96495 0.0306746 -0.102117)
(9.92708 0.11224 -0.0858576)
(10.0277 -0.0854485 -0.12118)
(10.2126 0.134638 0.00186678)
(9.99398 0.0129291 -0.0067405)
(10.5088 0.213987 0.235869)
(10.1061 -0.0329982 0.113451)
(12.468 1.00211 -0.519548)
(10.2131 1.4744 -0.946369)
(10.4964 0.210644 -0.172082)
(12.5229 1.18729 -0.804305)
(10.354 0.0301181 -0.144739)
(9.93437 -0.0215129 -0.10008)
(10.5548 0.627199 0.166976)
(10.2621 0.00185838 0.0189708)
(9.97531 0.0595631 0.0383065)
(10.0569 0.0164549 -0.00904179)
(10.4111 0.775151 -0.353965)
(7.9336 -0.666404 -1.07209)
(10.041 0.00193757 0.0689567)
(10.5663 0.22776 0.09552)
(10.001 -0.0179757 0.0574563)
(13.2276 -5.25564 -1.44357)
(10.7045 -0.514163 0.879201)
(11.2455 -0.180945 0.637404)
(6.10518 1.57939 0.428918)
(5.9877 1.58576 0.299716)
(10.0412 -0.033552 -0.0323766)
(9.92769 0.151577 0.115794)
(5.23153 1.37639 -0.166326)
(10.0537 0.00305176 0.00960069)
(9.80514 -1.68983 -3.04213)
(8.38828 0.261251 0.910841)
(9.97529 -8.74594e-05 -0.043623)
(9.82667 1.69653 1.01664)
(10.0754 -0.100481 0.00778425)
(10.0068 0.0827065 -0.0145963)
(10.0701 -0.0193786 0.0572884)
(12.6931 0.352646 -0.104669)
(9.94199 -0.00370755 -0.00872334)
(9.98134 -0.0331311 -0.0133025)
(10.021 -0.0100845 -0.0219307)
(9.98056 0.0417399 -0.00242409)
(10.025 0.017334 0.00707742)
(10.0036 -0.0231017 0.0594323)
(10.0235 -0.0143592 0.0593228)
(9.98732 0.0567958 -0.0496456)
(11.209 0.534169 0.47466)
(10.3194 1.87127 -3.53481)
(14.0084 2.49797 0.586572)
(10.646 0.269682 0.00743653)
(10.0062 1.08287 1.41759)
(10.0729 -0.0282066 -0.0966916)
(9.39995 -0.85736 0.221019)
(10.2757 0.011779 -0.0534245)
(10.0061 0.00673427 0.0289608)
(10.0389 0.00513476 -0.00316779)
(10.0196 -0.0068653 -0.0236075)
(10.0159 0.0130258 0.0838882)
(9.13158 0.270238 -0.735967)
(11.4769 0.32509 0.237727)
(10.0087 0.0129353 0.0263868)
(10.1857 -0.366348 0.1535)
(11.8851 1.02885 1.686)
(10.1103 0.00418318 0.00361847)
(5.93844 -2.31579 3.21441)
(12.6673 -0.972453 -2.53944)
(9.89564 0.00391581 0.0359698)
(9.54612 -0.420509 0.184026)
(10.4823 -0.0728062 0.093688)
(10.0529 0.0247539 -0.0195394)
(6.52186 -0.210198 2.76451)
(9.94921 -0.00912408 0.01117)
(9.43591 -5.13947 1.22045)
(10.0915 0.13158 0.02108)
(11.2237 -0.327819 0.814952)
(11.6323 0.527185 0.0549734)
(10.0474 -0.00672302 -0.0725232)
(9.97769 0.100744 -0.00469099)
(10.313 0.386425 -0.0535102)
(8.50875 -0.585593 -1.97867)
(9.88315 -0.0449919 0.0515932)
(9.9713 0.0697288 0.0892249)
(10.1548 -0.0044125 0.0742323)
(11.7237 -0.0157327 0.587862)
(9.99682 -0.0125085 -0.00422079)
(11.7972 0.542622 0.350681)
(10.1811 -0.00830521 0.0368715)
(3.8 1.59057 1.33715)
(11.5777 0.468101 0.152908)
(10.1681 -0.00739065 0.0557798)
(11.6531 0.500625 0.263514)
(10.0275 -0.00822173 -0.0139619)
(10.1203 -0.0138648 0.00218204)
(10.4313 0.277832 0.00132584)
(10.1953 0.012419 0.0207371)
(11.8191 0.601673 0.190658)
(9.98411 -0.0555603 0.0496441)
(9.99958 -0.277628 0.0483763)
(11.7052 0.539277 0.100303)
(10.0124 -0.0170669 0.0163801)
(10.2039 -0.0157415 0.0124838)
(10.0077 0.00566809 -0.00618907)
(10.0406 0.0107952 0.0209252)
(6.80353 0.280781 -4.65911)
(6.60839 -0.212812 -5.19773)
(10.0835 0.0570878 0.39594)
(8.68837 0.317013 -3.7738)
(10.0264 0.00449252 -0.00267048)
(9.95522 -0.013292 0.000910748)
(10.6201 0.498949 -0.250465)
(10.1822 -0.109256 0.10079)
(9.76205 0.0565066 0.59722)
(10.0652 -0.0101913 0.0175665)
(9.96653 -0.0263091 -0.0586589)
(10.044 -0.0288394 0.0343249)
(9.93547 0.150839 -0.0594426)
(5.1777 0.0817235 -5.81277)
(4.50476 -1.70328 -0.738651)
(10.0486 0.0079751 0.00551981)
(10.003 0.0890735 -0.0310745)
(9.89639 -0.0692498 -0.00687027)
(9.98007 -0.034168 0.0248782)
(10.0454 -0.061049 0.00407458)
(10.095 0.0342268 0.00644981)
(10.8477 -0.176729 0.148417)
(11.3038 -1.50211 2.29336)
(10.0264 0.00808941 -0.00679487)
(10.016 -0.0720156 0.0184549)
(10.1033 0.0161861 0.0759132)
(10.0112 -0.0182389 0.0732281)
(9.88316 0.124385 -0.00889081)
(10.0464 -0.0221266 0.106589)
(10.3664 -0.11592 0.0207324)
(10.0115 0.0140886 0.00915998)
(10.0151 -0.0615578 -0.0676472)
(10.1246 -0.0817186 0.051384)
(9.18078 -0.793174 -0.962501)
(5.09095 0.571313 -4.27688)
(9.94123 0.00386796 -0.0249832)
(-0.538558 -1.54694 1.14926)
(9.95766 -2.59968 1.39743)
(12.6859 -1.38011 -0.88376)
(-0.321479 -1.65188 0.75348)
(10.0544 0.0467687 0.00529236)
(8.66193 -0.163474 0.772444)
(10.2784 -0.497274 -2.26451)
(11.037 -1.07337 0.438372)
(5.58241 0.2674 -3.29716)
(-0.351105 1.67416 2.35546)
(1.37478 0.421825 -2.88717)
(11.1861 -0.0150322 0.507777)
(10.4787 -0.021499 -0.00768831)
(11.0625 -0.0200777 0.976838)
(10.0706 -0.0208351 -0.0172274)
(3.88697 -0.265169 0.165374)
(10.5866 -0.0404598 -0.326338)
(10.4438 -0.000866206 -0.0175912)
(9.96797 -0.0105183 0.0109912)
(10.1049 -0.0517493 0.0121766)
(11.0825 -0.193316 0.827857)
(9.77038 0.136712 -0.00300813)
(10.1028 0.0588819 0.076027)
(9.98888 0.0231118 -0.0550786)
(-3.11086 0.739061 0.615875)
(8.09589 0.253495 -2.14487)
(10.135 0.0138708 -0.0719137)
(10.0017 -0.0230781 -0.00846151)
(5.11646 0.295512 -1.89971)
(5.90074 0.137113 -2.59451)
(10.4602 0.44671 -2.11967)
(-2.1501 -3.48989 -1.45928)
(4.89894 1.24302 0.404857)
(4.26595 0.11268 -3.33815)
(3.96283 0.0447532 -4.21273)
(10.0488 0.0179585 -0.014945)
(9.89456 0.0142648 -0.0208974)
(9.55771 -0.0443528 0.167831)
(9.92888 -0.0375644 0.0278224)
(10.3652 0.0377648 -0.0747512)
(-0.562719 1.77509 1.42985)
(10.7197 -0.113828 -0.250986)
(10.3822 0.0219565 -0.0661779)
(10.3691 0.0128997 -0.0132826)
(10.0464 -0.0436346 0.0313101)
(-0.366461 1.7117 2.17583)
(-0.126526 1.88268 2.21604)
(9.92787 -0.0588778 0.0380318)
(10.3353 -0.0434928 -0.0219792)
(9.94881 0.0313312 0.0814007)
(9.91249 -0.00966038 0.0170813)
(10.358 -0.0345538 -0.00453996)
(9.97855 0.0192645 0.0417138)
(9.68561 0.00817655 0.0092054)
(10.056 -0.0196814 -0.0486161)
(9.95626 -0.0315023 0.00121472)
(6.76871 -0.609682 -2.75144)
(9.90662 0.00494492 -0.0601368)
(9.99057 0.0327066 0.0367014)
(10.0104 -0.0960078 0.0447254)
(10.007 0.0685351 -0.00558724)
(10.0387 0.00936753 -0.0330899)
(4.09146 -0.447593 -1.96003)
(12.3539 -1.24163 -0.0632405)
(10.002 -0.0202479 -0.0284677)
(10.5183 0.408307 -0.187162)
(10.0617 -0.0501988 -0.0318534)
(9.80928 -0.377774 0.200772)
(9.71954 -0.421205 0.323985)
(11.7172 -0.0260183 -0.0437121)
(10.0172 -0.104987 0.042263)
(-1.01703 -0.815558 3.23616)
(11.8592 -0.0963668 -0.0609856)
(10.3563 0.143798 -0.0043733)
(10.576 0.177703 0.0208613)
(8.05036 0.281006 -3.04075)
(13.8963 1.66949 0.380314)
(10.0347 -0.0810344 -0.0299057)
(10.0393 -0.101982 -0.00230344)
(12.2463 1.2393 1.78897)
(10.0239 0.0240583 -0.125719)
(10.0431 0.019553 -0.0290014)
(11.2686 0.306301 0.353071)
(9.99166 -0.11745 0.00790307)
(9.97542 0.0213099 0.00586917)
(0.786075 -0.89857 0.896193)
(12.2078 -0.32225 0.41225)
(12.9206 2.56561 0.493031)
(10.0139 0.0014684 0.00606933)
(7.64155 0.483173 -2.26005)
(9.98926 -0.106805 -0.0656718)
(11.4041 -0.902099 -0.203083)
(9.60214 -0.370937 0.445732)
(11.7794 -0.0405936 -0.0293611)
(10.2141 0.103224 0.0135189)
(9.42432 -0.365885 0.418072)
(3.06286 0.96929 1.67828)
(12.3463 1.35977 2.23859)
(11.988 -0.33361 -0.73409)
(-1.07592 1.88189 2.67995)
(11.6926 0.310757 0.0632134)
(10.3089 0.084947 0.107519)
(10.1365 0.0246889 -0.0553419)
(11.637 0.777891 -0.138512)
(9.99015 -0.0480157 0.0586799)
(11.9396 -0.042885 0.100952)
(-0.153692 -0.909849 2.28782)
(9.97604 -0.0139746 0.0797975)
(12.23 0.0167055 -1.06705)
(9.95327 -0.0340187 -0.0764024)
(10.0019 -0.0396699 -0.0699611)
(11.352 -2.0141 1.56581)
(10.1217 -0.0538906 -0.0221908)
(9.9901 -0.0687618 -0.0854615)
(8.49997 -5.69537 0.547001)
(9.58798 0.412504 0.0122874)
(9.95197 -0.182644 0.14036)
(12.2128 -0.848141 0.301281)
(10.2777 1.25718 1.44098)
(10.1086 -0.12656 0.0161812)
(11.8725 -2.09089 -0.396664)
(5.39077 -0.677009 0.229197)
(10.3945 0.0463568 0.0964415)
(9.50677 -0.657361 -0.625188)
(10.0251 0.00901733 0.0088279)
(10.1807 0.125992 0.0235369)
(10.1583 -0.0697013 0.0658627)
(10.1279 -0.0491801 0.0345203)
(4.57876 1.83816 -2.76987)
(0.721289 -1.33255 1.47842)
(11.7161 0.156609 -0.580657)
(9.6901 -1.21556 -0.111723)
(11.4883 -1.99429 -0.0216247)
(3.47103 5.83193 -0.765669)
(0.246695 -0.0908812 -1.45354)
(10.3046 -3.34362 4.3469)
(10.0986 -0.0289609 -0.0542454)
(10.0224 0.0438311 -0.0012598)
(9.95498 -0.0263233 0.00973616)
(10.0155 -0.120112 -0.114368)
(6.93766 0.548818 -1.84255)
(9.68175 -0.521644 0.333594)
(9.26621 -0.470649 1.29723)
(9.94802 0.0372338 0.0344137)
(-1.49873 -1.01788 0.821842)
(11.8763 -0.0403412 -0.00833537)
(9.85467 0.209075 -0.0212101)
(10.0493 -0.0243602 -0.0698884)
(10.0273 0.00234231 0.00504176)
(10.023 0.0235931 -0.114953)
(6.18204 -1.75718 -2.77314)
(10.0145 0.0425747 0.0152452)
(6.97 5.89777 -0.124873)
(10.0283 -0.139907 0.0294187)
(9.9919 -0.596681 -2.74833)
(10.0047 0.00272392 0.00638748)
(10.0405 -0.0113988 0.00593475)
(10.0823 0.00868727 0.101651)
(10.165 0.0500168 0.0456106)
(9.96645 -0.00521518 -0.0167751)
(12.8094 0.331087 -0.233274)
(12.2621 0.0308526 0.247267)
(9.31241 1.18364 2.6378)
(7.46931 3.98752 2.77216)
(9.48249 0.882802 0.631371)
(10.229 0.453122 -0.0513906)
(11.1483 0.706468 0.18959)
(6.34764 -0.295901 -2.59161)
(10.3289 -0.10774 0.0463929)
(10.6825 0.0588841 -0.0756341)
(10.139 -0.492349 0.099996)
(11.6395 0.0637491 -0.036929)
(9.25273 0.160708 5.00542)
(7.34818 -0.447675 0.580628)
(10.3023 -0.251235 0.170698)
(10.0017 0.0317434 0.0132887)
(9.58235 0.87066 -0.175858)
(10.0529 -0.0120523 0.00143976)
(10.0731 0.0483721 0.00998264)
(14.4036 -1.89178 1.82725)
(11.884 -0.741735 0.64754)
(-0.569405 3.61118 0.259618)
(10.1753 -0.712742 0.292168)
(11.6267 -0.855111 -0.184927)
(10.2925 -0.955837 -0.913756)
(13.146 0.160167 -1.2206)
(10.1073 -0.100183 0.0687548)
(-1.21238 -1.3132 -0.50421)
(10.0261 0.0151462 -0.0865461)
(10.005 0.0477712 -0.0508655)
(10.7461 -0.13322 0.710142)
(10.8127 0.191328 5.26825)
(10.1792 -0.0577331 0.0242162)
(10.0607 0.467857 -0.316694)
(10.069 -0.0158388 0.0441466)
(10.7233 -0.934619 0.625579)
(10.9765 0.00796461 0.959805)
(10.0202 -0.00205795 -0.0214389)
(10.7777 -0.444829 -2.71027)
(10.2666 -0.650138 -3.08667)
(12.8585 0.14773 0.588679)
(10.2464 0.41531 -0.118054)
(9.69941 0.0170021 0.319554)
(3.17148 0.689236 -3.18172)
(1.15507 0.488304 3.85347)
(5.52582 3.13427 1.04331)
(12.6735 -0.823767 -2.40465)
(5.75221 -0.37854 -0.0815032)
(9.95161 -0.0270722 -0.182228)
(9.92931 -0.0363699 0.00631032)
(8.70006 1.47596 2.99079)
(10.0142 -0.0945457 0.133089)
(4.60196 -0.603837 0.223633)
(9.99715 -0.0755178 -0.174516)
(9.99495 -0.040936 -0.187813)
(-2.33916 2.05079 -0.472861)
(9.72012 -1.0779 0.960287)
(10.8145 -0.183131 0.182181)
(10.0694 -0.050671 0.0251672)
(9.80104 0.0626638 0.0674994)
(8.22666 0.306503 -2.49169)
(10.0125 0.0618852 0.136923)
(10.0141 -0.00806386 0.0107639)
(10.2428 0.585953 1.02736)
(11.9637 -0.733869 -2.51276)
(10.2795 0.267619 0.127402)
(9.86324 0.143624 0.00121323)
(9.87563 -0.139006 0.0431489)
(9.95939 0.00753776 -0.0520828)
(9.91215 -0.0721341 -0.0209378)
(11.6029 -0.739125 -1.62423)
(11.5697 0.0542643 -0.099726)
(8.45541 0.0189869 0.237247)
(9.85796 -0.860704 0.609976)
(9.79558 -0.0887183 -0.0182911)
(10.0433 -0.0693962 -0.0510355)
(9.87647 -0.040437 0.0221418)
(9.91364 -0.0430147 0.00324227)
(10.4203 0.796424 0.324313)