/*--------------------------------*- C++ -*----------------------------------*\
| =========                 |                                                 |
| \\      /  F ield         | OpenFOAM: The Open Source CFD Toolbox           |
|  \\    /   O peration     | Version:  2506                                  |
|   \\  /    A nd           | Website:  www.openfoam.com                      |
|    \\/     M anipulation  |                                                 |
\*---------------------------------------------------------------------------*/
FoamFile
{
    version     2.0;
    format      ascii;
    arch        "LSB;label=32;scalar=64";
    class       volScalarField;
    location    "0.0263738";
    object      k;
}
// * * * * * * * * * * * * * * * * * * * * * * * * * * * * * * * * * * * * * //

dimensions      [0 2 -2 0 0 0 0];

internalField   nonuniform List<scalar> 
3991
(
0.351377
0.444777
0.344866
0.719406
0.369368
0.728758
0.385221
0.43501
1.15986
0.395289
0.573787
0.70906
0.376705
1.0707
0.379668
1.00424
0.385879
0.428604
0.847061
0.517983
0.621425
0.384778
0.62047
0.709254
0.570422
0.919947
0.522161
0.85033
0.419396
0.978794
0.655069
1.18196
0.455136
0.478256
0.804691
1.13179
0.604504
0.496007
1.07566
0.579308
0.525941
0.492628
0.482788
0.486626
0.439966
0.826815
0.725637
1.29832
0.657344
0.442034
0.36377
0.528125
0.377352
0.664586
0.371792
0.625014
0.549642
0.454584
0.507833
0.588736
0.394833
0.428127
0.665971
0.316848
0.612006
1.05548
0.692692
0.717137
0.411281
0.383662
0.538506
0.507699
0.363355
0.576164
0.398638
1.18327
0.40992
0.886275
0.394641
0.357243
0.634565
0.506135
0.556304
0.647285
0.5517
0.588026
1.20888
0.388827
0.484209
0.458648
0.442872
0.726824
1.00535
0.641022
0.717254
0.388024
0.910275
1.18605
0.368177
0.557064
1.3531
0.457937
0.452541
0.293354
0.38091
0.393131
0.682212
0.379105
0.39456
0.379081
0.385458
0.376416
0.373811
0.402024
0.398844
0.397745
0.343164
0.338971
0.340945
0.346928
0.379548
0.647223
0.377312
0.547596
0.822741
0.541679
0.367651
0.358605
0.380411
0.395111
0.366809
0.378595
0.402312
1.27301
1.37918
0.635608
0.360371
0.382788
0.39089
0.400275
0.445593
0.855774
0.505969
0.830048
0.704233
0.417848
0.366316
0.412449
0.732304
0.364028
0.366323
0.362989
0.36748
0.59184
0.701342
0.629834
0.528173
0.778525
0.751689
0.757157
0.361843
0.406711
0.379459
1.22372
1.15289
0.929214
0.692505
0.767908
0.775432
0.409482
0.399697
0.634454
0.618853
0.42837
0.374237
0.455222
0.555441
0.578837
0.386216
0.347374
0.439592
0.653595
0.57385
0.369894
0.46861
0.35761
0.449025
0.574686
0.482841
0.383348
0.464704
0.514444
0.639121
0.465167
0.488196
1.13986
0.447199
1.01831
0.366319
0.446018
0.661827
0.523481
1.09859
0.662592
0.706682
0.673438
0.909076
0.537288
0.775394
0.390624
1.11119
0.548823
0.960366
0.474409
1.04734
0.438039
0.799081
0.790148
1.32772
1.08508
0.368004
1.08343
1.01209
0.635341
1.06813
0.906882
0.497285
1.09299
0.712773
0.350627
0.746833
0.396168
0.505082
0.392483
0.617207
0.759649
0.421497
0.929006
0.676425
0.436831
0.564437
0.512753
0.398219
0.436515
0.596833
0.916171
0.365724
0.655801
0.380681
0.798644
0.864169
0.601801
0.437967
0.474329
0.828058
1.16695
0.345939
0.553604
0.452317
0.412193
0.521839
0.444932
0.631423
0.515467
0.967311
0.555008
0.563553
0.902278
0.898855
0.727385
0.856426
0.829773
0.675255
1.05615
1.37484
0.853794
1.08211
0.986647
0.44836
0.516536
0.4765
0.640993
0.531837
0.529369
0.618034
0.562517
0.548741
0.455128
0.443382
0.436063
0.454572
0.381966
0.875063
0.483805
0.673073
0.66636
0.973922
0.376142
1.06818
0.372746
0.721108
0.926512
0.388776
0.847925
0.661155
0.624061
0.822787
0.355564
0.387102
0.858151
0.3957
0.387726
0.755707
0.405092
0.392557
0.367115
0.581686
0.467205
0.378693
0.447957
0.536314
0.367723
0.486471
1.00685
0.480849
0.493297
0.427788
0.387695
0.384484
0.384282
0.506958
0.472706
0.351537
0.349613
1.16949
0.835733
0.554976
0.437956
0.408155
0.660571
0.408603
0.380137
0.363951
0.410717
0.428362
0.410736
0.36896
0.48404
0.460441
0.606128
0.776776
0.399495
0.742424
0.505668
0.362488
0.873998
1.27582
0.652167
0.967875
0.348821
0.369005
0.496333
1.21198
0.404148
0.424317
0.402405
1.06343
0.597121
0.816388
0.46256
0.440873
0.46368
1.17644
0.610004
0.919971
0.392516
0.429332
0.752303
0.466144
0.406387
0.378849
0.356824
1.01071
0.397896
0.390077
0.395083
0.769783
0.374205
0.368453
0.476103
0.419506
0.969921
0.369476
0.453762
1.19253
0.346424
0.672991
0.931888
1.12027
0.627132
0.400802
0.547279
0.870989
0.816527
0.447194
0.636156
0.373461
0.904698
0.577456
0.962516
0.418091
0.480733
0.390722
0.429433
0.386952
0.420367
0.515477
0.357898
0.508063
0.396348
0.368308
0.480271
0.419626
0.874899
0.436394
0.549549
0.407047
0.434
0.471224
0.364201
0.561437
0.874854
0.574298
0.395385
0.469552
0.409521
0.558173
0.688086
0.452587
0.389106
0.462791
0.359149
0.361386
0.620201
0.523215
0.674466
0.499657
0.659777
0.503504
0.705388
0.926575
0.578178
0.381841
0.437301
0.628862
0.46674
0.408634
0.810256
0.657254
0.415599
0.682986
0.379971
0.380002
0.718654
0.444028
0.83797
0.453518
0.374897
0.395625
0.378538
0.596007
0.394654
0.450043
0.801744
0.354905
0.57377
0.490415
0.427748
0.389646
0.361447
0.397944
0.529353
0.357256
0.80766
0.682809
0.399631
0.432279
0.381317
0.370877
0.360677
0.45024
0.38617
0.372841
0.391437
0.416207
0.403732
1.35483
0.414344
1.1565
0.409883
0.377583
0.715421
0.449039
0.662225
0.382891
0.424028
0.405296
1.01742
0.40269
0.388002
0.413585
0.52786
0.690181
0.770498
0.662291
0.598575
0.475165
0.394981
0.645621
0.591739
0.495716
1.04972
0.829275
0.6589
0.566806
0.586586
0.780071
0.366867
0.355147
0.391903
0.349038
0.549609
0.492507
1.0068
0.580981
0.447913
0.545142
0.358149
0.397649
0.590378
0.386737
0.793695
0.532393
0.434359
0.378636
0.372758
0.577651
1.04285
0.84152
0.650799
0.642253
0.561738
0.740909
0.648127
0.531252
0.575433
0.345938
0.556966
0.672107
0.50212
0.604597
0.928655
1.37013
0.489654
1.00305
0.532317
0.659979
0.861707
0.530937
0.471342
0.470129
0.389147
0.385402
0.389446
0.392869
0.397712
0.81111
0.50826
0.475615
0.466358
0.537189
0.483201
0.940329
1.05038
0.696595
0.95527
1.21135
0.355728
0.413686
0.359153
0.405131
0.405949
0.350068
0.390791
0.438036
0.367521
0.340601
0.358674
0.354804
0.38963
0.35441
0.360271
1.13611
0.578509
0.787116
0.410083
0.620737
0.74535
0.557154
0.56602
0.403451
0.429397
0.414721
0.524665
0.55532
0.551595
0.414133
0.388207
0.396495
0.380721
0.404484
0.417295
0.410772
0.391099
0.406224
0.494528
0.450656
0.416467
0.722224
0.512623
0.869599
0.415831
0.500269
0.690105
0.489384
0.395157
0.40574
0.409934
0.387746
0.411321
0.418827
0.440786
0.455627
0.3654
0.473153
0.449484
0.569742
0.376497
0.700187
1.10531
0.421358
0.519022
0.638591
0.375115
0.373288
0.363731
0.388621
0.784816
0.901261
0.875605
0.694118
0.916103
0.952719
1.05136
0.835422
0.403216
0.399248
0.667153
0.926115
1.37333
0.398806
0.390135
0.39823
0.46454
0.398473
0.448132
0.666904
0.606013
0.491969
0.485988
0.460675
0.359459
0.398061
0.594716
0.657667
0.359139
0.406276
0.401327
0.386436
0.44463
0.346159
0.36229
0.374025
0.368129
0.390147
0.374202
0.482384
0.392703
0.67978
0.908876
1.0865
0.357112
0.434787
0.36583
0.349292
0.450212
0.727699
0.726379
0.641316
0.622683
0.379899
0.458708
0.471745
0.440135
0.377087
0.646851
0.396127
0.493798
0.456278
0.953989
0.889183
1.04537
0.396715
1.17108
0.385744
0.766991
0.403332
0.502467
0.700374
0.689748
0.493273
0.69439
0.350258
0.622277
1.16234
0.573589
0.393196
0.364941
0.410729
0.55741
0.377721
0.435827
0.353274
0.400495
0.605319
0.585251
1.02317
1.01209
0.933206
0.87741
0.435134
0.505758
0.586874
0.410444
0.578689
0.875966
1.01889
1.0401
1.10898
1.25532
0.843118
0.48513
1.29939
0.402815
0.82002
1.22905
0.836211
0.935441
1.08906
0.740109
0.949929
0.768914
1.05815
0.503446
0.501023
0.34748
0.611593
0.416764
0.416717
0.417604
0.374819
0.409661
0.539937
0.572627
0.501463
0.425084
0.457223
0.496289
0.46923
0.499735
0.422338
0.435489
0.424925
0.399542
0.360672
0.361496
0.444307
0.453482
0.371082
1.12691
0.351348
1.27022
0.424836
0.353451
1.21809
1.20692
0.612885
0.739958
0.466717
0.477572
0.407345
0.846255
0.378975
0.678824
0.65522
0.442469
0.371479
0.601775
0.371269
0.675988
0.515328
0.840965
0.767334
0.590229
0.398357
0.38787
0.76316
0.650289
0.526531
0.900237
0.461664
0.86423
0.89167
0.656073
0.369743
0.356787
0.503534
0.643645
0.709074
0.438727
0.40694
0.410875
0.879967
0.654289
0.368123
0.378095
0.469301
0.364208
0.352083
0.354025
0.379625
0.357555
0.355061
0.364216
1.00251
0.962802
1.00716
1.14827
1.38919
0.977562
0.891347
0.920027
1.38709
1.02171
1.12767
0.442256
0.414075
0.48441
0.451104
0.788581
0.359993
0.543478
0.574442
0.966509
0.692792
0.70166
0.571655
0.633118
0.784692
0.638282
0.681635
0.928907
0.869148
0.822784
1.0326
1.56127
0.352909
0.357458
0.992647
0.686256
0.360429
0.359335
0.42748
0.419502
1.05609
0.419714
0.453848
0.400454
0.387709
1.12242
0.360143
0.380341
0.395367
0.383532
0.438217
0.429532
0.393759
1.01903
0.837948
0.562971
0.640794
0.703536
0.627602
0.432781
1.23492
0.432577
0.506527
0.350257
0.421749
0.35885
0.386814
0.376564
0.438802
0.379932
0.391177
0.648953
0.381576
0.425987
0.609603
0.447042
0.443817
0.715798
0.574963
0.424922
0.485392
1.07431
0.70842
0.432589
0.522597
0.372659
0.671537
0.601906
0.441563
0.389579
0.50474
0.488997
0.534629
0.899202
0.814101
0.621245
0.570723
0.471491
0.519719
0.378056
0.376825
0.414145
0.369567
0.438557
0.41209
0.758762
0.5256
0.855227
1.0787
1.03253
0.818913
0.701074
0.629012
0.689524
0.634698
0.966135
0.547843
0.490931
0.40578
0.593987
0.456054
0.35011
0.347909
0.403946
0.382858
0.466866
0.410456
0.478528
0.396024
0.365473
1.18925
0.611707
0.366488
0.789791
0.38624
0.745036
0.379675
0.391774
0.356684
0.509694
0.356332
0.414837
0.402735
0.759263
0.465355
0.840593
0.994563
0.608339
0.982925
0.440057
0.48614
0.838423
0.884301
0.437447
0.412424
0.480131
1.14389
0.434812
0.622347
0.488214
0.483884
0.447393
0.560523
0.459481
0.400286
0.457402
0.4438
0.490338
0.37059
0.853451
0.650965
0.457021
0.898518
0.402891
0.367634
1.02511
0.420102
0.844071
0.898947
0.66783
0.835279
0.410154
0.794468
0.597859
0.424943
0.516612
0.788992
0.618494
0.731578
0.741233
0.796332
0.630752
1.33335
1.06904
0.675106
0.411475
0.703104
0.793042
0.984769
0.500243
0.960635
0.52655
0.771921
0.407629
0.405323
0.961686
0.929454
1.20432
1.4984
1.35114
1.1877
0.576705
0.600549
0.420852
0.748925
0.648347
0.471287
0.613271
0.920469
0.750197
0.895952
0.375427
0.445081
0.690369
0.390659
0.355765
0.45598
1.33311
0.431109
0.414069
0.545313
0.433599
0.406133
0.59734
1.03914
0.446902
0.87047
0.359398
0.377077
0.505569
0.362427
0.393657
0.542375
0.900009
0.394574
0.446017
0.395463
0.419076
0.370874
0.473907
0.470347
0.510953
0.944847
0.566493
1.2763
0.584307
0.89666
1.07322
0.799007
0.614542
0.554203
1.11246
0.588338
0.676143
1.39622
0.651182
1.02724
0.814413
0.558249
0.641235
0.789449
1.33544
0.847051
0.809856
0.459553
0.535912
0.482435
0.338553
0.499118
0.482609
0.418128
0.372509
0.416898
0.86315
0.408911
0.592508
0.62906
0.366744
0.370985
0.651624
0.561347
0.39247
0.535181
1.32945
1.02544
0.607891
1.02362
0.489479
0.640163
0.537859
0.645176
1.01569
0.580681
0.386373
0.396543
0.449782
0.392192
0.451159
0.958492
1.00039
1.19109
0.682845
0.677809
0.984507
0.649509
0.375749
0.39516
0.431212
0.647691
0.420685
0.380693
0.392719
0.570307
0.609939
0.542699
0.374859
0.486928
0.45573
0.355445
0.362402
0.358332
0.354382
0.368853
0.732997
0.406251
0.45307
0.526392
0.730781
1.4143
0.53613
0.49904
0.458997
0.910484
0.756082
0.42015
0.441513
0.449272
0.9467
1.02282
0.480652
0.538628
0.492429
0.382227
0.392972
0.379594
0.383664
0.389878
0.390697
0.387321
0.395721
0.39769
0.392831
0.409537
0.38242
0.376037
0.575056
0.506812
0.478372
0.433862
0.446222
0.582745
0.60069
0.383355
0.396015
0.407157
0.422043
0.475729
0.520745
1.09695
1.21206
0.451164
0.613393
0.998142
0.488409
0.420951
0.940167
0.622586
0.929608
0.544892
0.962709
0.842786
0.619233
0.941845
0.466727
0.880634
0.50645
1.03459
0.712382
0.581379
0.443928
0.451517
0.695392
1.10845
0.500672
0.701184
0.634873
0.572224
0.402664
0.616319
0.49705
0.752082
0.909373
0.744325
0.469895
0.635396
0.467056
0.65943
0.47646
1.79497
0.937433
0.653637
0.444915
0.434901
0.585539
1.0787
1.14237
0.893285
0.572907
0.997172
0.604801
0.52521
0.643741
1.21599
1.29928
1.28758
1.25684
0.348855
0.354049
0.345453
0.655541
0.352735
1.00917
0.718476
0.555742
0.612896
0.35798
0.356232
0.472859
0.579618
0.669761
0.95978
0.366646
0.750613
0.343064
0.728855
0.809953
0.979039
0.840028
0.778877
0.417087
0.422124
0.358746
0.575744
0.940914
0.954626
1.20344
0.700646
0.852201
0.357746
0.380568
0.360596
0.362511
0.365412
0.377092
0.3738
0.455828
0.393146
0.456185
0.999539
0.936414
0.578622
0.402554
0.366258
0.422556
0.560077
0.372304
0.368623
0.380469
0.362739
0.442692
0.438535
0.457399
0.855248
0.418495
0.652988
0.742916
0.493933
0.401457
0.425753
0.523739
0.399032
0.411471
0.434086
0.406803
0.444528
0.792904
0.675567
0.35417
0.343757
0.817461
0.724035
0.922456
0.375436
0.389435
1.26241
0.531098
0.930376
1.33835
0.614558
0.880621
0.505756
0.436509
0.737999
0.699811
0.536702
0.535648
0.498486
0.754744
0.515933
0.587291
0.492059
0.79932
0.938041
0.428811
0.36736
0.518056
0.654962
0.476804
0.553099
0.706997
1.04043
1.18484
0.357254
0.450896
0.356323
0.364788
0.45073
0.400166
0.429595
0.358513
0.803755
0.818076
1.0198
1.44385
1.24415
0.695034
1.31546
0.65054
0.820879
1.14359
0.987469
0.413949
1.10789
0.43245
0.428308
0.57413
1.00149
0.442911
0.476889
0.385657
0.497887
0.435783
0.676947
0.757933
0.428851
0.455237
0.539106
0.567032
0.532163
0.770255
0.672599
0.60215
0.554118
0.456262
0.390233
0.500425
1.27853
1.43339
0.571107
0.651956
0.730659
0.910833
0.776594
1.38196
0.573751
1.04632
0.712943
0.540805
0.658337
0.80105
0.731136
0.748779
0.799167
0.420092
0.399493
0.385945
0.436814
0.40252
0.395337
0.415261
0.564894
0.479616
0.36003
0.350657
0.350003
0.36344
1.27891
1.26129
1.29238
0.819017
0.344118
0.346321
0.36231
0.350315
0.355752
0.342424
0.353195
0.344479
0.410672
0.395344
0.654188
0.50347
0.847283
0.362661
0.494512
0.400195
0.599676
0.376656
0.598516
0.544435
0.610486
0.560678
0.349343
0.4042
0.937266
0.780815
0.594308
0.358467
0.860243
0.358241
0.375452
0.920861
0.972925
0.640863
0.936552
0.965042
0.541896
0.936968
0.676442
0.566381
0.365704
0.543885
0.345451
0.41359
0.93226
0.507841
0.39836
1.0465
0.584073
0.393173
0.615495
0.968495
0.387851
0.41259
0.389978
0.441751
1.10032
0.503983
1.05786
0.388974
0.609293
0.421765
0.559749
0.637341
0.62232
0.940228
0.505353
0.68497
0.667764
0.91736
0.58672
1.44134
0.680604
0.631264
0.721068
0.479291
0.471948
0.439575
0.39534
0.424997
0.401619
0.700198
0.413939
0.387188
0.382605
0.389906
0.532905
0.453627
0.509765
0.470678
0.436721
0.426953
0.386905
0.417488
0.348152
0.372234
0.389064
0.365288
0.418442
0.353327
0.426154
0.464327
0.505632
0.459369
0.486864
0.354049
0.360485
0.376924
0.377602
0.760796
0.368729
0.404998
0.542712
0.439812
0.373484
0.781928
0.569803
0.458915
0.3834
0.412442
0.403878
0.387082
0.354547
0.908901
0.34668
1.16883
0.376502
0.384924
0.362132
1.1188
0.887111
0.45538
0.771211
0.354828
0.902123
0.758775
0.438483
0.648802
0.513718
0.95635
0.437554
0.449109
0.457726
0.419616
0.391525
1.1282
0.989863
0.433357
0.686959
0.37841
0.421902
0.373408
0.400586
0.823961
0.566575
0.449239
0.380154
0.500573
0.405531
0.433114
0.579301
0.59773
1.05549
0.367714
0.446709
0.903133
0.455351
0.385846
0.417212
0.376683
0.377936
0.442011
0.356537
0.37148
0.416406
0.442171
0.356899
0.384262
0.402944
0.373249
0.372286
0.367466
0.369562
0.378179
0.548226
0.359342
0.354967
1.11371
0.896372
0.517587
0.697954
0.383319
1.22111
0.370285
0.442478
0.371218
0.357791
1.18962
0.393015
0.687341
0.357026
0.462937
1.04912
0.557103
0.516531
1.04759
1.09014
1.09092
0.967217
1.08339
0.628216
0.488822
0.438984
0.377484
0.352057
0.926056
0.616833
0.497651
0.506879
0.397873
0.604051
0.445283
1.05879
0.470789
0.456996
0.452046
1.07844
1.28225
1.10519
1.14029
1.09345
1.23352
0.6365
0.362336
0.937028
0.393996
0.373627
0.386103
0.383383
0.407257
0.366428
0.369782
0.406487
0.422592
0.982742
0.636425
0.818754
0.426949
0.767392
0.469692
0.45281
0.412961
0.421067
0.613615
0.467196
0.415288
0.498976
0.635659
0.885856
0.473294
0.648985
0.982768
0.876709
1.10309
1.10419
0.823835
0.74219
0.410993
0.897269
1.02708
0.45681
1.00786
1.02871
0.602737
0.58718
0.566763
0.680379
0.711555
0.72615
0.734712
0.771851
0.796289
0.351581
0.529552
0.751558
1.01531
1.20585
0.746971
0.411633
0.501869
0.386756
0.355702
0.989331
0.604438
0.576718
0.903009
0.431349
0.376587
0.388621
0.419771
0.426033
0.544437
0.372715
0.53806
0.519816
0.459375
0.813244
0.365604
0.376917
0.413395
0.439355
0.423488
0.452534
0.393927
0.42265
0.419788
0.41796
0.395708
1.23154
0.483467
0.477227
0.855206
0.474711
0.680911
0.495927
0.627324
0.739844
0.651287
0.713606
0.572043
0.453793
0.496404
0.39719
0.511858
0.49944
0.397516
0.372733
0.446305
0.464694
0.401683
0.442593
0.417118
0.43725
0.428239
0.799868
0.937239
0.752855
0.833965
0.49392
0.347691
0.344428
0.361232
0.383442
0.388937
1.12724
0.349869
0.350066
0.390862
0.687218
0.392971
0.405489
0.394916
0.431832
0.568483
0.532176
0.354498
0.736932
0.478401
0.502641
0.459083
0.505128
0.445502
0.434127
0.446418
1.56649
0.944921
1.20617
1.13925
1.10053
0.980418
0.787122
1.08594
0.867904
0.940033
0.922353
1.11004
0.557553
0.805707
0.824292
1.11341
0.545449
0.482121
0.558561
0.395568
1.10713
0.573324
0.819769
0.799352
0.406412
0.394092
0.666462
0.354049
0.422353
0.785552
0.527885
0.832499
0.446435
1.09039
0.572532
0.801659
0.742031
0.366689
0.468703
0.376261
0.410304
0.371744
0.396886
0.513871
1.00837
0.448919
0.581336
0.934344
0.457055
0.504976
0.526341
0.381171
0.489905
0.595645
1.1782
0.760985
0.599781
0.913201
0.380752
0.374573
0.688017
0.696127
0.635359
0.495627
0.761484
0.538024
0.51626
0.493829
0.361416
0.378092
0.348429
0.383286
0.35411
0.356407
0.71539
0.709735
0.578349
0.522455
0.386306
0.351138
0.576094
0.877477
0.996412
0.557196
0.539034
0.860511
0.557212
0.47489
0.523918
0.558981
0.617235
0.649918
0.678981
0.51468
0.520628
0.882242
0.568526
0.53728
0.616758
0.998836
0.573928
0.417387
0.40522
0.358394
0.372814
0.682314
0.591945
0.385437
0.45453
0.562198
0.404087
0.414427
0.399536
0.42102
0.409804
0.43075
0.437278
0.443701
0.651223
0.730919
0.369748
0.37778
0.347327
0.769224
0.457161
1.05203
0.418941
1.01406
0.970405
0.647823
0.619514
0.594028
0.493356
0.86914
0.513328
0.473215
0.658127
0.428125
0.458542
1.05378
0.578568
0.638884
0.472999
0.585389
0.458604
0.710225
0.509758
0.563615
0.484191
0.469369
0.549521
0.503668
0.368643
0.872664
0.871813
0.390368
0.38639
0.389256
0.411395
0.987912
1.00108
0.609137
0.76955
0.414066
0.416303
0.42262
0.67045
0.863749
0.663605
0.894738
0.418696
0.82552
0.730021
0.709514
0.657776
0.382987
0.958955
0.527419
0.598786
0.569869
0.834508
0.863968
0.79299
0.587241
0.38959
0.386581
0.743481
0.420183
0.390136
0.575928
0.553204
0.546098
0.550263
0.811467
0.449652
0.464782
0.419736
0.907092
0.415403
0.36176
0.367955
0.368606
0.370723
0.372948
0.422239
0.402456
0.370557
0.427257
0.439072
0.450936
0.437084
0.39425
0.40587
0.404012
0.82089
0.353691
0.676319
0.355856
0.5544
0.503152
0.353122
0.402545
0.486846
0.918262
0.606353
0.432217
0.40177
0.443424
0.443891
0.464185
0.877151
0.451022
0.455598
0.614528
0.474142
0.390878
0.438399
0.536481
0.552903
0.745052
0.679416
0.867239
0.782329
0.651663
0.456238
0.450263
0.495085
0.436478
0.456693
0.432833
0.732845
0.388786
0.494574
0.489628
0.542181
0.495884
0.404526
1.06489
0.882017
0.91738
1.36916
1.3188
0.859784
0.751097
0.409822
1.31106
0.526667
0.458673
0.444715
0.433877
0.389984
0.369609
0.359336
0.351886
0.3922
0.360889
0.716176
0.755393
1.06558
1.07564
0.490037
0.444121
0.441142
0.439873
0.386428
0.384849
0.644939
0.507972
0.719958
0.383002
0.664251
0.370389
0.874948
0.527283
0.38191
0.392183
0.964551
0.556984
0.821269
0.429619
0.348409
0.79008
0.407205
0.428541
0.381554
0.388218
0.392042
0.350035
0.373116
1.10548
0.36606
0.879552
0.77892
0.351945
0.365609
0.969055
0.446327
0.409451
0.885103
0.535711
0.418361
0.398601
0.454968
0.416917
0.572524
0.792694
0.637347
0.674966
0.754586
1.05615
0.812012
0.641351
1.04101
0.815925
0.762325
1.19664
0.406081
0.407208
0.411916
0.621292
0.666049
0.359779
0.871932
0.622624
0.347849
0.450049
0.438983
0.393157
0.607946
1.0282
0.518419
0.509884
0.87451
0.614011
0.713599
0.986777
0.396411
0.494633
0.436466
0.473583
0.485754
0.700587
0.647399
0.64257
0.815174
0.66609
0.347052
0.365156
0.453161
0.423015
0.408122
0.749161
0.645695
0.648691
1.13118
1.02836
0.383811
0.396566
0.417941
0.409748
0.417788
0.377238
0.419453
0.615957
0.781456
0.90335
0.735407
0.735063
0.580319
0.577365
0.830089
1.06376
1.02111
0.526853
0.608223
0.913229
0.480325
0.372989
0.559874
0.504628
0.802623
0.577618
0.807744
0.470553
0.59491
0.697081
0.47605
0.449831
0.462941
0.58258
0.704394
0.367248
0.610529
0.411444
0.397951
0.46295
1.17076
0.858311
0.385556
0.52336
0.393959
0.371726
0.388063
0.399568
0.362761
0.548298
0.497431
0.720116
0.514906
0.559301
0.80454
0.658749
0.725041
0.42487
1.14472
1.14427
0.977276
0.750909
0.726973
0.760224
0.656294
0.683208
1.2242
0.77424
1.0056
0.905945
0.688886
0.435473
0.409978
0.384342
0.373764
0.446557
1.41816
0.40713
0.373418
0.38049
0.693851
0.362956
0.34733
0.814528
0.546267
0.871694
0.979793
0.663228
0.554576
0.558199
0.862791
0.448223
0.444014
0.688739
0.434519
0.427352
0.462153
0.402606
0.579595
0.406969
0.412204
0.379969
0.376714
0.465819
0.635201
0.481473
0.57795
0.428678
0.829303
1.20711
0.893905
0.421945
0.533674
1.02768
0.405623
0.45433
0.50466
0.51202
0.670756
0.577805
0.624684
0.436914
0.431442
0.436136
0.429078
0.507766
1.15995
0.853462
0.492117
0.396609
0.55229
0.664885
0.845988
0.853609
0.743507
1.00865
0.540464
0.475653
0.584951
1.0218
1.07554
0.372592
0.45919
0.95922
0.87155
0.846453
0.459121
0.939816
0.448622
0.667421
0.535093
0.376576
0.393593
0.372023
0.388718
0.392919
0.378449
0.341006
0.364072
0.348292
0.505044
0.364256
0.409171
0.385437
0.390697
0.40375
0.416454
0.514287
0.580569
0.491659
0.606893
0.816747
1.05031
0.569039
0.913868
0.439583
0.457349
0.552092
0.557246
1.19707
0.387643
0.38643
0.411705
0.749666
0.587194
0.595258
0.443949
0.656089
0.64002
0.599829
0.429972
0.385682
0.818201
0.619924
0.481316
1.01764
0.376354
0.499102
0.425812
0.7393
0.398873
0.417061
0.393613
0.441382
0.976159
0.738936
0.486802
0.486405
1.25089
0.44231
0.816517
0.722486
0.692359
1.17569
0.628842
0.383558
0.461006
0.846366
0.391291
0.653786
0.575507
0.533621
0.817074
0.740549
0.63761
0.437791
0.386395
0.533033
0.385518
0.413399
0.542343
0.455855
0.479578
0.397834
0.408821
0.761651
0.739579
0.526629
0.400658
0.757978
0.428337
0.652754
0.622676
0.950279
0.76117
0.87362
0.81887
0.421023
0.443389
0.612446
1.20105
0.797762
0.455349
0.74096
0.444579
0.37142
0.44122
0.442247
0.780386
0.730543
0.568905
0.775964
0.880488
0.387941
0.964398
0.662716
0.914996
0.915627
0.612057
0.700138
0.393096
0.38073
0.601404
0.950996
0.773786
1.36528
1.21967
0.60284
0.87193
0.843038
1.28516
1.05413
0.714157
0.633465
0.517438
0.662876
0.760086
0.404895
0.574555
0.373235
0.459767
0.434471
0.631783
0.887456
0.621023
0.411154
0.4497
0.430848
0.734094
1.10895
1.29969
1.13704
2.93209
0.874893
1.02088
0.711792
0.378904
0.50011
0.903985
0.449446
0.841115
0.456625
0.569913
0.363405
0.558205
0.352156
1.00451
0.971198
0.959959
0.869176
1.0001
0.354983
0.486475
0.464728
0.485976
0.500621
0.363889
0.426844
0.427018
0.991426
0.709167
0.458958
0.809775
0.570165
0.490245
0.545597
0.40085
0.397387
0.374272
0.39504
0.386294
0.375433
0.402036
0.422982
0.386704
0.386841
0.38009
0.405765
0.397798
0.363937
0.591265
0.872958
0.790201
0.343013
0.742339
0.470364
0.371571
0.370981
0.388586
0.368631
0.958302
0.348552
0.382655
0.398833
0.421848
0.350889
0.351622
0.349866
0.367874
0.379617
0.376953
0.368236
0.375938
0.531441
0.359921
0.380132
0.97053
0.634471
1.03905
0.521806
0.746766
0.738622
0.325568
0.652345
0.557162
0.627752
0.941582
0.567374
0.54241
0.763752
1.01553
0.88073
0.767239
0.919995
0.676622
0.658532
0.44168
0.584738
1.23183
1.38036
0.390765
0.921733
0.607
0.38513
0.53021
1.16605
0.938744
1.12861
0.513258
0.947514
0.586852
0.713565
0.509451
0.368062
0.912173
1.04603
1.01199
0.50093
1.14821
0.847072
0.743582
0.855841
0.767204
0.706919
0.44331
1.11574
1.18936
0.747603
0.994617
0.745295
0.814203
0.372978
0.583187
0.38208
0.431438
0.45973
0.386015
0.489972
0.389766
0.393765
0.430692
0.396888
0.474901
0.395137
0.390079
0.353493
0.357465
0.414239
0.456391
0.383032
0.434829
0.402363
0.980595
0.885778
0.575018
0.8317
0.349971
0.360866
0.377308
1.32807
0.648195
0.746387
0.602413
0.345167
0.788747
0.352084
0.382564
0.567484
0.769084
0.546524
0.481932
0.674536
0.383793
0.380519
0.448995
0.424371
0.407196
1.02789
0.840175
0.71905
0.557527
0.799779
1.13261
0.730882
0.607933
0.578536
1.04613
0.803041
0.411846
0.370543
0.392617
1.35145
0.432259
0.407986
0.40334
0.86647
0.441979
0.419769
0.380563
0.377065
0.35349
0.662277
0.902827
0.613545
0.806486
0.411155
0.348027
0.425281
0.545513
0.418277
0.736179
0.480285
1.01733
0.424893
0.656055
1.01116
0.873403
0.774205
0.788963
0.608502
0.66806
0.617253
0.596645
0.675565
0.555532
0.43441
1.32652
0.96143
0.825613
0.688321
0.651149
1.20704
1.35584
0.94461
0.651659
0.913162
0.40355
0.381414
0.386944
0.401555
0.578276
0.395778
0.36052
0.809973
0.672179
0.353319
0.837274
0.341737
0.436406
0.342496
0.631654
0.468374
0.392612
0.384426
0.505876
0.498187
0.394953
0.603047
0.481864
0.762906
0.751653
0.375116
0.911556
0.97252
1.06882
0.979934
1.30886
0.73798
0.876188
1.0759
0.50171
1.06659
0.44623
0.557332
0.590503
0.635924
0.528233
0.572373
0.502737
0.516621
1.15918
0.36942
0.569144
0.517283
1.03817
0.4647
1.10128
1.05724
0.428629
0.505796
0.432354
0.881578
0.858266
0.503396
1.25408
0.473793
0.454594
0.496037
0.479402
0.364071
0.854378
0.512402
0.459108
0.660352
0.508143
0.518036
0.513298
0.565125
0.399441
0.503012
0.422937
0.380082
0.394144
0.500109
0.565191
0.352932
0.65791
0.678247
0.447531
0.518352
0.838501
0.739482
0.912487
0.823115
0.834368
0.842393
0.657938
0.519248
0.456507
0.525887
1.01008
0.804851
0.650339
0.72724
1.12096
1.00806
1.12469
0.514775
0.48042
0.616209
1.27258
1.03638
0.430262
0.390358
0.618675
0.441492
0.460026
0.389589
0.390495
0.416237
0.434277
0.567498
0.416659
0.973197
0.809961
0.621932
0.984561
1.12607
0.58609
0.377672
0.68897
0.715835
0.351229
0.36566
0.447513
0.399618
0.607582
0.526079
0.702945
0.864479
1.23907
0.719747
0.910564
0.869357
0.878292
1.01973
0.909729
0.743457
1.01952
1.04213
1.11475
0.803545
1.03794
0.872088
0.557115
0.597743
1.06954
0.409236
0.423003
0.464903
0.417566
0.402097
0.446784
0.409046
0.36747
0.393349
0.457158
0.513494
0.405111
0.356941
0.401753
0.484617
0.40483
0.474043
1.12144
0.846761
0.587849
0.445104
1.11303
1.01189
0.869071
0.95176
0.710902
0.685434
0.942161
0.7884
0.832819
1.3121
0.781863
0.52335
0.414914
0.412119
0.39508
0.425425
0.445688
0.409115
0.442933
0.43346
0.409052
0.386038
0.353906
0.452262
0.439474
1.16223
0.485311
1.03714
0.594159
0.701124
0.365839
0.373951
0.444884
0.552028
0.439259
0.375819
0.436962
0.447414
0.433219
0.449668
0.447089
0.751104
0.6317
0.692385
0.474734
0.597888
1.04577
0.956473
0.386634
0.425129
0.497388
1.06391
0.986051
0.400294
0.373885
0.385574
0.405352
0.466278
0.539235
0.53874
0.450069
0.606937
0.559603
0.481199
0.483618
0.457697
0.386944
0.430624
0.384981
0.40355
0.455841
0.394043
1.13467
0.625827
0.877525
0.714617
0.655561
0.597621
0.529843
0.568234
0.969545
0.415951
0.898853
0.872013
0.802885
1.1168
0.960928
0.857943
0.374891
0.663822
0.447458
0.43557
0.412086
0.386788
0.546847
0.445687
0.351217
0.692408
0.366702
0.361649
0.395116
0.404661
0.376741
0.406066
0.360761
0.360026
0.400232
2.11276
0.518403
0.517871
0.417794
0.395661
0.49561
0.360909
0.442589
1.00027
0.559487
0.823968
0.578687
0.440458
0.632247
0.438996
0.755721
0.477398
0.42586
0.549822
0.441419
0.445824
0.540604
0.531337
0.427066
0.429289
0.413617
0.449016
0.43997
0.437496
0.494684
0.731194
0.612338
0.548706
0.557024
0.68003
0.588743
0.584419
0.795735
0.650322
0.365076
1.20806
0.936415
1.00246
1.09367
1.3606
0.755407
0.668754
1.1655
0.799098
0.936524
0.708058
0.636754
0.439674
0.373658
0.384058
0.390288
0.694947
0.398694
0.768988
0.354649
0.347214
0.380511
0.37047
0.379651
0.373356
0.414813
1.13724
0.620702
0.819931
0.529225
0.386459
0.635571
0.369541
0.407162
0.405079
0.669879
0.454253
0.999948
0.514959
0.785028
0.923741
0.565238
0.856462
0.363972
0.453154
0.78209
0.566082
1.10198
0.921012
0.882733
0.682454
1.07695
1.17761
0.51223
0.530056
0.378218
0.419791
0.384907
0.455373
0.502473
0.782221
0.511159
0.491209
0.895478
0.654564
0.641581
0.716635
0.500724
0.748332
0.876885
1.25332
0.935707
0.920654
0.814139
1.06345
0.997576
1.01033
0.599526
0.962142
0.987533
1.04039
0.89832
1.015
1.0065
0.363951
0.350102
0.400683
0.405665
0.39739
0.395847
0.402345
0.392947
0.46943
0.491699
0.451137
0.412145
0.408344
0.38519
0.361464
0.401043
0.355027
0.34602
0.475213
0.35819
0.378506
0.443136
0.343152
0.359823
0.347134
0.381322
0.34451
0.361567
0.361327
0.373652
0.369004
0.438933
0.353057
0.345236
0.686835
0.8206
0.53634
0.607182
1.01664
1.01497
0.842066
0.740845
0.468756
0.459397
0.852205
0.544984
0.756899
1.01329
1.16893
0.766326
1.40344
0.595097
1.06289
0.57032
0.504231
0.73585
0.686247
0.937086
0.81957
0.750512
0.685285
0.961681
0.667715
0.786874
0.533869
0.648425
0.278317
0.743923
1.00854
0.869029
0.842166
0.525802
0.772182
0.816191
0.455945
0.424529
0.442851
1.01982
0.352514
0.37349
0.347441
0.542392
0.93853
0.509246
0.54474
0.51259
0.386698
0.356193
0.371746
0.341787
0.385967
0.378467
0.403055
0.392519
0.388832
0.367789
0.342238
0.56291
0.520071
0.482761
0.753093
0.544374
0.347943
0.352649
0.375688
0.40184
0.431592
0.486546
0.376468
0.385764
0.788619
0.904829
0.82691
0.892253
0.656869
0.488805
0.448806
0.36411
0.359142
0.777276
0.403357
0.41712
0.607303
0.949244
0.413278
0.41215
0.39918
0.479043
0.775622
0.423426
0.398044
0.997471
0.406305
0.717252
0.624311
0.564941
0.430568
0.453625
0.690852
0.461642
0.405164
0.655169
0.403941
0.420514