/*--------------------------------*- C++ -*----------------------------------*\
| =========                 |                                                 |
| \\      /  F ield         | OpenFOAM: The Open Source CFD Toolbox           |
|  \\    /   O peration     | Version:  2506                                  |
|   \\  /    A nd           | Website:  www.openfoam.com                      |
|    \\/     M anipulation  |                                                 |
\*---------------------------------------------------------------------------*/
FoamFile
{
    version     2.0;
    format      ascii;
    arch        "LSB;label=32;scalar=64";
    class       volScalarField;
    location    "0.0263738";
    object      omega;
}
// * * * * * * * * * * * * * * * * * * * * * * * * * * * * * * * * * * * * * //

dimensions      [0 0 -1 0 0 0 0];

internalField   nonuniform List<scalar> 
3991
(
76.8275
74.7196
94.2466
705.902
61.4246
349.099
52.3733
68.3225
745.094
92.7245
218.295
470.525
50.9489
643.053
50.6037
1836.19
53.3656
68.0363
1049.88
136.199
235.602
52.5111
536.271
397.966
192.231
794.736
150.699
662.791
66.608
623.916
331.13
859.01
79.941
104.784
574.141
882.478
567.135
590.19
929.396
633.355
155.399
909.532
103.454
904.021
71.7787
372.369
642.284
922.504
321.35
73.2057
208.389
150.799
58.1455
298.46
79.9184
281.395
158.528
722.307
895.958
528.69
56.3453
68.5247
366.977
500.055
291.143
782.61
1275.65
363.747
59.5103
54.3448
488.572
121.142
137.906
206.697
57.7345
930.005
59.809
738.531
55.7783
98.8267
305.657
116.232
140.953
332.947
195.393
1063.44
1180.99
56.6117
98.5794
79.6237
75.8013
382.102
1449.19
1266.21
1017.69
55.7675
1381.34
2091.87
83.0001
186.099
2004.55
571.498
579.413
541.362
115.982
54.8948
329.514
51.1333
54.614
51.3997
52.5529
50.8152
50.5481
56.6032
55.7086
55.5204
104.286
101.035
102.569
135.045
85.9998
331.608
52.4758
180.892
679.975
175.624
169.979
76.4232
58.983
55.1573
56.1654
53.7069
57.1832
1829.45
1171.69
322.743
54.3364
53.2637
55.1264
57.489
76.435
936.535
131.114
900.341
471.578
62.165
127.153
59.7202
615.614
52.6201
52.6985
57.5638
53.879
220.521
470.018
305.663
138.886
537.651
762.202
729.939
70.2606
66.2397
56.5078
1733.51
773.637
1791.91
538.02
782.287
750.031
59.1414
58.6281
345.366
305.329
65.0995
78.469
79.7392
194.91
206.921
52.447
70.6647
73.3075
329.422
778.584
57.7859
90.1001
76.6546
75.8391
187.517
103.121
58.732
86.7147
130.173
329.723
89.215
105.948
664.155
75.6399
1576.21
54.132
74.7311
313.772
129.081
1940.81
654.039
557.188
424.074
703.623
740.701
999.467
54.9676
2145.77
177.178
1398.25
101.743
1422.32
73.5279
572.318
635.108
1884.91
429.299
581.453
1856.3
440.479
221.77
827.141
685.038
120.575
763.897
284.484
86.508
737.035
55.9902
120.196
54.179
185.609
390.272
64.462
803.386
271.133
69.6475
164.224
114.253
349.633
71.7419
246.084
499.194
52.7235
233.091
51.4685
520.944
590.372
203.22
71.8222
92.7087
696.691
2290.23
139.815
171.118
86.3344
60.0662
148.617
77.9083
309.304
131.599
655.03
184.611
205.491
783.161
783.55
652.166
463.873
598.865
317.368
776.826
830.296
677.495
780.334
720.175
75.6972
130.362
94.3088
321.065
148.511
144.623
303.84
191.039
173.722
80.49
73.4429
69.6538
78.0712
51.8284
744.581
101.698
260.726
403.031
733.442
50.6731
1169.74
53.9543
352.698
572.016
54.17
1091.67
366.863
303.493
1056.81
75.8912
59.9161
468.512
58.5119
61.363
542.243
59.9602
53.7322
49.8422
213.087
89.1075
59.1229
78.7102
148.836
81.0907
113.521
1662.87
95.9987
103.868
67.5937
53.8383
227.141
52.7129
120.44
93.6172
168.309
99.4349
745.268
743.878
170.813
70.2746
59.2025
389.29
58.6406
52.0233
55.6955
60.0548
66.3615
59.6292
53.3573
101.579
81.077
295.208
649.829
56.2185
1039.74
123.605
58.3172
697.292
1670.48
301.186
602.17
83.8923
50.2743
107.174
1166.48
57.9166
65.921
57.2788
1874.56
260.146
659.786
87.3101
73.0591
92.3963
1215.36
906.833
1377.9
54.7722
68.6148
677.089
93.4167
58.7135
73.2775
93.8096
781.715
55.6682
53.3589
55.1426
747.52
61.241
50.8068
104.268
63.6827
1040.5
52.5037
78.784
930.697
137.672
400.571
972.166
935.04
315.081
56.3734
170.692
589.084
443.563
79.4869
309.269
50.8396
849.731
212.473
977.152
70.7997
105.259
54.1012
67.6214
53.2261
64.4987
138.529
120.91
140.744
55.4317
60.1496
97.5511
63.9754
596.198
72.2414
172.762
58.6017
70.9434
100.992
54.221
193.264
856.988
213.746
55.171
92.8956
60.1928
192.851
407.359
83.6882
54.3127
90.5914
52.3465
68.628
225.466
141.114
376.072
115.553
397.495
131.588
369.788
916.765
231.522
53.5735
70.8796
243.205
85.8935
58.7245
768.266
838.585
61.5445
434.351
51.5907
54.3145
581.737
77.8769
873.222
718.129
61.2174
57.129
50.4884
180.836
59.8539
77.1839
411.39
66.9159
194.641
108.246
67.1063
54.8856
95.0752
57.4827
148.207
108.395
630.157
414.512
59.0838
69.1125
55.531
52.9504
92.9646
81.2904
52.6698
174.3
54.1015
62.37
55.5296
1150.8
64.1302
675.174
59.333
55.9127
592.425
75.8461
327.182
82.7152
63.7928
71.0021
426.999
69.7825
69.0588
62.8135
1008.19
803.427
690.591
419.262
241.274
94.5054
55.5001
254.499
250.501
109.212
2603.97
899.21
426.299
164.889
239.887
524.951
53.6095
77.6056
55.2959
98.1582
155.821
119.074
1753.23
1206.49
77.4861
187.285
54.9394
55.6918
248.202
54.6597
879.876
145.939
70.4609
54.9824
52.4563
231.286
1037.64
735.944
762.937
616.681
204.701
640.96
378.507
169.516
210.867
142.155
200.07
325.042
116.226
214.645
473.932
812.425
111.801
1194.76
168.927
298.017
834.784
139.311
100.31
99.0891
53.9728
53.0846
53.8741
54.397
55.6614
1374.38
133.627
101.247
93.4338
163.031
102.375
1077.16
473.519
494.332
397.574
493.047
158.636
60.4656
68.1744
58.8521
56.8867
69.9633
89.9339
69.9989
50.9462
92.7849
59.0468
80.4759
54.8717
88.3684
67.8966
1407.52
191.155
677.672
59.3142
251.323
281.755
157.181
179.063
57.039
68.2698
60.2553
129.437
150.028
146.617
60.8912
60.1409
67.2256
69.9242
58.0501
61.8729
59.72
53.7728
58.3316
114.475
78.5334
60.7009
387.508
143.045
717.659
61.3422
117.763
264.501
97.0989
54.6634
58.0441
59.4474
55.149
59.7517
62.328
74.3678
79.5739
62.6305
86.8715
75.6874
161.075
52.6723
405.941
1082.84
66.5636
114.558
334.173
70.1691
70.1116
77.5131
167.597
525.582
997.535
1242.63
410.718
1123.2
1213
1865.38
1004.53
56.7155
55.9822
300.256
373.64
566.72
56.4847
53.703
55.939
855.959
55.9902
77.0185
579.72
214.426
112.224
106.247
85.8123
105.087
54.7246
166.77
376.063
89.4687
60.08
55.2199
52.713
79.7957
98.9009
55.9375
200.929
50.6025
54.876
50.2243
106.702
55.8749
610.379
797.807
714.807
57.4222
71.9631
50.0077
92.156
81.6044
621.158
368.913
254.31
307.943
52.0371
83.3282
99.8867
73.0736
52.0328
234.423
141.683
103.151
83.9105
1170.48
815.835
1147.84
55.4894
725.702
139.816
1546.72
58.3274
114.924
672.41
517.777
105.146
327.713
75.5779
325.047
1366.36
1050.74
53.5028
140.615
59.9255
204.657
51.2566
70.1001
144.916
56.9643
586.629
1041.77
652.499
741.907
777.672
611.868
69.6425
109.633
153.004
62.0827
168.233
630.356
699.519
1149.12
1123.46
1300.93
1033.27
95.337
1381.43
87.0223
891.637
1775.84
920.771
1116.52
1285.86
572.091
1125.2
633.23
1281.87
117.717
116.508
152.743
546.884
62.205
62.511
61.9267
102.695
59.6854
160.184
223.133
114.737
65.0892
79.3659
104.856
90.7369
118.437
64.5642
69.7053
65.2917
56.4403
68.1561
105.314
79.3865
79.5125
124.984
651.057
80.1425
881.765
65.7382
169.935
628.845
856.119
373.935
450.431
89.1771
96.2607
59.3727
652.122
50.9148
299.182
272.944
73.9966
61.1579
260.452
59.2997
598.564
123.974
451.919
425.554
375.184
62.7998
57.7393
472.664
234.975
115.319
577.418
85.5718
515.998
427.374
282.293
52.5413
74.6001
127.642
267.775
410.947
70.3025
61.3255
61.5131
774.025
202.481
54.4388
54.0581
92.1675
55.1833
67.4747
74.0652
51.6364
62.8467
63.4739
55.831
808.451
592.773
855.015
999.003
874.895
864.396
628.281
763.299
1055.11
960.997
768.669
71.6945
61.473
95.0434
76.6959
323.15
57.6139
128.89
133.813
565.121
338.894
323.409
163.908
224.096
550.131
239.059
526.58
1480.78
880.086
958.793
1379.07
854.525
74.4111
56.5881
1225
415.798
52.7135
67.7513
65.1759
63.4992
452.469
63.7345
81.3116
56.1556
53.132
1576.88
129.995
53.4135
56.3301
251.521
75.3587
66.8274
55.7587
965.76
986.71
205.299
289.176
1239.38
275.731
69.4879
1608.09
70.5478
131.818
68.1963
63.287
68.5126
53.3443
53.1682
73.5927
51.8194
54.2705
360.162
51.4797
67.4491
250.426
76.0786
75.2047
387.756
204.25
64.9753
104.996
1461.95
465.384
70.4034
144.47
54.6694
343.359
240.251
76.5987
53.5576
131.875
106.522
149.889
1203.88
542.991
272.07
213.066
98.5562
143.591
53.1408
61.0716
62.1847
58.573
71.4734
59.8244
542.75
134.464
639.252
1597.45
1044.13
1400.63
519.168
714.371
1165.81
640.163
961.852
174.396
117.444
58.0871
176.084
82.4351
81.3045
110.272
57.5186
52.0237
88.5315
60.2589
104.878
55.1411
58.0735
569.046
276.269
49.8832
592.31
52.6201
472.768
51.1983
53.8567
67.4049
111.53
71.4687
61.6527
57.2024
547.728
84.2815
915.076
912.694
307.621
985.14
70.9357
108.405
904.049
778.238
71.2149
60.7124
106.622
992.044
71.2039
327.175
103.203
97.632
75.9318
174.923
81.7482
56.4694
83.1592
74.657
113.439
50.3221
1165.66
351.49
83.4894
1125.72
57.08
49.8601
1078.1
63.7855
498.411
1253.85
334.577
617.482
59.4584
587.793
272.709
67.2008
138.979
684.11
284.013
618.489
632.048
796.18
964.691
1017.96
1307.36
568.768
60.6661
490.695
484.615
1026.61
120.223
1239.75
152.172
755.745
58.4676
59.2631
1113.48
886.6
1094.91
1130.37
1115.08
954.289
512.409
222.366
63.8336
547.964
209.513
674.455
174.413
327.497
255.654
406.786
52.3146
714.788
612.243
55.7654
55.0608
82.3246
851.669
69.2581
61.1672
154.35
74.9742
58.1264
545.905
534.814
79.6019
895.899
69.1593
83.1175
127.794
104.14
60.9729
149.821
398.351
55.1096
80.5582
54.3055
62.2582
50.4987
97.1595
95.0881
131.895
870
191.309
772.449
130.362
797.874
453.219
500.056
195.883
151.226
738.08
150.51
585.511
771.824
297.868
1216.27
600.811
213.076
229.94
851.477
1562.17
916.515
858.91
79.0564
115.365
104.588
106.291
109.209
100.326
69.7245
200.981
62.1948
536.147
67.0697
232.524
243.664
54.3116
50.8885
384.875
196.364
54.5744
143.363
1135.23
567.336
226.612
694.559
749.38
342.708
174.589
373.137
779.489
186.659
52.4594
55.3341
79.6663
54.1011
77.1055
428.843
1747.92
1546.84
408.044
380.273
704.54
227.289
80.0995
63.781
75.5897
232.471
78.4574
66.6762
55.9962
158.888
191.618
141.076
53.316
106.189
82.6314
73.8245
66.2811
83.4791
160.325
51.0717
407.163
60.7919
86.0036
137.243
336.233
1269.5
146.081
115.358
85.5426
887.114
1096.85
63.9975
76.1237
78.2564
852.72
913.629
104.159
181.5
115.889
52.3052
55.0199
52.3192
52.6257
53.9704
53.623
52.8318
54.8718
55.6537
54.0856
60.3001
52.2482
50.8055
235.359
137.762
104.279
630.835
639.431
250.689
276.23
52.0126
55.2269
58.4841
64.7187
94.6103
117.475
727.956
816.842
669.219
254.937
1629.8
113.179
646.959
1059.83
250.726
1557.21
1005.82
1450.15
714.345
233.65
1416.23
89.6229
775.585
132.199
1895.92
322.924
218.967
663.287
78.7541
369.342
2014.88
120.771
289.633
278.481
165.217
57.1796
542.808
118.06
700.011
827.075
524.998
95.2513
215.891
89.6974
333.605
91.6541
616.573
941.666
1130.31
74.7018
72.616
260.336
814.378
1997.5
880.715
216.327
1043.34
260.02
141.486
382.068
1060.25
1523.91
1404.8
1039.3
64.8077
60.1293
76.1573
984.008
63.8739
652.067
687.31
242.971
740.722
58.6016
56.3137
89.2467
234.009
421.939
742.913
58.589
864.995
100.707
1308.38
1479.14
568.624
1505.98
1352.11
62.3287
64.8308
53.2665
232.825
1443.5
1309.04
2401.14
418.125
1044.87
52.007
53.0497
54.5094
54.2601
52.5322
51.3286
50.8156
80.7602
54.6172
80.6071
1228.05
806.267
202.402
58.4009
49.9667
65.5333
178.073
50.4777
64.4872
211.45
75.2681
76.5153
73.4645
86.212
603.583
63.713
374.306
846.442
115.684
56.6649
65.1572
154.954
56.0038
60.3239
69.3409
57.3337
74.0379
795.04
442.877
195.834
81.3551
545.329
193.616
670.629
52.5844
56.1776
739.685
137.206
1223.35
1722.87
223.725
588.818
106.271
69.6085
377.676
582.342
167.747
140.569
118.944
577.389
122.369
165.818
113.284
678.909
923.711
67.5083
49.9794
130.262
381.386
93.2204
507.001
394.55
602.219
930.216
152.54
80.0231
65.4313
59.5653
80.412
58.3877
69.446
97.3045
623.366
897.846
591.872
1132.01
771.571
632.427
1205.29
586.095
617.411
760.058
955.747
60.7821
845.299
69.0993
65.763
261.027
880.888
72.5897
90.9522
54.2543
123.726
70.5752
265.614
466.585
67.1548
89.746
169.384
204.726
167.742
622.709
418.026
263.349
189.803
85.7575
53.9631
111.838
991.981
926.762
198.25
331.323
531.274
874.058
990.009
1125.05
171.306
1772.59
520.998
176.024
332.889
717.483
512.937
526.272
571.49
64.3825
59.3686
58.3821
72.1588
59.9727
61.2673
65.7011
191.066
94.672
56.844
64.5567
64.9893
50.0111
919.726
1025.47
1208.31
521.109
97.4911
109.92
137.004
116.5
149.786
100.326
74.6039
101.944
62.5666
59.8048
686.459
112.653
519.299
91.8801
113.731
62.4968
225.242
50.6419
676.174
159.911
358.394
181.354
70.58
55.904
1293.54
567.087
178.543
84.3721
585.491
86.2204
196.224
1033.76
1205.03
598.688
951.267
984.656
155.017
941.114
434.22
167.053
69.3709
128.268
117.467
62.6707
661.048
134.701
57.6987
1133.29
241.83
53.7904
253.255
474.499
52.2075
61.5412
55.6038
71.4249
965.017
112.981
653.018
56.2738
230.78
63.3856
181.494
299.035
208.043
714.113
124.844
295.833
305.239
523.676
733.045
1105.9
292.915
290.416
472.392
103.739
96.8655
73.2035
54.7663
67.0599
56.6732
358.846
62.1267
52.7578
51.9289
53.4231
133.607
82.3617
126.708
87.1149
69.1758
67.5038
57.4709
61.174
66.3997
51.5799
54.6145
50.3921
63.6697
70.1209
67.7278
91.3872
124.527
87.7918
95.5356
163.413
61.9911
58.3431
66.6084
539.302
54.0321
58.4239
151.296
70.7767
51.9615
714.152
226.237
85.0334
52.678
60.6975
58.2947
53.4841
148.309
792.181
75.4854
837.239
55.8414
53.2662
66.1181
918.226
1149.36
79.004
540.553
66.6654
1869.6
706.855
74.1592
355.281
138.216
1597.62
71.2225
78.6673
85.7517
66.2256
55.492
1480.05
1719.14
69.8997
366.109
50.9363
63.7952
50.3219
56.5435
786.478
212.834
81.9149
65.2945
112.823
58.619
69.0997
232.936
260.688
1066.53
53.1678
78.1752
743.358
78.6401
53.8284
62.7398
51.1457
52.633
75.8364
66.9335
52.0171
62.6962
73.2899
58.4794
118.721
61.214
164.486
197.123
52.8469
53.4146
53.3421
175.881
165.825
63.419
1090.97
1080.53
136.801
983.512
51.8059
1911.31
53.642
74.5896
159.012
68.1665
747.051
55.355
441.693
65.5266
86.29
742.747
155.71
1063.73
1903.41
2170.78
1202.6
1829.96
1729.67
574.789
100.708
981.8
50.755
67.5437
1370.04
1161.36
124.542
132.662
55.72
252.651
73.651
881.147
98.2159
87.6678
83.4352
1126.5
1429.04
924.04
1592.15
2017.51
934.782
362.287
57.579
886.033
55.281
52.9604
54.135
53.7015
58.3147
50.6523
54.0347
58.3253
65.8169
1406.61
349.457
889.227
65.9918
713.415
96.9835
80.3588
62.2216
64.3493
290.325
90.7928
61.6128
116.065
341.615
1519.72
100.27
278.478
1442.28
1076.58
1109.54
746.9
916.648
571.765
60.2485
887.379
1589.73
87.399
1412.19
767.429
564.111
205.72
177.21
334.411
431.157
408.699
359.67
550.679
704.439
102.727
127.111
400.969
1874.22
2538.84
434.901
59.824
117.931
53.2238
66.3209
1103.65
270.606
204.761
799.273
69.6221
51.3482
53.5561
64.4925
66.3461
152.142
50.6409
153.535
137.142
80.4699
470.893
69.9212
59.5236
60.142
70.582
63.519
79.35
54.5562
64.6023
62.8848
62.3976
55.229
2334.34
109.497
106.202
762.069
92.7381
390.948
120.985
308.719
654.374
307.007
406.376
193.269
89.0566
116.544
61.8656
127.503
110.031
55.9175
54.4693
72.9238
83.2682
60.9621
74.4521
62.348
71.7503
66.5141
918.32
1171.7
756.493
952.721
108.834
116.991
114.748
170.43
52.4507
56.2699
819.363
84.9645
96.6491
56.9938
397.912
60.2601
59.8849
59.6402
68.3996
193.869
136.868
66.8541
569.896
100.896
132.849
85.9494
126.807
75.8416
68.9253
79.9883
1104.92
873.265
890.909
862.652
1810.76
723.788
988.476
894.987
902.644
1434.4
953.521
1892.07
163.955
1375.22
965.733
579.248
158.35
104.336
196.629
54.5131
1975.29
219.925
691.961
673.012
59.0729
55.9129
319.221
72.9063
64.2257
666.339
148.005
569.658
73.9275
844.887
187.149
640.136
653.299
51.4246
90.1583
52.7388
59.4396
51.9138
55.5443
139.448
1582.94
75.1078
193.019
473.971
80.9411
122.821
137.204
55.3022
116.53
256.479
986.391
936.195
243.306
945.326
53.9294
52.5103
296.548
356.137
289.342
111.453
515.098
152.575
128.582
110.905
111.466
77.0061
141.495
69.626
137.671
136.429
414.973
419.78
210.768
144.138
57.5273
70.5771
182.696
622.723
907.802
167.739
163.576
700.628
183.327
96.6437
150.951
185.763
283.499
320.59
371.869
130.773
136.482
800.979
195.821
156.414
275.085
568.988
196.18
63.1641
58.5961
67.6395
56.7217
272.221
168.734
85.0973
78.882
165.717
57.5127
61.5096
56.2808
63.9086
57.6534
67.8078
70.6347
75.9465
230.011
403.947
58.6585
198.572
99.6567
437.303
91.5776
1207.57
63.6605
449.962
476.521
1325.95
646.579
1068.59
116.572
737.679
130.87
94.212
302.074
65.9707
86.8303
601.85
203.8
287.095
99.447
188.897
85.3407
594.848
136.006
216.152
111.572
97.5329
179.471
130.764
56.857
1121.22
946.859
54.0686
52.7996
53.3866
60.9342
1558.2
1460.84
271.676
625.773
61.6449
62.7747
64.5742
436.09
616.993
698.454
491.96
64.0181
636.125
734.866
607.093
560.432
51.7081
1427.19
162.929
239.709
203.54
759.036
846.701
440.307
233.286
58.3876
61.4675
423.311
63.872
53.2358
234.004
185.583
176.698
185.386
494.929
84.7742
95.8237
63.9423
799.944
62.7575
54.3803
52.902
51.6641
50.442
50.4456
64.3324
56.9877
51.4086
66.9777
72.4715
79.7896
72.6383
54.5567
57.7994
57.4116
728.792
73.7286
430.622
65.7007
179.206
120.133
63.2574
59.7736
106.795
1027.54
257.162
68.3235
57.4974
76.3794
75.8683
88.4445
417.46
80.1716
83.8785
313.248
104
59.4241
72.029
178.457
192.695
422.974
251.633
1238.68
489.519
611.477
81.6526
77.434
112.996
70.121
79.9789
68.8695
434.719
53.2697
109.914
106.919
173.507
110.046
58.1905
806.365
881.521
873.582
1172.1
856.188
748.467
557.018
59.5292
1206.39
138.423
86.3497
75.5586
70.1995
56.3056
55.4077
72.7198
68.5814
54.6482
71.6431
480.942
520.453
1377.7
913.834
108.252
73.0598
72.7349
73.5061
53.2345
52.9149
350.233
125.643
544.671
52.9157
275.386
50.523
786.791
146.368
57.6552
67.3619
1098.89
199.57
673.764
66.4368
74.1744
714.359
60.5364
66.1668
50.9538
52.6557
54.7934
79.5282
50.5884
628.25
49.6893
425.904
263.443
79.254
55.1326
1031.82
76.027
58.1447
1408.25
155.691
60.806
55.9773
78.5483
61.6864
218.693
454.593
277.786
307.665
1838.49
937.82
894.574
218.094
583.846
521.988
612.465
1667.94
58.7721
60.0682
61.0454
273.135
344.294
176.491
878.092
181.133
130.381
77.456
70.9865
55.2294
248.615
1451.43
136.847
127.923
1841.18
282.054
349.531
835.092
59.7949
118.484
68.1858
94.6815
99.6214
351.87
290.879
282.045
448.569
306.711
95.9789
50.3839
84.5684
65.1244
57.7897
734.457
227.368
271.902
612.206
573.55
51.6137
54.3995
62.1561
59.0157
62.2637
82.7265
64.4043
256.385
349.854
563.837
485.294
485.181
286.904
221.803
264.22
547.247
889.919
160.824
650.194
499.985
479.313
88.647
377.905
115.863
597.877
544.415
723.446
88.6044
181.269
530.044
92.8054
78.0719
82.4932
191.34
430.622
67.9611
248.659
64.8998
57.3407
87.0402
809.59
641.511
55.7497
132.744
60.3105
60.4977
59.6603
56.0877
57.7997
125.765
100.78
919.064
134.755
174.492
564.197
297.092
322.568
66.1094
869.731
807.545
706.072
509.777
581.061
543.064
475.682
382.886
2184
676.448
720.906
939.543
467.205
71.8007
59.2522
56.5156
53.2896
77.3671
2115.09
58.7931
51.8427
60.9151
333.751
158.803
153.758
900.204
172.412
751.452
1192.54
918.512
163.817
189.951
963.136
77.4692
74.6964
388.583
70.4118
67.7552
82.6012
59.6005
198.11
58.6988
60.3053
52.3112
52.3932
85.4881
348.834
102.011
220.773
67.1616
521.532
2154.66
705.593
63.5255
169.055
1844.77
73.6911
83.1582
125.848
132.758
387.568
219.679
294.757
72.6545
68.6974
69.9523
68.1591
125.321
1998.89
915.655
117.637
54.5981
168.312
254.076
1115.53
671.161
559.23
1609.3
163.787
94.1396
203.566
1766.03
737.32
52.9938
79.5926
972.639
824.267
768.794
81.8827
901.997
76.94
440.126
168.848
50.6775
56.45
53.514
56.1624
55.2501
53.4542
138.924
55.5947
81.4722
123.437
59.5462
59.0333
51.8462
52.8247
57.444
63.6802
128.045
257.874
118.453
269.861
308.051
1716.1
220.082
947.403
73.2478
86.055
214.48
186.357
2075.89
53.1839
52.8585
60.8128
691.739
191.96
241.115
78.5058
359.417
330.046
241.83
68.9209
53.1823
910.228
341.819
106.747
2089.35
51.998
125.332
65.4378
356.359
54.4341
62.4114
55.0569
71.9328
845.059
441.168
103.496
110.467
1884.31
700.707
1383.84
546.752
469.118
1451.85
218.629
52.2243
89.9991
1129.13
53.6079
323.31
213.184
126.089
624.566
376.429
291.129
73.2273
53.0082
140.559
53.0448
60.4197
157.296
84.0889
94.4047
56.0771
59.416
585.563
406.352
136.898
55.7958
222.505
68.8877
283.361
288.14
1324.18
391.57
980.554
713.191
62.9391
77.8258
244.636
2119.63
565.987
81.1776
545.852
74.6049
75.9273
72.3573
77.7399
479.254
384.643
204.363
507.19
552.517
56.2451
1432.27
329.385
528.234
540.977
228.22
261.563
56.8547
54.9249
240.248
357.885
634.966
979.893
1799.81
186.212
724.819
818.029
1167.95
1046.18
331.605
290.694
135.139
367.752
698.795
58.6357
215.769
52.1137
85.0123
70.1208
310.82
897.641
308.342
60.0819
79.8785
68.0828
371.764
1911.18
2026.85
1320.17
4492.25
939.112
1282.41
308.949
56.396
117.299
1556.88
77.0538
811.094
81.5394
211.395
100.377
186.798
69.7894
839.327
842.914
1333.63
1205.6
1296.47
77.1962
100.676
84.538
97.4768
114.633
54.6131
67.9898
67.8494
1108.55
579.654
1003.33
886.155
172.822
114.614
178.44
56.7134
56.3225
534.661
55.377
96.8243
151.537
56.8031
76.4703
53.1761
52.8839
68.9068
78.0047
55.8152
52.4635
212.197
1042.6
813.289
96.8587
656.008
98.4888
84.0487
86.8542
58.5926
61.4604
912.437
65.4479
52.5684
55.2408
63.5783
69.7642
69.4288
76.208
53.319
54.9546
59.3048
53.9032
54.7133
993.359
72.7078
58.4607
409.724
1238.4
511.566
544.639
601.784
737.074
569.5
581.812
184.915
312.797
1103.55
172.151
1021.76
529.584
1306.92
716.745
521.687
822.943
759.924
852.618
75.6715
170.841
861.543
1162.02
52.1468
647.991
249.989
57.4325
159.622
2017.96
624.928
2126.21
126.769
820.663
174.589
325.176
122.492
50.1387
684.279
798.439
739.421
815.004
821.222
677.683
425.335
705.231
332.039
558.83
77.1311
898.331
915.234
515.038
1043.47
668.306
910.413
80.9036
243.733
52.6646
70.1209
81.0057
57.9394
115.846
54.165
54.8272
69.8757
55.093
100.954
54.6401
54.2212
99.9898
105.558
60.7698
80.4445
53.4929
70.085
57.3129
941.062
484.951
198.19
543.221
98.3849
143.156
61.3015
744.994
698.596
625.049
548.829
80.1134
683.416
68.7011
51.6553
177.213
655.191
177.013
108.877
388.526
52.375
51.2979
82.0875
65.2227
66.9963
719.264
360.805
438.304
171.424
693.463
675.368
405.126
279.4
190.327
2117.95
848.176
61.5198
51.7396
53.5176
2083.66
66.8516
59.0743
57.8118
1047.81
69.737
62.2182
51.5858
53.7434
174.848
233.517
596.441
260.602
567.293
69.332
77.3786
66.3569
172.39
62.6148
557.903
106.54
1472.71
64.2819
377.019
1252.75
887.773
640.791
601.526
266.063
418.71
291.126
248.569
413.769
170.623
69.166
1895.62
1538.88
928.502
1202.96
351.491
1346.32
1797.66
2430.01
351.878
1006.19
58.2776
55.1077
54.3366
57.8849
221.889
55.7577
60.325
1373.43
296.002
78.4893
785.66
127.833
72.2417
83.4225
280.892
93.0969
54.2853
51.5114
133.733
113.075
55.3768
267.302
107.983
693.839
728.58
51.6082
909.679
1103.88
908.609
936.231
766.293
519.241
604.876
1149.8
123.077
967.482
75.3541
187.979
259.902
307.822
142.96
133.812
94.5498
101.607
2339.95
92.0428
1820.92
1739.02
1395.37
92.8852
956.491
1082.94
75.0587
122.205
74.8127
752.536
649.304
116.536
1177.97
87.539
77.9217
111.203
95.5962
187.892
872.193
131.084
84.5818
322.826
126.451
137.681
129.767
187.535
55.6539
109.636
64.6693
51.6083
55.0345
110.5
566.791
69.7401
307.502
340.031
77.3128
132.116
669.555
653.695
571.098
560.104
702.997
670.652
549.151
137.352
81.1077
1753.02
1146.45
603.277
265.602
680.614
704.961
644.507
749.725
782.785
97.0318
264.455
1064.99
1277.57
68.9169
54.1973
264.573
74.1271
81.8691
53.7355
53.7056
61.1978
69.7543
205.349
62.0282
896.911
685.52
935
768.426
2051.57
256.089
52.3885
331.404
421.776
143.001
63.2825
75.7176
57.9503
267.883
132.608
390.728
575.347
1033.4
517.402
801.325
416.231
655.307
748.257
896.974
638.391
1779.75
1424.22
1910.81
819.975
1104.44
1013.83
195.511
249.438
2042.5
60.0207
65.0291
89.5023
61.9833
57.269
76.0818
59.2444
212.719
54.5416
83.4056
137.309
57.7853
54.6666
56.6461
108.794
57.6769
99.2785
1291.77
1022.57
228.076
76.4071
2305.68
1546.88
1238.02
1639.85
543.96
455.172
673.735
686.559
822.529
1003.34
652.523
143.517
61.2751
60.7567
54.9952
66.5629
77.6437
59.6238
76.2576
70.7668
59.5802
53.8852
64.3328
77.9829
76.1472
2093.18
110.377
2108.97
263.632
303.799
83.912
50.5427
74.9684
143.665
77.0875
51.1372
72.807
75.5096
70.8006
77.0726
78.4025
584.08
333.709
509.344
102.616
213.241
1678.15
1519.6
52.1137
66.0157
120.938
612.03
1500.15
54.4127
55.5776
52.7134
57.7991
94.3838
179.276
1427.72
80.7793
263.676
204.598
105.997
104.137
87.2588
52.5695
69.2508
52.3935
57.553
81.517
53.226
1289.14
268.15
764.198
396.176
248.263
234.883
144.557
1045.8
616.753
62.9641
572.748
569.176
652.755
586.305
496.456
528.493
53.0178
686.002
74.7626
69.4945
59.734
52.8318
175.142
74.4445
71.993
355.967
49.7051
52.7675
53.0931
57.8421
51.1368
58.4418
94.1989
61.1672
56.2749
706.147
132.949
136.417
63.9193
56.8676
108.944
95.5119
74.6408
565.69
195.272
630.156
195.121
71.4785
542.064
72.0334
392.149
102.223
65.6377
163.735
74.7793
77.0069
166.164
139.045
67.1193
65.136
59.3691
77.3607
74.7828
70.4244
114.894
552.726
527.14
771.619
201.05
442.061
169.413
887.754
527.254
289.238
52.5969
1301.35
939.984
696.664
1172.41
1280.6
739.661
506.268
1391.36
768.811
1021.29
499.078
304.07
70.633
55.9858
57.9374
54.694
457.286
55.7367
720.175
73.3044
75.7123
201.562
53.8623
54.7759
54.7957
62.9112
2451.22
341.529
1025.74
152.081
57.5617
305.057
52.218
58.7193
58.4174
337.383
78.5191
1682.8
136.305
317.531
567.913
142.688
526.714
57.2351
78.8193
425.881
169.001
688.481
971.819
1543.26
923.17
1395.08
727.957
131.705
942.981
50.9896
63.6526
52.4389
78.7392
110.464
537.15
128.341
104.184
873.358
291.203
368.519
602.266
112.744
599.803
579.502
906.738
691.354
631.285
566.467
796.382
714.335
765.192
603.219
622.189
576.61
623.858
602.066
502.323
510.547
49.4751
70.6826
65.5376
60.7156
69.0987
69.9657
65.1641
66.4892
85.5601
107.734
86.3848
67.3665
64.7389
57.4405
64.3449
59.9643
120.418
94.4906
94.663
53.5155
88.0857
72.7649
150.946
66.5437
77.9887
161.16
113.55
59.7935
67.3212
159.021
144.593
71.5112
68.9227
100.42
623.734
929.531
152.834
268.97
1702.78
2086.63
994.497
367.254
92.5238
85.8666
704.841
158.48
442.868
1758.79
1762.31
1546.05
1316.14
259.05
1131.53
623.106
519.903
563.32
598.255
527.769
535.77
634.754
709.811
1306.22
334.327
753.222
158.664
270.447
469.114
307.131
1872.24
457.154
655.792
148.637
446.356
540.828
79
64.0754
72.7945
862.253
58.7857
56.0629
96.1481
138.222
352.024
123.35
145.034
119.366
59.7785
97.9215
52.0522
133.539
52.9523
53.45
56.9236
54.1837
53.8941
55.0745
93.5179
180.886
129.889
97.2254
524.65
156.001
90.1643
122.638
85.6722
71.1171
68.6513
95.9174
164.96
67.701
645.157
766.315
682.292
730.725
315.111
665.275
76.8012
51.1715
186.419
342.995
57.3324
61.6265
262.047
930.282
60.4705
60.4286
56.064
94.9202
564.26
64.6416
56.1259
730.457
58.0823
561.453
311.726
180.239
67.924
85.0946
419.429
89.5049
58.0192
372.68
57.3796
62.7996
56.5318
248.243
360.673
301.747
108.589
174.404
62.2115
134.512
539.451
62.173
146.212
66.0486
56.4452
63.5882
97.8221
65.3899
1872.76
1629.93
92.5911
125.949
788.677
1075.07
1040.69
843.552
117.061
237.793
797.057
815.026
1074.09
676.968
526.604
51.3053
87.0867
62.0728
54.1932
325.844
687.398
95.0419
1128.37
667.428
1090.74
1339.24
834.772
1312.3
1237.69
1518.82
139.276
315.661
435.164
53.6679
145.607
103.44
117.128
718.24
204.679
706.688
790.862
375.344
201.073
891.505
383.956
130.496
72.4332
82.898
57.355
53.7472
69.9269
703.353
772.367
1123.35
141.727
632.339
79.9255
910.317
178.641
121.735
63.5743
241.686
57.5664
230.864
679.182
218.583
69.1583
82.9461
449.316
178.503
166.336
58.4573
88.1438
85.0345
108.268
80.0385
70.5309
78.1928
80.0443
124.791
84.5144
104.533
106.974
117.425
66.5037
120.366
99.6875
581.631
552.927
200.241
1119.56
2630.22
779.735
1356.97
692.932
61.0827
51.9893
56.2004
52.0399
50.1689
1324.95
368.108
125.242
481.126
729.813
295.937
1053.34
238.693
554.551
377.04
292.161
310.367
160.657
75.0681
62.4932
60.8437
62.321
61.654
756.391
977.106
1881.83
55.6436
70.1021
53.8537
71.3629
56.6041
123.498
103.558
63.9697
108.314
62.3876
64.1695
53.8558
427.611
1410.85
999.188
84.077
110.671
83.6551
106.288
53.1262
51.3029
73.749
57.17
56.2128
124.399
61.1539
56.6538
77.9288
82.2425
141.577
403.505
233.949
189.083
122.92
326.421
117.723
615.477
83.1074
50.7376
53.6412
729.04
186.028
534.373
426.118
619.864
359.121
886.753
415.72
773.599
64.7089
59.1628
110.879
95.1215
66.9759
59.8075
85.3196
219.642
77.3676
69.149
51.3806
59.3765
53.8427
50.7725
67.4397
68.6865
51.2344
67.4273
68.0631
70.5425
57.2007
80.2879
89.6088
76.9476
59.0984
57.8874
56.5445
52.4293
288.738
229.27
1696.84
933.986
183.717
65.1637
74.6762
56.2165
510.135
62.305
55.2423
109.425
186.6
105.496
149.599
1931.68
109.643
990.708
195.387
56.5805
62.4132
55.5045
814.694
1006.57
424.064
817.774
96.7438
108.29
99.858
78.0212
129.715
170.854
886.578
57.1528
71.7117
103.249
887.618
115.749
90.6092
214.375
1208.19
510.674
784.904
212.51
171.172
560.44
535.535
102.681
98.9611
76.6444
74.1682
1429.87
480.16
49.7424
56.3224
136.256
50.283
49.7969
62.6883
158.891
54.5922
50.8861
51.8338
61.5871
60.1916
82.2516
51.8226
511.407
910.876
737.48
590.31
901.857
72.6327
62.3524
100.386
69.2049
120.394
1514.95
243.843
318.36
221.263
1414.23
71.8856
54.8639
64.4775
101.863
54.2801
62.2824
76.199
220.762
935.806
255.963
346.186
1078.57
88.4889
673.307
474.668
613.864
631.006
495.816
716.592
1132.66
849.603
1063.63
1374.74
842.189
220.548
684.338
186.857
57.3662
808.918
54.6019
55.908
226.025
122.276
90.7498
235.729
52.8507
103.24
182.564
838.038
364.538
139.475
125.149
545.17
327.314
714.234
62.3026
76.6872
64.55
525.778
82.8462
72.6376
730.916
1150.26
1071.02
660.574
998.001
867.325
543.67
551.622
827.048
2030.01
1498.34
2431.17
75.7875
71.9602
75.3973
1005.38
62.1287
142.566
607.894
155.171
66.4929
559.467
768.613
950.954
640.589
1107.93
58.1108
76.133
74.8824
149.346
64.5035
57.7144
875.263
1099.2
681.475