/*--------------------------------*- C++ -*----------------------------------*\
| =========                 |                                                 |
| \\      /  F ield         | OpenFOAM: The Open Source CFD Toolbox           |
|  \\    /   O peration     | Version:  2506                                  |
|   \\  /    A nd           | Website:  www.openfoam.com                      |
|    \\/     M anipulation  |                                                 |
\*---------------------------------------------------------------------------*/
FoamFile
{
    version     2.0;
    format      ascii;
    arch        "LSB;label=32;scalar=64";
    class       volScalarField;
    location    "0.0501868";
    object      nut;
}
// * * * * * * * * * * * * * * * * * * * * * * * * * * * * * * * * * * * * * //

dimensions      [0 2 -1 0 0 0 0];

internalField   nonuniform List<scalar> 
3918
(
0.00300642
0.00545529
0.00284069
0.00409866
0.00309044
0.000404708
0.000331052
0.0019763
0.00490073
0.00330921
0.000910399
0.00264956
0.00616563
0.00317211
0.0045172
0.000647277
0.000599481
0.000711384
0.000696208
0.00402083
0.000955453
0.00367352
0.00140207
0.00204822
0.00305575
0.00475378
0.00116381
0.00491841
0.000592054
0.00595895
0.000814151
0.00398845
0.0017142
0.00404783
0.00273039
0.00459946
0.00375981
0.00371317
0.000836689
0.00302174
0.0021719
0.00205426
0.00118701
0.00295883
0.00370477
0.000738742
0.00637839
0.000755783
0.00163646
0.00405363
0.00107679
0.00184564
0.00100551
0.00559548
0.00219891
0.00317561
0.0029927
0.00439228
0.00160765
0.00352476
0.00119677
0.00188314
0.00281298
0.00249868
0.000741062
0.00368796
0.00283392
0.00221287
0.00177918
0.00235306
0.00101049
0.0012928
0.00140796
0.00132216
0.0021833
0.000517473
0.00106084
0.00484675
0.00329393
0.0036187
0.00140127
0.000338434
0.00445181
0.00313161
0.00396377
0.00267845
0.000733524
0.000753032
0.000486227
0.00378866
0.00245593
0.00415745
0.00361468
0.00135176
0.0034397
0.0031853
0.00137449
0.00438411
0.00109657
0.00087342
0.00379734
0.00458749
0.00336993
0.00414117
0.00472208
0.000737416
0.00203434
0.000908043
0.00345321
0.00359218
0.000605117
0.000987039
0.000269354
0.000741183
0.00111058
0.000798615
0.000683757
0.00143875
0.00131027
0.00106639
0.00322001
0.0031139
0.00479785
0.000914939
0.0022168
0.00048144
0.00540648
0.00102258
0.00134726
0.00115594
0.00304958
0.00234671
0.00251194
0.00345324
0.000630203
0.00103609
0.000571125
0.000607122
0.000647908
0.00193549
0.00118034
0.000705046
0.00288568
0.000954555
0.0010952
0.00160598
0.000814939
0.00106961
0.000605287
0.00308953
0.00560538
0.00141432
0.00419174
0.00119847
0.00304487
0.00276459
0.000739307
0.000881591
0.00420915
0.00332819
0.00420649
0.000575624
0.00105337
0.00438037
0.000548691
0.00107842
0.000606835
0.000826602
0.000565909
0.00096479
0.000923299
0.000643159
0.000594555
0.000619143
0.00081041
0.00563821
0.00443737
0.00211082
0.000788552
0.00101401
0.00441285
0.00548127
0.0040824
0.00537307
0.00336329
0.00258735
0.0011647
0.00151774
0.00382836
0.00469295
0.00301139
0.00152382
0.00104328
0.00107383
0.00319974
0.00222454
0.00306069
0.00188216
0.00107619
0.00335382
0.00107192
0.00305706
0.000683989
0.00230924
0.000499903
0.00195784
0.001349
0.000748998
0.00430237
0.00180444
0.00211948
0.000730141
0.00188464
0.000533716
0.00114285
0.000417093
0.00144743
0.00234871
0.00123629
0.000607189
0.00111978
0.00254783
0.00107817
0.00407801
0.00271535
0.00481312
0.00108049
0.0017271
0.000385031
0.00165996
0.00107429
0.00551675
0.000783079
0.0037421
0.00366628
0.000787632
0.000468857
0.00384569
0.00490674
0.00379983
0.00117595
0.00098513
0.00160857
0.00180848
0.00195478
0.00135596
0.00333201
0.00134178
0.000729639
0.00153976
0.00389722
0.00282179
0.00351619
0.00195961
0.00173697
0.00116048
0.000393341
0.00242639
0.00132674
0.00242386
0.000573094
0.00414749
0.00267181
0.00257386
0.000785067
0.00247878
0.000666641
0.00111444
0.0013897
0.000869171
0.00543674
0.00385077
0.00248286
0.00196737
0.00152896
0.00154867
0.00281382
0.0013231
0.000998077
0.00166792
0.00106814
0.00110673
0.00229992
0.00251208
0.00277434
0.000600304
0.00407201
0.00107243
0.00404965
0.00149431
0.000615413
0.00327901
0.000479524
0.0038569
0.00244748
0.0014522
0.000981182
0.000580884
0.00110115
0.00242822
0.00179047
0.00134373
0.00174431
0.00264008
0.00141478
0.00159807
0.00129743
0.000967879
0.00231599
0.000907628
0.00245021
0.000352308
0.00107338
0.000724684
0.0012877
0.000422817
0.00226962
0.000897969
0.00120655
0.00033026
0.00399102
0.00078069
0.00306459
0.00419243
0.00474868
0.00141516
0.00391244
0.00138124
0.00124545
0.00427882
0.00100564
0.00213926
0.00226713
0.00287595
0.00105573
0.000933137
0.00119129
0.00467238
0.000554678
0.00409405
0.00215807
0.00120465
0.00156862
0.00236692
0.00105199
0.000698349
0.00125667
0.000616319
0.00127371
0.000888127
0.000951686
0.000911478
0.00118574
0.00336157
0.00495447
0.00266768
0.0051579
0.00176272
0.00299564
0.00385635
0.00215425
0.00134938
0.00217153
0.0010518
0.00355187
0.000712968
0.00194546
0.00474046
0.00475176
0.000508026
0.00441826
0.00218473
0.00136148
0.00198638
0.00221971
0.000713501
0.000539784
0.00182198
0.00301565
0.00390572
0.00459715
0.00221538
0.0024855
0.00156134
0.0035251
0.0053313
0.00304164
0.0011516
0.00424676
0.00167979
0.00173504
0.00360973
0.00535542
0.00124445
0.00528343
0.00056091
0.000302708
0.00348273
0.00139272
0.000590856
0.00098537
0.00327148
0.00373161
0.00160131
0.00343729
0.00358553
0.000924587
0.000593718
0.00381825
0.00071305
0.00321271
0.00318257
0.0015956
0.00443669
0.00289032
0.0029076
0.00528057
0.00270512
0.00367984
0.00466732
0.00371424
0.0018455
0.00451231
0.00498418
0.00416207
0.00479902
0.00233179
0.00430712
0.00239169
0.00111839
0.00262898
0.00346148
0.000684058
0.000473431
0.00135856
0.000930223
0.000380738
0.00363669
0.0032487
0.00526242
0.00313974
0.00345806
0.00379194
0.0021313
0.000611467
0.00426582
0.00240353
0.0025538
0.00161687
0.003544
0.00591515
0.00209413
0.00431929
0.0030948
0.00196787
0.00186146
0.00041197
0.00195307
0.000881508
0.00520582
0.00417501
0.000655814
0.0017276
0.00417256
0.00496107
0.0049848
0.00277207
0.000789936
0.00381031
0.00378365
0.000612492
0.00374716
0.000462954
0.00473618
0.00335589
0.00120861
0.000532547
0.0047322
0.000473894
0.00289773
0.00183491
0.00135928
0.00141333
0.00227577
0.00272789
0.00314176
0.000674775
0.00369561
0.00128658
0.000747071
0.00421425
0.0054444
0.00080492
0.000549459
0.00222299
0.000797357
0.00460334
0.0035503
0.000336622
0.00414658
0.00316147
0.00371314
0.00474142
0.00514731
0.00390549
0.00380416
0.00467589
0.00565914
0.0045785
0.0029014
0.00150833
0.00149637
0.00331028
0.00271577
0.00431367
0.00327976
0.00441251
0.00132613
0.00452323
0.0039996
0.00181346
0.00546428
0.00367997
0.00372321
0.00255515
0.00325561
0.00352913
0.00354715
0.00258571
0.00406012
0.00253364
0.000485032
0.00103593
0.000668458
0.00397376
0.00322589
0.000646666
0.000725732
0.0029221
0.00106795
0.00432824
0.0038997
0.00239108
0.00188703
0.00203758
0.000486175
0.00200688
0.0010009
0.00345836
0.00259924
0.00414252
0.000896412
0.00117217
0.000799859
0.000793305
0.00112326
0.00089947
0.000936939
0.000960828
0.00107898
0.00314932
0.00181045
0.00091475
0.00412414
0.00456649
0.000715728
0.00290021
0.00426246
0.00171705
0.00477359
0.000510437
0.00113242
0.00101308
0.00406079
0.00167189
0.00136391
0.000913539
0.00539079
0.00412417
0.00456466
0.00146947
0.000928698
0.000797652
0.00107071
0.0012935
0.00131281
0.00368583
0.00243343
0.000778256
0.00101035
0.00211194
0.00129793
0.00320191
0.00266612
0.000613156
0.00182311
0.00348191
0.00119131
0.000608909
0.000991523
0.0027276
0.00052536
0.00318521
0.0027856
0.00392965
0.000667025
0.00153998
0.0018667
0.00216204
0.00195694
0.00408953
0.00215705
0.00400625
0.00101939
0.00373961
0.000443148
0.00129474
0.00164003
0.00194527
0.00167442
0.00494364
0.00582851
0.00373375
0.00109759
0.000484898
0.000511641
0.000751133
0.000553052
0.000476153
0.00184613
0.00444757
0.00255535
0.000986152
0.00132086
0.000620112
0.00173502
0.00264476
0.00105493
0.00286769
0.00112377
0.00486869
0.00491853
0.00325879
0.00100409
0.00376381
0.00235703
0.00279092
0.00334456
0.00351374
0.00334416
0.00307615
0.00609653
0.00330446
0.00386043
0.00410519
0.00422043
0.00180527
0.00508309
0.00519538
0.00256646
0.00236404
0.00179382
0.00284896
0.00147806
0.00221714
0.00230871
0.00102961
0.000867396
0.00330472
0.00176778
0.00117055
0.00241718
0.00188282
0.00408616
0.00134518
0.00159995
0.0038806
0.000850823
0.00275149
0.00222948
0.00386296
0.0037396
0.00427353
0.00532112
0.00188884
0.00373522
0.00504696
0.00594814
0.00264824
0.00262019
0.00515246
0.00193899
0.000688292
0.000247057
0.00274932
0.000781717
0.000427262
0.00231124
0.00297662
0.0027977
0.00250545
0.00253255
0.00276626
0.00534983
0.00189518
0.00173652
0.00210109
0.00161723
0.000862976
0.00158986
0.00109756
0.00119432
0.000802363
0.00101333
0.00081661
0.000892872
0.000819204
0.00433971
0.00333576
0.00239192
0.00356493
0.000791909
0.00180962
0.00457501
0.0019447
0.00324671
0.00433384
0.00269515
0.00289526
0.00165307
0.00252865
0.003351
0.00245444
0.00415536
0.00348479
0.00284161
0.000891363
0.00257689
0.00328273
0.00104923
0.00384682
0.00104554
0.00193635
0.00521692
0.00456615
0.00128866
0.000903586
0.00383075
0.00318942
0.000891451
0.000990454
0.00168483
0.00233271
0.00054133
0.000559375
0.0032338
0.00296746
0.00290525
0.00415772
0.00493409
0.00584881
0.00034037
0.00446044
0.0038084
0.00387325
0.00318031
0.00344788
0.00228951
0.00215334
0.00123912
0.00288859
0.00250629
0.00248083
0.000716395
0.000596512
0.00357464
0.00139972
0.000685795
0.00139794
0.00280813
0.00102023
0.000145571
0.00314147
0.00430216
0.000917104
0.00258851
0.00348512
0.00199522
0.00153235
0.00107313
0.00171392
0.000870873
0.00097552
0.00123568
0.00103706
0.00149089
0.00333756
0.00413706
0.00394184
0.00480466
0.00254896
0.00277644
0.000443123
0.000846036
0.000625495
0.00177639
0.00127699
0.00425195
0.000717525
0.00231728
0.00378749
0.00238912
0.00399032
0.00119165
0.00247948
0.00134361
0.00515053
0.00363561
0.00337745
0.00545402
0.00174243
0.000908604
0.00184549
0.00157509
0.00137064
0.0018115
0.00105432
0.00136575
0.0014056
0.000797752
0.00194511
0.00102654
0.00607389
0.00162488
0.00403096
0.00139396
0.00183123
0.000602487
0.00320759
0.00183867
0.00492556
0.00328746
0.00409652
0.00259614
0.000695625
0.00333107
0.00155531
0.00277758
0.00152373
0.00320292
0.0041446
0.000958859
0.00103248
0.000429118
0.00093255
0.00459779
0.000307773
0.000381688
0.00148474
0.00112221
0.00128797
0.00151668
0.0052463
0.00480812
0.00124629
0.00197692
0.00455993
0.0042254
0.0013065
0.00160244
0.00130472
0.00337515
0.00311667
0.000833887
0.00409121
0.00355998
0.0048843
0.0023098
0.0051733
0.00161419
0.00063782
0.00307527
0.00279872
0.00201657
0.00509348
0.00295557
0.0012584
0.000857895
0.000772108
0.00101916
0.000966977
0.00191786
0.002545
0.000181737
0.00494559
0.000588535
0.00105914
0.00136709
0.00087548
0.00154574
0.00151837
0.00208071
0.00350691
0.000962674
0.00117524
0.000935695
0.000323665
0.000437523
0.00123248
0.000279787
0.00527235
0.00254199
0.00139457
0.00344011
0.00509475
0.0018164
0.000951885
0.00197944
0.00291673
0.0021575
0.00443122
0.00169929
0.000482365
0.00282828
0.00216394
0.000503856
0.00168321
0.00201318
0.000937241
0.00115717
0.000913037
0.00122725
0.000463327
0.00383847
0.00121433
0.00123337
0.000966137
0.00158898
0.000938425
0.00228149
0.00211291
0.00263624
0.00121086
0.00402202
0.00217681
0.00188733
0.00188671
0.00248592
0.00114309
0.00334603
0.00373185
0.000587545
0.00034344
0.00166958
0.00189645
0.00425038
0.00408424
0.00468482
0.000386357
0.00167285
0.00272984
0.0012242
0.0009889
0.00135228
0.00143126
0.000651864
0.00336196
0.000653081
0.0011288
0.00117873
0.00252613
0.00280922
0.00279761
0.00398128
0.000475357
0.000778894
0.00149859
0.00571902
0.00364603
0.0014033
0.00119876
0.000831702
0.000573336
0.00184363
0.00242726
0.00181059
0.00229781
0.00284911
0.00350987
0.00289183
0.00231029
0.00485957
0.00103841
0.00038823
0.00290317
0.000430592
0.000478025
0.00104285
0.000731295
0.000489049
0.00298263
0.00341675
0.000356536
0.0037059
0.00450969
0.00160397
0.00351939
0.00373437
0.0022451
0.00489186
0.00243137
0.00208887
0.00263376
0.00476785
0.00374704
0.00413275
0.00771016
0.00427444
0.00508163
0.00300161
0.00343927
0.00250506
0.00469706
0.000765876
0.00400617
0.00422677
0.0016523
0.00507408
0.00558137
0.000754907
0.00103046
0.00180334
0.00248492
0.00426736
0.000692754
0.00176343
0.00569999
0.00108436
0.00418841
0.00296891
0.00245905
0.00087781
0.00275102
0.00220385
0.000689833
0.00105452
0.00251796
0.00212818
0.00376589
0.00421666
0.00279355
0.00116757
0.00229899
0.0018885
0.00418555
0.00191518
0.00320858
0.0036551
0.00489268
0.00361997
0.00352664
0.00422887
0.00363904
0.00435499
0.0022749
0.00141926
0.0021945
0.00447418
0.00229383
0.00221306
0.0048166
0.00369328
0.00374366
0.00237067
0.00391195
0.00100161
0.000664539
0.00331232
0.00374058
0.00138291
0.0018226
0.00323663
0.00496329
0.000682576
0.00297788
0.00354582
0.00542443
0.00348733
0.00356664
0.00143446
0.00155129
0.00101865
0.00102379
0.00143729
0.000670717
0.00217486
0.001392
0.00179913
0.00230272
0.0024175
0.002346
0.0027165
0.00413351
0.00171125
0.00355006
0.00362772
0.00308404
0.00275049
0.00428874
0.00273982
0.00119521
0.00312149
0.00304569
0.00299342
0.00370881
0.00289575
0.00423394
0.00226218
0.00399978
0.000790809
0.00320184
0.00269448
0.00300922
0.00322621
0.00347074
0.00255945
0.00214648
0.00074809
0.00329684
0.00401563
0.00314663
0.00168805
0.00242272
0.00508825
0.00359394
0.00231596
0.00185095
0.00172903
0.00440455
0.000580041
0.00148362
0.00361784
0.00261187
0.00333137
0.000905284
0.000626101
0.00442778
0.00415526
0.00424589
0.00460823
0.00150557
0.0016629
0.00369109
0.0040861
0.00432614
0.0038416
0.000193951
0.000394805
0.0024844
0.00256064
0.00110362
0.00121325
0.0015392
0.00156419
0.00307881
0.00185761
0.00453059
0.00273765
0.0039319
0.00401575
0.00550952
0.00071173
0.00123886
0.00353039
0.00082413
0.00165174
0.00331353
0.00355371
0.00536429
0.00094806
0.00518608
0.0021806
0.00395014
0.000804454
0.00410913
0.000264013
0.00186784
0.00146255
0.0011415
0.00299367
0.00134103
0.000909306
0.00171102
0.0018249
0.00234065
0.000886897
0.000467142
0.00047575
0.00196728
0.000983058
0.00178299
0.000929681
0.00103705
0.00488898
0.00303199
0.00455016
0.0022972
0.000922424
0.00208256
0.00102067
0.00102988
0.00155452
0.00478562
0.00526721
0.00569562
0.00180493
0.00376334
0.00404719
0.00283897
0.00450474
0.00281879
0.00390238
0.00334794
0.00279968
0.00186495
0.00356143
0.00179797
0.00151047
0.00173475
0.00331526
0.00459256
0.00346318
0.00608273
0.00422273
0.0043432
0.00114926
0.00240206
0.00169823
0.00326707
0.00421405
0.00419737
0.00434441
0.0049003
0.00421885
0.000772188
0.000436762
0.00275356
0.000443267
0.00591691
0.00473555
0.00211383
0.000835952
0.00120587
0.0043988
0.00439275
0.00279333
0.0043356
0.00248705
0.000994368
0.00316062
0.00165773
0.00270786
0.00213822
0.00211206
0.00416979
0.00317462
0.00428656
0.0053232
0.00425656
0.00294987
0.00313503
0.00254371
0.00191907
0.00333791
0.00242033
0.00346201
0.00392832
0.00076413
0.000684313
0.0010882
0.000465544
0.000681385
0.000852244
0.00117708
0.00164406
0.000547175
0.000553693
0.0023131
0.00113539
0.00224709
0.00135321
0.00181546
0.00134338
0.00104935
0.00280135
0.000878772
0.00167764
0.000182437
0.0033984
0.00225239
0.00180148
0.00100973
0.00261002
0.00268088
0.00422944
0.00095252
0.000797477
0.00126147
0.00100742
0.000346768
0.00184411
0.00231455
0.00122183
0.0049529
0.00492623
0.00120797
0.00284411
0.00389969
0.000797217
0.00239189
0.00250111
0.00242751
0.000445816
0.00225671
0.00186167
0.00205969
0.00233579
0.00406755
0.00243792
0.00105242
0.00259557
0.00171676
0.000729084
0.000554248
0.00334697
0.00110449
0.000826911
0.00317119
0.00310928
0.00366232
0.00298015
0.00373202
0.00139381
0.000980534
0.00089696
0.0011695
0.000600116
0.0015376
0.000964799
0.00237476
0.00515998
0.00236945
0.00274951
0.00267611
0.00113911
0.00227054
0.000807648
0.00364067
0.00465973
0.00325578
0.00428931
0.000833999
0.000319804
0.000777869
0.00441705
0.00048292
0.000291621
0.000434555
0.00114037
0.00232794
0.00174971
0.000681663
0.000991903
0.00245808
0.000610527
0.00184999
0.00106929
0.000813006
0.00102115
0.00117096
0.00374111
0.00256051
0.00113831
0.0023249
0.000465425
0.000978884
0.00107069
0.000933635
0.00401806
0.00208469
0.0007182
0.00448582
0.000352383
0.00400007
0.00489851
0.000777834
0.00121391
0.00330291
0.000228574
0.00454356
0.00425286
0.00445582
0.00465944
0.0015235
0.000506044
0.00258198
0.00293329
0.00384376
0.00324299
0.00472313
0.00197234
0.00191267
0.00125374
0.00214825
0.0020629
0.00216988
0.00238142
0.00193911
0.00132936
0.00348302
0.00298044
0.00173175
0.00427318
0.000719056
0.000273299
0.00429511
0.000582537
0.00277439
0.00209374
0.00163701
0.00366588
0.00346107
0.00376139
0.0034426
0.00232756
0.000484998
0.00179756
0.00221619
0.00150284
0.000829162
0.000994157
0.00139792
0.00295524
0.00377977
0.00520569
0.00561566
0.00388493
0.00278121
0.00352553
0.00236541
0.00234785
0.00399035
0.00173582
0.00290883
0.000458057
0.00297705
0.00149627
0.00224229
0.00142764
0.00273104
0.00118517
0.00479292
0.000857791
0.00165806
0.0021809
0.00335681
0.00312201
0.00445877
0.00122713
0.00175865
0.00206597
0.0006438
0.000592439
0.00177986
0.000652905
0.00191083
0.00199838
0.00175652
0.00100341
0.000788529
0.000798324
0.000693627
0.0013944
0.00131221
0.00296898
0.00135738
0.00412894
0.00380244
0.00303014
0.004441
0.00136987
0.00108217
0.00195584
0.00198461
0.000821576
0.00131603
0.00110624
0.0029202
0.00553309
0.000924885
0.000457969
0.000514551
0.000522215
0.0010872
0.00177449
0.000386318
0.00262353
0.000947964
0.00146898
0.000479862
0.00146618
0.000136452
0.00214282
0.00167174
0.000302884
0.000898644
0.00331068
0.00351762
0.0038408
0.0021075
0.000875242
0.000925046
0.00418127
0.000501618
0.00181198
0.000264871
0.00374948
0.00190425
0.00160327
0.0033026
0.00248702
0.00256688
0.00560298
0.000974344
0.00344407
0.0019203
0.00185856
0.00163797
0.00107705
0.00104165
0.00118595
0.000516877
0.00335024
0.00231451
0.00169942
0.00231757
0.000954148
0.00142891
0.000803659
0.000564054
0.00160943
0.00182663
0.00110583
0.00121387
0.00124956
0.00170076
0.00371937
0.00126517
0.000953493
0.000970083
0.000749762
0.000395473
0.000599013
0.00386706
0.00298322
0.00542347
0.00603339
0.00360892
0.00164429
0.00177759
0.000897227
0.000967352
0.00107646
0.00273109
0.0021728
0.0005621
0.00162726
0.00193348
0.00168909
0.00173273
0.00271495
0.00109236
0.00048228
0.000706457
0.00225896
0.00244901
0.00114725
0.00109746
0.000968274
0.00329593
0.00564041
0.00109296
0.00597162
0.00383578
0.000494132
0.00269898
0.000671889
0.000975114
0.00183542
0.00342114
0.00553452
0.00517208
0.002792
0.00436665
0.00193408
0.00317048
0.00275323
0.00163867
0.00227878
0.00423027
0.00292863
0.00238289
0.0028055
0.00408536
0.00396978
0.00457576
0.00181304
0.00414424
0.0021772
0.000866159
0.00256855
0.00291498
0.00198521
0.00189882
0.00389575
0.0020029
0.00574009
0.00333888
0.00238966
0.00188959
0.00160887
0.00494854
0.00427251
0.000429659
0.00287258
0.0040737
0.00376736
0.00153427
0.0017243
0.00266265
0.00604369
0.00477154
0.00479932
0.00286549
0.00318598
0.00259528
0.00200474
0.00455607
0.00252329
0.0030953
0.00373475
0.00263466
0.0027456
0.00186412
0.00194175
0.0013958
0.00424337
0.0015001
0.00151623
0.00312239
0.0025974
0.0026907
0.00338512
0.00321963
0.00218445
0.00213359
0.00175434
0.00216962
0.00147694
0.00173259
0.00350731
0.000648443
0.000682229
0.00064339
0.000605226
0.000660727
0.00166409
0.000632965
0.0011028
0.00167734
0.00101768
0.00276838
0.00363359
0.00388252
0.00365182
0.0030081
0.00333948
0.000879355
0.000829361
0.000902525
0.000892879
0.000927905
0.00123219
0.00114311
0.0052025
0.00324168
0.00335426
0.00100138
0.00374616
0.00509722
0.00382218
0.00345093
0.00399654
0.00284643
0.00446822
0.00267087
0.00121405
0.00115687
0.00123365
0.000883553
0.00153838
0.00120484
0.00301185
0.00190011
0.00428172
0.000739414
0.00359425
0.00368209
0.00548033
0.00122059
0.00133438
0.00107103
0.000697414
0.0029647
0.00212183
0.00387457
0.00296921
0.00201376
0.00375246
0.00330285
0.00166408
0.000377286
0.00172652
0.0029737
0.00343613
0.00156635
0.00266588
0.00225736
0.0012425
0.0015705
0.000836926
0.00106572
0.00107652
0.00131422
0.00115714
0.00120835
0.00106542
0.00423118
0.0020779
0.00231826
0.00194344
0.00249886
0.00301135
0.002331
0.00466074
0.00327651
0.00369233
0.0015267
0.000677952
0.00358849
0.00128367
0.00474396
0.00144371
0.00102945
0.00114818
0.00438747
0.00299368
0.00366769
0.00220998
0.00159523
0.00398374
0.00623674
0.00487544
0.00377285
0.00343433
0.00377088
0.00431366
0.00406194
0.00382348
0.000960921
0.00393515
0.00224608
0.000676997
0.000946542
0.00109313
0.00106264
0.001523
0.00132365
0.00334224
0.00368215
0.00332721
0.00342242
0.00137763
0.000809089
0.00112748
0.0030283
0.00392428
0.00118568
0.001195
0.00106033
0.00126318
0.00385111
0.00106153
0.00119923
0.000900824
0.000990117
0.00183855
0.00250879
0.0017766
0.00288875
0.00438124
0.00443686
0.00365822
0.000605983
0.00193118
0.00149487
0.000458678
0.000551872
0.000185326
0.00139035
0.000974946
0.00122354
0.00125032
0.00203832
0.00151215
0.00257707
0.000473984
0.000204801
0.00199354
0.000850627
0.000316945
0.000468045
0.000566829
0.0046968
0.0016706
0.00100849
0.00123358
0.00169244
0.00117799
0.00273076
0.00132982
0.00382957
0.0026711
0.00272583
0.00208286
0.00190529
0.00279699
0.0035236
0.00205583
0.000307621
0.00173805
0.00109489
0.00139467
0.000166874
0.00246085
0.000609378
0.000859346
0.000790683
0.00145988
0.000804755
0.00256854
0.00266085
0.00247702
0.00139082
0.00194791
0.00266305
0.00229825
0.00157187
0.00182014
0.000812436
0.000740781
0.0010413
0.000749419
0.00137314
0.00410612
0.00220371
0.00138885
0.00124337
0.00236435
0.00180715
0.00243883
0.00392415
0.000210192
0.00173615
0.00352208
0.000390988
0.00138788
0.000371754
0.00102253
0.00187261
0.0050071
0.00155725
0.000677045
0.00047794
0.0024303
0.00215148
0.00292352
0.000603269
0.000905159
0.00105555
0.000435303
0.000204835
0.00097796
0.000725778
0.000744294
0.00245083
0.00249343
0.000685896
0.000832665
0.00373822
0.00211814
0.00186557
0.00417117
0.0037458
0.00680377
0.00424044
0.00253739
0.00364499
0.00274993
0.00342218
0.00303162
0.00332464
0.00292958
0.00417656
0.00416874
0.00323907
0.00336436
0.00481692
0.00375684
0.00283748
0.00301184
0.00475468
0.000680882
0.00406516
0.00241761
0.00253969
0.00387583
0.00249722
0.00274062
0.00187663
0.0024048
0.00224658
0.00103072
0.00296146
0.00341272
0.00247489
0.00617358
0.00499419
0.00235792
0.00228204
0.0052876
0.00321748
0.00333646
0.00355295
0.00546427
0.00415685
0.00454453
0.00160367
0.00453649
0.00362469
0.00278717
0.000631253
0.000467649
0.00108133
0.00267965
0.00112172
0.00221907
0.00371053
0.00106503
0.000502463
0.0017088
0.00182725
0.000767869
0.000569655
0.00146641
0.000672414
0.000387175
0.000695773
0.00211552
0.00233598
0.00479951
0.00449877
0.000672479
0.00312065
0.00251684
0.00218893
0.000831018
0.00176842
0.0022637
0.00293604
0.00143929
0.00383024
0.00398308
0.00208489
0.00133176
0.00273583
0.00257108
0.0048794
0.00446536
0.0036847
0.00435011
0.0023933
0.00400009
0.00411073
0.0023651
0.00500773
0.00491772
0.000969085
0.000841346
0.00189108
0.0011505
0.00395025
0.000455718
0.00459445
0.00215652
0.00102336
0.000999209
0.000974483
0.00215582
0.00224355
0.0028213
0.00107179
0.000450862
0.00108206
0.00104267
0.0023017
0.00451158
0.00425493
0.00237696
0.00182535
0.00195974
0.00505203
0.00337766
0.00177903
0.00286819
0.00113535
0.00332233
0.000705752
0.000337314
0.00155321
0.000398614
0.000939328
0.00168902
0.00155575
0.000470263
0.00166236
0.00115968
0.000884724
0.000984738
0.00101746
0.000826932
0.000856483
0.00390319
0.00289019
0.0024815
0.00247692
0.000282252
0.000851834
0.00171381
0.000955522
0.00319974
0.00283101
0.00490428
0.00306964
0.00250286
0.00510244
0.00473402
0.0024287
0.00263694
0.0052253
0.00390717
0.00111603
0.00284189
0.000743622
0.00045461
0.00202153
0.00105928
0.00106239
0.00190115
0.000380378
0.00114035
0.000369712
0.00119457
0.000489112
0.00586848
0.000510405
0.00112927
0.00203539
0.00244876
0.00469548
0.000750242
0.00182467
0.0014923
0.0045165
0.00334351
0.00164198
0.00228235
0.00304083
0.000917394
0.0012436
0.00166813
0.00073988
0.00075748
0.000841117
0.00122556
0.000960496
0.00150723
0.000469235
0.00143864
0.00109717
0.00307704
0.00332854
0.000502228
0.00251066
0.00192791
0.00386371
0.0018241
0.00223702
0.00222392
0.00204785
0.00379252
0.00136706
0.00200022
0.00263394
0.00216699
0.00127803
0.000949152
0.000724937
0.000674536
0.000856637
0.00339719
0.00325537
0.00188185
0.00295203
0.00334497
0.00339116
0.0047351
0.00340338
0.00259771
0.00344699
0.00239476
0.00112332
0.00341798
0.00115355
0.00177436
0.00071733
0.0018479
0.00169114
0.00110348
0.00190202
0.00352778
0.0011856
0.0013454
0.000723164
0.00171988
0.00113581
0.00333796
0.00233468
0.00461723
0.000669583
0.000777654
0.00212124
0.00250474
0.00449189
0.00185411
0.00666686
0.00265262
0.00307543
0.00281199
0.00407378
0.00330302
0.00336003
0.00301279
0.00463759
0.00263437
0.000997573
0.00313489
0.00423655
0.00126814
0.00182891
0.00125861
0.00139494
0.000910257
0.00501949
0.00359245
0.0029912
0.00472692
0.00309709
0.00423105
0.00148742
0.00261745
0.000996409
0.00218127
0.00400762
0.0024222
0.00342647
0.00293987
0.00303674
0.00200875
0.00352215
0.00185022
0.00102249
0.00108332
0.00356696
0.00218859
0.00385098
0.00418219
0.000765079
0.00577923
0.00407304
0.00224266
0.00240512
0.00264513
0.00267286
0.00514681
0.00309382
0.00460067
0.00271053
0.00274489
0.0032004
0.00213823
0.00373305
0.00484117
0.00442202
0.00205976
0.00468631
0.00381342
0.00136612
0.0044678
0.00421187
0.00343541
0.00358557
0.00326288
0.00463941
0.00239922
0.00403484
0.00431139
0.00393573
0.000452046
0.0023953
0.000615529
0.000894007
0.000663386
0.00348026
0.00161383
0.0011329
0.000454057
0.004215
0.00451881
0.00274293
0.00130124
0.00342616
0.000324857
0.00122124
0.00161019
0.0030175
0.000387123
0.000582314
0.000577736
0.000641323
0.00108755
0.00333684
0.00457075
0.00419517
0.000643416
0.000539256
0.0027427
0.00282031
0.00237303
0.00541918
0.00228311
0.00455548
0.0022002
0.0034911
0.00412344
0.00513386
0.00155418
0.0021758
0.00116963
0.00132387
0.000150959
0.00114309
0.00243918
0.002331
0.0007018
0.00218493
0.00123212
0.000921646
0.00107787
0.000918972
0.00089456
0.00135907
0.00219295
0.00211284
0.00386746
0.00406239
0.00078208
0.00132114
0.000844899
0.00308333
0.00358334
0.00368255
0.000330711
0.00266627
0.000194529
0.00074827
0.00115532
0.000440037
0.00250392
0.00272385
0.000790587
0.00204515
0.00073546
0.00103138
0.000888541
0.0036897
0.00107791
0.000511699
0.00463374
0.00103715
0.0019691
0.0036437
0.00359667
0.00279821
0.00403708
0.00401076
0.00281746
0.00286677
0.00306265
0.00366141
0.00247086
0.00210555
0.00104169
0.0031164
0.00450162
0.00412706
0.00449021
0.00619421
0.00143985
0.00333289
0.00338039
0.00346908
0.00279638
0.00194893
0.00132837
0.00203767
0.00109078
0.00245578
0.00159757
0.00143849
0.000452027
0.00520692
0.00111767
0.0021196
0.00333662
0.00120955
0.000717106
0.00168392
0.00205838
0.00151057
0.000414483
0.00116141
0.00027696
0.000585705
0.000386696
0.00118399
0.00124381
0.0013902
0.00053838
0.00193173
0.000809476
0.000900128
0.00133871
0.000971153
0.00123426
0.000584979
0.000530941
0.000581844
0.00253444
0.000810138
0.00199591
0.000938882
0.00329517
0.00374835
0.00298457
0.0039284
0.0038762
0.00325438
0.00207892
0.000801966
0.000546429
0.00124266
0.00119367
0.000657529
0.00265641
0.00375349
0.00415253
0.00395442
0.000663598
0.00112983
0.00395394
0.00382424
0.0036177
0.00227661
0.00397766
0.00455622
0.00113335
0.00065654
0.000612829
0.00211941
0.000287093
0.00136774
0.000415735
0.00138166
0.00350152
0.00445468
0.00494056
0.00376609
0.00357792
0.00354654
0.0034353
0.00467939
0.00444022
0.00298946
0.00387581
0.00115905
0.00470873
0.00325452
0.00315812
0.00497339
0.00495646
0.00485609
0.0049615
0.00251329
0.00186166
0.0034803
0.00364146
0.0040472
0.00605592
0.00445126
0.00339886
0.00526776
0.00576436
0.00270568
0.00430223
0.00395735
0.00339032
0.00234677
0.00412519
0.00293689
0.00473272
0.00348274
0.00375268
0.00487779
0.00286344
0.00320927
0.00532264
0.00218156
0.0028192
0.00282418
0.00418764
0.00256613
0.00345208
0.00311376
0.00288474
0.00299209
0.00115387
0.000581551
0.000459349
0.00396537
0.000461799
0.000405886
0.000836484
0.00354293
0.00324337
0.00132922
0.00251395
0.000875276
0.00521753
0.00325889
0.00423253
0.00379867
0.0041762
0.00416201
0.00414708
0.00105457
0.00170448
0.00017292
0.00141347
0.0010713
0.000664624
0.00254088
0.000770299
0.00111427
0.000663602
0.00194872
0.00226405
0.00229966
0.00306932
0.00259514
0.00115297
0.00273868
0.00213735
0.00291768
0.00301586
0.00252184
0.00354649
0.00195173
0.00239681
0.00420008
0.00474594
0.00286313
0.00455317
0.00344466
0.00429701
0.00361185
0.00512701
0.0023193
0.000699403
0.00420166
0.00324137
0.004825
0.00371524
0.00282808
0.00378214
0.0014655
0.00409363
0.00125954
0.00258167
0.0013011
0.00105398
0.0010403
0.00121714
0.000944384
0.00311038
0.00626699
0.00567643
0.00520096
0.00409257
0.000622839
0.000655146
0.000195137
0.000457871
0.000309192
0.000920671
0.00119142
0.00161361
0.00203696
0.00114396
0.000826294
0.000815704
0.000939546
0.00255596
0.00125602
0.00415458
0.00092596
0.00017083
0.00303063
0.00173921
0.0013051
0.00277595
0.000963306
0.000828496
0.00466908
0.00526585
0.00358331
0.00503533
0.00253338
0.00295278
0.00342913
0.00405247
0.00385301
0.00562402
0.00550554
0.00281515
0.00376823
0.00638976
0.0036226
0.00381208
0.00367648
0.00229447
0.00294324
0.000356798
0.000258717
0.000900853
0.0013092
0.00171661
0.00161983
0.00461788
0.00424109
0.00032814
0.000971605
0.00078387
0.00105441
0.00114732
0.00224055
0.00275242
0.0017967
0.00396692
0.00134143
0.00167463
0.00340508
0.000135911
0.00231946
0.00154832
0.00109608
0.00185716
0.00173535
0.000793646
0.00133622
0.00229373
0.000452132
0.00189548
0.00523612
0.00469595
0.00339483
0.00104037
0.00174337
0.00191159
0.000681319
0.00152239
0.0006231