/*--------------------------------*- C++ -*----------------------------------*\
| =========                 |                                                 |
| \\      /  F ield         | OpenFOAM: The Open Source CFD Toolbox           |
|  \\    /   O peration     | Version:  2506                                  |
|   \\  /    A nd           | Website:  www.openfoam.com                      |
|    \\/     M anipulation  |                                                 |
\*---------------------------------------------------------------------------*/
FoamFile
{
    version     2.0;
    format      ascii;
    arch        "LSB;label=32;scalar=64";
    class       volScalarField;
    location    "0.0501868";
    object      p;
}
// * * * * * * * * * * * * * * * * * * * * * * * * * * * * * * * * * * * * * //

dimensions      [0 2 -2 0 0 0 0];

internalField   nonuniform List<scalar> 
3918
(
-39.4228
1.06736
-6.16131
-19.2374
1.15658
27.3448
21.1036
19.2374
-1.18574
-1.41286
21.8028
-32.5847
-28.25
-34.4351
-14.5099
28.1109
31.6849
-27.8045
-27.4459
0.881722
55.7266
-15.9181
5.85818
-29.8503
4.08007
-38.4164
27.3413
-14.6465
-27.484
-22.1554
-28.0413
-4.63848
-15.0316
-4.9943
-28.8565
-42.0724
-5.98345
-8.22482
50.9439
-7.54547
-4.30893
-10.0026
26.2734
-20.0503
3.9594
8.07293
7.29353
51.565
-30.13
-22.448
35.5596
-28.0453
-16.9311
-29.6143
-13.6757
-34.9548
-14.3001
-41.4003
3.46532
-2.68505
14.4242
-12.7164
-17.4398
-18.0569
25.5829
-8.51385
-21.8647
-32.934
-38.9222
-32.6581
23.1448
-71.2
-52.1749
-58.8934
-49.4788
-50.4652
-48.3799
-37.4131
-44.0521
-3.89648
-29.0281
51.305
-29.3352
-9.48316
-11.5259
-46.2843
-27.07
-27.5794
-66.7019
-13.9386
-13.7956
-10.2972
-53.114
37.5268
-1.35485
11.9936
-28.1914
-4.17963
-28.3953
58.1999
-16.3269
-17.0109
-11.1229
-15.1768
-15.9399
-28.7185
-28.1048
36.8936
-4.29225
-39.7482
-27.4681
-28.116
-27.3699
-27.5617
-28.3279
-27.5485
-27.14
-28.5097
-55.5147
-59.9691
-15.1164
-31.0133
-34.1973
-27.9366
-30.3755
-57.1789
-7.69566
-18.7213
55.5183
34.906
7.42519
-33.0021
9.83618
-20.1582
60.2046
58.751
-27.3968
-27.5102
-27.2156
-40.6597
60.8837
-27.8007
-36.2374
57.5537
-44.2198
-46.5983
45.4463
58.9714
-45.2357
-33.3255
-21.3245
-28.1787
-0.230878
-49.2921
-34.8108
-37.1572
-84.4411
-56.9431
12.631
-7.07698
-7.37203
-25.8683
-27.5198
-40.1309
-28.1212
-28.1277
-28.0195
-37.5433
-27.6473
-28.098
42.8534
-27.8312
-27.3711
-27.334
-27.8585
-16.9192
-36.4186
0.49411
52.5148
34.8827
-1.726
-34.1874
-35.793
-30.1156
-32.4367
-22.1172
54.8841
-27.8835
-24.0303
-42.966
-12.1811
-47.596
55.129
58.342
-25.7134
-32.2317
-29.2306
-40.518
-53.307
1.26467
-60.271
-19.2829
-27.4485
-29.4236
-27.1398
-36.8488
-32.9457
-79.1412
-38.9003
16.7096
-38.15
-28.8277
-13.9341
-30.0317
31.2542
-26.9314
-46.613
-42.6982
-31.3338
16.8344
-53.6649
-35.6084
-28.4496
-0.638983
-28.3206
-55.0477
47.2966
-43.1178
-92.5646
-27.0946
-55.5105
-27.1883
6.0722
-32.1565
-3.74377
-53.2303
-27.7823
-17.8495
-31.305
-0.896022
-27.3238
-67.5984
-40.0569
-23.9589
-3.53669
43.6474
1.07147
-12.793
-5.22791
36.9626
-29.7509
-32.5238
15.5864
7.29937
-29.131
47.5981
-61.6397
-1.34016
-57.1931
-39.5825
-27.643
-14.6805
-31.4473
-15.9689
46.6854
11.7633
-20.333
34.4527
55.8978
34.5212
-1.14196
-34.6158
-3.39815
-21.1624
-21.8023
8.66476
-35.7179
-52.5622
-71.5729
19.3535
-20.182
-36.0472
-36.4734
7.98938
-6.71872
43.3355
-12.8919
-74.9553
4.65275
-7.96422
-72.1729
-30.4613
-26.4166
9.42182
-38.3073
-21.512
-73.8234
-28.8833
-27.8695
-22.3532
-29.6711
-1.09584
3.85828
-30.6926
-54.536
-28.4946
-1.3241
36.4002
-8.95132
-29.8956
-30.9212
21.3205
-28.0829
-28.6296
-29.9213
15.6606
-11.3809
37.0748
59.2031
-87.736
-13.0806
-26.7137
-38.7365
-10.7023
-5.71722
-54.8521
-6.30901
-27.939
-28.146
-5.1389
52.5424
-3.82523
-0.378643
-41.4973
-28.1164
42.6182
-44.3216
-23.5204
-58.7912
-7.65002
-9.70413
-32.3453
-47.451
-25.7146
41.2459
-44.6277
-24.4729
18.7733
-28.7971
55.1414
-26.6919
-30.6348
-23.4309
-10.0481
-0.794167
-10.2322
-36.4283
-47.089
-33.1104
-17.2655
-25.8378
-26.8262
-29.9738
12.1603
-10.2554
-28.0242
-40.3423
-23.1929
-13.1822
-33.0969
-11.8297
-24.4081
-6.95168
-0.393943
-27.9521
-47.9919
-41.3755
-31.3856
-18.9764
-1.88439
3.99715
-26.7568
-25.7529
-14.6395
-19.1279
-38.451
-34.3528
-27.599
-21.5134
-34.4023
-30.3823
-32.8133
-14.8065
-50.855
-11.1881
-54.0694
-52.0598
-12.1573
-51.032
-47.622
-32.6867
-13.2883
-35.437
10.7236
-6.84957
-2.57357
-29.3716
-30.7884
-42.3009
-72.9437
-35.2179
-30.1811
-13.7772
-29.9042
-33.6191
-15.235
-23.6285
-13.4537
-23.404
-10.1299
-8.69676
-32.0565
-13.4825
-20.4193
-0.0167351
-10.2119
-20.6821
-8.4913
-19.0043
34.4175
6.22554
-23.16
-28.7269
56.3322
28.9943
48.8172
17.4475
-22.5036
-22.5983
-20.4167
-9.48524
-30.3914
-37.6284
-23.1541
-17.7984
-15.9105
1.29303
-28.4788
-15.2084
-1.10544
-32.2274
-40.9111
-43.8708
-33.3641
-36.47
-44.7266
-44.2753
-13.6658
-75.1357
-20.1467
-9.31064
62.3992
-30.1406
-0.553058
-38.1995
-39.9664
-6.8731
-29.1529
-10.5442
-14.424
-27.1348
4.91935
-109.752
-46.9505
-24.7741
34.3731
61.4206
-35.77
-80.0819
5.4929
-28.8201
-41.5488
-27.7496
-0.263063
-32.7891
-25.288
-76.3244
-34.7108
42.5635
-29.0894
-39.8582
-4.84474
63.4461
59.2678
29.9598
60.8933
-36.5037
-9.03907
-82.4265
-14.5401
-10.3426
-17.6482
-2.38906
-8.79862
-19.135
-4.06849
-13.0576
-4.16536
-6.78298
-10.0004
-23.0985
-10.9818
-2.56972
20.1727
-10.3039
6.28034
-18.1976
-9.83489
-14.6382
-6.64347
-9.59462
-0.903788
-2.13713
-38.6228
6.80115
-4.97109
-39.3929
-1.92503
-3.20489
-7.39808
-2.25946
-60.6706
41.9996
-16.7552
-0.679018
-17.2953
-10.3152
-13.58
-3.28018
-14.0422
-3.49117
-15.8169
-8.33731
-5.60527
-44.0295
-54.0407
-42.5871
1.95294
-14.2524
-32.228
-17.7661
-57.3128
-22.0024
51.0485
58.2335
-28.6233
55.1348
-59.2965
-15.5873
57.4068
-35.0472
-45.7847
-27.5393
-34.8571
-28.0173
-38.1351
-26.006
-19.9425
-35.3869
-17.9443
-25.3316
-55.8208
59.1192
-18.8596
-46.959
-57.9282
49.8472
-22.2862
-23.0614
-19.3342
22.3383
-63.0751
2.45469
-28.034
-47.8323
-23.1817
-33.7821
-31.206
-69.8975
-52.603
-16.8895
-31.8631
-15.4516
-32.8927
-54.0602
-35.3723
-40.9592
-54.2062
-36.953
-58.9621
-15.2299
-94.8516
-38.6478
-33.7927
-27.6566
-75.2409
-28.6126
-39.0606
-30.1117
-43.9421
-32.0885
6.39609
-34.3461
49.166
-5.04643
59.5402
60.43
-29.9308
-30.3732
-29.7328
-38.0026
-37.1171
-35.6931
44.5571
-29.4617
28.2416
-27.9413
-29.3568
-28.7378
-33.2189
22.315
-7.56074
-28.2372
-29.2063
-28.78
27.5859
-26.0425
31.7007
-17.1438
-27.728
-23.2439
-21.9898
-23.5245
42.7845
-37.0294
-28.9734
-10.2098
-8.61947
-1.74836
-1.74805
-3.0751
-18.1408
6.18979
1.97687
-9.95435
-7.79253
33.3101
-10.8797
-0.190166
-31.342
0.276763
-35.6265
-25.6107
-11.0854
-8.11465
-4.03929
-74.2214
13.0039
-34.5713
-32.2379
-29.5203
33.2247
-30.0481
2.45399
-29.1435
-31.4868
-37.2136
-27.1494
-34.8077
-31.331
-0.484735
0.0401357
-12.9953
1.23268
24.1687
-20.1222
-31.3041
-2.66904
-29.2984
-29.364
-16.491
-29.0288
-83.2548
-92.0934
-26.5446
-86.8196
-79.3134
-32.878
-34.7511
-30.8986
-32.6388
-32.952
-31.2788
-1.78507
-22.8591
-22.7035
-28.2922
-3.75463
54.791
60.1549
61.4759
58.1501
21.6756
19.4511
34.2861
37.5343
29.5201
-17.6172
-14.3355
-14.6507
-0.499217
28.6836
-13.0433
-16.534
-12.9103
-29.6879
-13.9249
-7.04923
-12.2354
-10.0163
-26.4573
-37.6294
-32.6774
-10.8996
-18.7636
-9.61068
16.6237
-30.4152
-5.78921
0.731234
-10.2311
4.32477
5.84993
-43.3288
-4.31826
-29.9134
-5.95156
-40.2532
-15.4097
24.4837
24.9189
-28.6179
-28.8741
-30.9836
29.0114
-23.8719
-20.7353
-11.3643
-42.5038
-32.6008
-16.2854
-98.6401
-15.1239
-14.133
2.62616
-29.4462
-8.2575
-6.81311
-24.5093
-1.23118
14.9099
-21.1561
-36.6345
36.4121
32.523
5.81924
30.4386
21.2799
-31.7189
-36.2451
54.7765
-171.194
14.9781
16.8172
-125.43
8.0768
-2.18084
34.706
5.35251
45.2559
-58.5491
-65.5636
21.3477
-50.8014
-6.8024
-9.1177
-12.1858
-17.4405
-19.453
-20.7928
-21.8184
-15.6929
-142.5
-100.487
-61.0545
-46.1912
-28.101
-8.72163
-63.9689
-47.1957
-23.1553
-24.8343
-12.4388
53.8511
-10.1268
-56.3775
-18.7141
-0.501608
-0.0881422
3.03389
-48.0691
-61.3634
-39.4522
-50.422
-59.983
-51.0672
-13.0826
-9.90216
-33.6205
-9.26605
37.4871
-22.3727
-32.451
-5.02078
-12.6402
13.2854
-34.5878
-8.41806
7.93067
-23.2388
-9.35965
-45.6712
-10.9347
23.5148
25.9299
-32.3688
-14.02
-26.7496
-32.3894
1.01402
-4.34731
-9.5184
-5.58439
-27.4397
-12.7915
-15.7279
-52.0452
-70.8096
-42.9474
-51.3047
-53.9834
-44.863
-16.0291
-12.4832
-50.8503
29.0309
-14.5766
-14.0476
44.6642
38.8186
-17.4486
-13.467
-13.6534
49.6395
-14.3847
-35.2172
-14.1091
-39.5743
-14.2106
-0.843705
36.6587
-8.66937
-8.9936
-36.529
-18.8317
-21.7509
-44.9172
-89.1734
52.0033
55.759
-27.9272
38.5017
-32.2124
37.2789
-19.6681
-101.892
53.768
49.6888
52.2656
-18.7308
-44.336
-8.2066
-15.0521
56.8191
-21.5519
51.6551
-75.9964
-82.8856
-68.7177
30.619
-21.2166
-12.6001
-10.1771
-1.95707
-10.9011
-47.6727
42.4349
-11.4999
-0.931923
-31.533
-9.81348
-3.08708
58.8925
-28.062
-30.4025
32.5272
33.8708
-2.6538
19.7144
-8.44001
-21.1031
-7.05906
27.7322
-28.5641
-46.2493
-59.1664
-5.55256
40.5602
-66.9286
14.6171
0.923473
-35.1554
52.6382
-30.3505
-33.9915
-29.2194
-28.5731
-15.7154
-29.9826
-13.4821
-38.3131
-45.138
25.3999
1.87731
-3.02984
0.220127
-6.86087
-33.8399
-44.4242
-27.4723
-11.1033
-7.47285
-12.7052
-14.1323
-4.56607
40.7095
-32.6889
-29.259
22.649
45.0516
-42.2783
-31.9927
-15.0067
-29.3988
52.4331
-40.8188
-94.7199
-35.4423
-10.4723
-65.1073
-63.3508
-57.3751
-29.0236
-28.2005
-10.6159
-41.5975
-26.0392
5.0893
3.03293
0.69516
-39.3467
-18.198
-99.8891
-64.7436
-25.1421
-27.0568
-97.0346
60.2135
-40.8362
-27.1936
-7.96667
-39.0194
-52.1455
-3.0527
-12.7717
-28.5509
-37.6721
-38.4674
-32.1822
-13.9087
-27.6259
-27.0056
-16.3861
-34.3548
-0.192207
-10.207
-25.9792
-24.2164
-29.0301
-11.3274
-35.4361
-30.9489
1.38247
13.5231
-37.1774
1.93048
-2.23503
3.73793
0.596942
-28.4508
0.656207
-31.305
-21.6418
-16.4005
-84.2698
-38.524
16.8108
12.9592
-23.5998
-9.29404
-31.0579
54.4068
-22.4606
-32.0596
-18.3815
-30.5251
-19.1277
-19.3419
-19.7925
-8.643
-33.384
-58.0218
-27.2964
-29.3517
-10.1171
-37.6452
-7.26829
-3.49703
-18.6832
-20.2515
-31.5386
-22.6925
-28.774
-11.1639
-29.8326
-2.58215
-45.1464
-11.2323
-13.6457
-24.641
-4.10599
-34.9687
-4.85027
-28.6527
-35.0883
-21.2876
-27.6385
-38.9973
-4.03827
-9.18676
-35.8822
-12.9207
-23.6168
-64.734
-16.1553
-7.6091
-33.0922
-29.3978
-36.7003
-33.6271
3.37015
16.5985
38.8848
-2.41502
-28.1136
-30.5808
-29.4056
-1.55374
-32.8474
0.481351
-41.9887
-18.5671
-18.5617
-37.3168
-42.7388
-36.3957
-14.5042
-22.329
-12.8374
-13.2743
-10.5469
-27.4532
-25.3301
-30.2886
-38.7679
-32.8506
-6.60539
-6.12602
-7.21039
13.2709
-35.0087
-35.356
-28.2623
-30.6449
-14.5001
-24.0676
-22.0869
-55.8831
-1.96726
-7.48411
-25.0071
-12.2394
-3.26903
-16.549
-13.7966
-12.4457
34.3843
34.0608
-12.8419
-27.7356
-47.9547
-15.7628
-15.0634
-7.38222
-41.4024
-34.5245
-15.3154
-5.36568
-6.81212
-11.5759
-31.17
-43.8984
-38.3162
-29.3185
-5.61256
-18.5514
39.052
-108.048
-14.2506
-46.4536
-58.471
-29.0716
-42.0373
-40.6335
-26.4148
-41.2566
-4.6673
6.31757
-10.1168
-7.58282
2.49962
-55.4908
-32.7161
-0.561916
8.69246
-28.3805
-6.03323
20.2443
15.1158
46.4602
15.9785
0.586947
-20.8776
-28.5
-1.84629
38.6833
6.82574
10.6359
-28.9437
-51.6316
-28.0863
48.3172
-50.2153
5.01897
3.26481
60.7315
-80.451
-31.4201
-25.6179
58.1711
40.3878
62.4098
55.4935
-26.6087
-8.79077
15.3023
0.343945
-26.3398
-22.4431
22.5155
52.5174
-48.9969
-1.17581
-2.57223
-0.79666
7.00241
7.17446
-19.6209
-20.755
0.557173
3.49066
-6.67564
6.22735
31.6954
-44.8815
33.7502
37.1378
-49.2587
27.5646
-2.00629
-10.648
-7.78598
3.04825
-8.46139
-13.2775
-32.0791
-17.5632
7.15094
-33.6107
-10.6548
-13.2889
-12.6901
-17.8505
-13.1077
-28.1835
-27.5853
-17.8075
-27.7893
-41.6363
-40.2522
-30.349
-12.0533
-56.6419
-22.1743
-13.683
3.9553
-7.02996
-3.31623
-51.236
-22.4575
-40.5929
-8.62412
-40.8116
-29.3867
-21.6067
-5.53015
-11.2315
3.342
-14.3975
-11.45
-7.92556
-13.9254
2.37059
5.01155
-40.5843
-23.7667
-9.27403
-27.7383
-60.9059
-27.9471
-27.6417
41.3403
-31.347
-12.2523
60.9968
-27.8734
-27.4417
-11.9065
-26.4885
10.2837
-28.9254
-29.2595
-29.6818
-27.3957
-14.6626
-69.2311
-47.1806
40.7315
-35.5474
-18.0999
-28.7812
-27.3384
-9.96063
-14.3952
-39.3733
54
-18.7337
-57.6385
-61.116
-80.9128
37.028
-50.5226
-63.7351
-24.2369
-22.6081
42.4299
-34.0328
-17.9441
41.8298
-33.8513
-36.908
-29.0107
-44.7614
-37.1752
-36.84
-41.5572
-35.283
-27.1841
-34.69
58.4215
-32.7125
-28.0473
-27.6054
-27.431
-36.1795
-6.7111
49.6529
18.1691
-6.35963
-1.12298
-14.9981
-12.0286
-23.6578
51.3298
-27.7229
58.8815
61.3583
61.2894
44.036
-20.066
-50.1431
-25.4628
35.1583
-43.6343
53.9023
-4.29038
45.0915
-11.7068
-10.2658
8.9911
-12.1004
36.0186
19.8174
37.6304
-7.79743
60.8251
37.2823
25.7802
30.7432
-42.6889
-48.5059
-67.0034
-60.609
-13.228
-61.9796
8.02197
-61.1478
-59.9138
-81.5219
-56.7758
-23.9206
-20.7684
-59.3916
13.0569
-59.1237
-58.4969
-28.8886
-23.6286
-37.9684
-25.8108
-70.4642
-0.367148
-57.4788
-13.4472
-4.17038
-13.4259
-33.1529
-28.2074
39.3175
-11.0825
-42.0505
-5.34356
-18.1057
-28.5291
-27.4113
-37.4364
-29.7587
-36.5784
-39.7319
-2.27657
-7.94783
25.3521
43.2168
-8.72074
-9.74592
-12.5048
3.04301
-11.0658
-36.2847
-38.7057
-32.7512
-10.9204
-21.6322
-28.5125
-60.4588
-10.9494
-32.3219
-14.0322
38.5163
-45.6831
-0.0420857
-3.67112
-0.682949
-2.27211
-25.8921
0.214197
-7.86828
-7.4165
-64.2335
42.9227
-27.9986
41.9422
-4.68088
19.8505
-7.12101
-23.8413
-32.7693
-10.5884
-14.5765
-21.5429
-11.9295
-11.717
-37.1635
-32.6278
-42.431
-27.1381
2.54914
-11.3592
4.90955
-26.3802
11.3341
-18.5057
8.12613
-47.4046
-12.0876
-2.47409
-10.869
3.17079
13.7044
-5.18467
-33.8375
2.87191
36.6238
30.4213
1.06485
-13.0831
7.68179
-38.6146
-42.5313
40.7157
-62.9094
7.65941
-20.7386
56.7889
-14.6709
6.27663
-2.11675
0.986422
-5.49702
-20.5866
3.03933
-35.3362
-37.7156
-37.2733
-61.0062
-52.064
-57.6578
-27.5296
-19.4331
-3.1461
-26.964
-24.7654
-23.2569
-27.608
-29.6903
-10.4303
-38.6153
-2.74272
-28.2567
-28.8175
-30.2923
-150.181
25.8106
27.9124
41.0381
60.9586
24.0398
3.2269
-10.4815
-6.52316
48.3729
46.7279
-35.6764
56.0056
24.6193
-73.8263
-30.2523
9.57535
-47.3157
-33.8311
-22.9529
-10.9953
1.81503
-4.56103
-38.2539
31.9311
-28.4261
13.5761
36.97
-41.5973
-2.18552
-52.9406
12.4381
-28.0426
-31.3844
-22.5542
-2.74776
-57.0769
-51.0235
-27.5218
-28.8653
-29.5454
45.0846
19.6781
31.586
38.082
17.6912
-5.37148
37.1379
59.5135
6.30037
56.681
-71.6526
5.9137
-10.2424
-2.83787
1.16834
-33.1506
-46.6187
-44.1601
-86.443
-27.9909
-28.0774
-6.20123
-24.7946
-27.2062
-28.8223
-28.3578
-47.9464
-34.2196
4.11415
-26.3577
-5.59212
13.7622
-1.15609
29.2325
23.6065
22.0255
-28.308
1.60098
-34.9919
-29.558
-44.4153
-37.36
-40.3856
-5.5691
-21.1616
-21.6009
-1.91811
-6.74519
-12.3437
-1.39837
-42.3639
-13.5067
-37.7813
-34.7017
-38.4622
-28.9124
-31.2506
-40.7828
-3.01091
-30.0786
-25.0741
-11.1348
-14.2072
-18.7534
-34.7292
-8.84623
-18.9844
-27.7093
-30.7171
-19.5773
-37.8789
5.41676
1.71469
-30.2482
-7.37574
-33.5689
-32.6742
-29.8083
-29.2938
-6.46357
-11.9515
-27.6063
-3.47231
-14.498
-16.9223
-37.1255
-40.516
2.55066
-3.26561
-7.08847
-21.0575
5.71961
-12.232
-27.0101
36.509
-30.5575
-27.072
-21.8063
-22.9392
-22.2331
-27.0064
-34.1147
-33.8994
-28.2296
-7.17063
-50.0487
-54.1009
-24.0389
-29.5872
-22.6433
-20.8881
-7.76485
-30.5522
-30.982
-29.8533
-30.8538
-29.7469
-29.3293
-36.3663
-27.784
-28.0438
-27.6073
-27.4693
-27.7879
-45.8664
-55.0318
-45.2752
-41.2376
-55.42
-25.3674
4.95186
4.02795
1.94846
-23.7592
-13.7006
48.5206
49.8487
42.221
42.0033
49.0354
46.2584
54.7617
-45.589
-37.1722
4.63207
-38.9312
-19.4741
-29.8701
-47.9493
-17.9157
-15.6292
-11.9294
-15.5309
9.89854
-2.49732
-69.0078
-56.9791
1.23424
-49.9817
-33.8458
-34.622
-32.0817
-34.0116
-29.0554
-9.55253
-23.1744
-16.0421
-29.3146
-28.3612
-28.2354
-27.8575
-33.9358
-21.6649
-7.31633
-18.8903
-23.1265
-6.15837
-8.05973
-35.926
-97.5343
-44.0059
-11.1753
-18.2569
-46.5477
-36.6093
-38.3007
53.5516
24.7299
-2.30001
-40.2007
53.5002
-27.4982
57.5371
57.9273
55.7986
-26.3662
-35.6222
-26.1063
-36.0762
-17.28
-14.9447
-33.3295
-17.0438
-21.9915
-23.1043
-49.0309
39.6521
-17.6615
35.7308
-43.6894
-52.7944
40.4984
18.9486
3.29191
-25.5391
-33.9849
-32.7915
-30.0064
-38.066
-39.0458
-11.0602
-3.23316
-16.2015
-4.96761
-11.5955
-43.5972
-37.6875
-54.6711
-16.3178
-24.4237
45.1359
48.8878
55.2987
38.9743
45.5923
28.9448
7.84153
3.44461
7.81715
4.41236
33.2125
16.2394
24.7729
-7.05402
-15.4143
52.9418
39.2634
38.5084
43.8156
-5.60367
44.8971
55.5354
50.2303
48.1229
-33.2353
-34.1568
-33.3551
21.2713
-7.7176
-7.11945
-9.77214
34.4192
36.3709
41.1399
-28.3594
-30.0864
37.9922
56.2346
-50.3133
53.8115
58.1942
-29.6718
36.5362
20.3908
-113.279
-157.599
-15.8126
-92.1627
20.3484
35.2449
-79.4792
-12.9432
-13.0191
-54.666
-60.0555
-28.6108
58.0617
-35.2487
-41.9891
0.0679848
-29.3352
-26.53
-27.8419
-35.8326
-20.0742
-18.2284
-43.3562
-83.2246
-27.827
-69.2752
2.79596
33.3041
-35.3297
-45.0088
48.5469
46.3777
31.0381
-27.6024
-37.7082
-36.4847
-42.6806
-34.5633
15.0595
-28.6637
-20.8031
21.2375
-29.6997
56.8166
-29.6998
-31.059
-26.9623
-29.5246
-37.4597
-30.417
41.4683
-44.7168
-3.44647
20.0872
2.64172
-29.3864
-98.3815
-33.3589
-37.1186
-54.7504
-66.1809
-61.9652
-30.5545
-38.6231
-10.6456
-38.3814
-84.836
-29.4212
-31.7715
-30.2332
-32.3861
-28.9138
53.2821
57.4465
31.5795
32.6637
54.0322
52.9044
-25.3391
-25.7917
-33.4151
45.9697
59.0104
-8.3509
-5.56505
-4.29745
-13.3939
0.735233
-31.2424
-28.6295
-27.5826
-16.5786
-31.0284
-28.9789
-6.93203
-10.6625
-16.9097
-32.704
-9.33393
-22.9382
-32.3664
4.66081
-4.52691
11.5863
-26.5738
-35.8383
-24.7674
-44.7478
0.254404
-21.1256
-35.2954
-28.2417
-26.5452
-29.3199
-30.7895
-30.4555
46.7625
-12.6788
-12.9198
-13.1976
-10.255
-33.8629
-30.0503
-41.9801
-16.4148
-29.4528
-6.70594
-38.0918
-23.7409
-35.8115
-34.3215
-20.7282
-39.3532
-15.6376
-26.0876
-64.4525
58.6363
45.4326
-32.0471
47.2746
-29.9278
-38.2288
53.8339
-1.66101
-48.3138
-25.1897
-1.6946
39.5612
41.3095
49.6904
57.2768
52.9521
-22.9514
-47.5454
-10.8601
-8.38067
8.93831
1.64779
-24.1891
-43.1828
-57.5647
-44.7622
-40.7428
-16.9043
-14.9989
-33.7981
-36.9176
-30.3321
-28.4423
-34.198
-31.5824
-7.16741
-13.8524
-22.5139
-7.40484
-4.87463
-17.3855
-21.6049
-29.0851
-20.5364
-7.42304
-18.2222
-27.5504
-29.3406
5.00708
-19.6974
-47.4724
-17.0543
-15.4646
-44.1085
61.4996
50.4906
-12.3711
32.0997
-4.81199
21.529
22.7843
-17.9069
2.30439
-10.343
-10.3087
-19.772
-40.7157
-42.08
-30.5196
-24.587
-24.1285
-47.8421
-18.3607
-5.58967
-26.1875
-64.1049
-69.6154
19.4994
16.4151
23.0438
-32.9867
-49.6748
-18.0574
-38.4006
45.4784
58.5326
45.5506
23.7433
21.0329
61.3987
-3.08175
-11.6341
11.8464
18.5592
28.4556
48.8941
-47.0013
-4.77317
-17.1034
-14.0278
-18.7555
-13.722
-15.5626
-20.511
-15.7309
-14.5357
-31.7311
-2.82004
-0.287464
-26.3978
-13.1014
-59.4622
-58.1266
12.3838
48.2334
45.7347
-9.47561
-37.5888
45.5949
13.3909
-14.8896
16.3198
-19.0561
-15.633
-41.5864
-13.7709
-10.9663
-12.8185
51.4749
-42.6611
-50.7398
-33.1083
-11.2315
-36.8172
-20.2733
-40.59
-30.9313
-55.008
-29.4822
35.7179
35.3031
48.6243
45.1367
47.0991
43.7695
-67.8005
-20.3947
-28.8271
-6.48011
-18.2761
-53.4499
-16.4844
-35.443
-11.3476
-49.4252
-30.6298
-15.5779
-3.62104
-27.8501
-12.9043
6.72214
6.00013
3.19975
-30.6007
39.6115
37.178
-76.4151
34.9877
1.28941
25.6332
41.6576
-26.1558
-15.9238
-7.12797
-34.0827
-22.6874
-9.6778
-14.6053
-32.1929
-27.6703
-33.9666
-64.0675
-48.0027
-68.7918
-21.4648
-42.5608
-65.2976
-9.43246
-7.94139
26.285
57.3502
-27.4439
8.22921
-28.6977
7.88024
-2.01587
2.40191
43.0984
-62.946
-23.4354
-24.3878
-15.7195
-43.2394
-19.8846
-12.7942
-27.4644
-16.7653
-13.3252
-24.0872
-23.8156
-7.77027
-31.0778
-33.9823
-31.4317
-33.882
-18.1958
-29.9113
-34.6556
-30.1931
-28.4285
-29.6854
-16.1535
-13.9803
-15.0752
-16.1665
-30.8501
-13.2666
-27.5205
-3.89816
-9.53256
-8.56952
3.70808
-5.00435
-9.1322
-0.683692
-1.69063
1.71482
-39.188
-1.90101
-34.7333
-28.544
-10.6744
-4.4755
-11.6388
-18.2395
-47.0707
-3.45705
-7.15784
-36.3941
-23.9232
-33.0076
3.52415
-19.1766
-32.6099
-24.0313
-45.774
-29.6096
-26.4774
-26.1422
-32.4446
-20.9488
-7.2145
-14.6137
-42.5771
-15.0281
-8.34873
-41.179
-37.7767
-19.9584
-17.0786
-35.227
-37.3499
-28.7847
-10.7592
-13.5831
-36.6518
-29.62
6.51953
-27.5746
-27.5221
-29.8149
-0.857929
-38.3905
-72.3257
-53.211
3.42148
-14.9351
-49.299
3.01516
-5.32922
4.33409
13.5607
-28.2801
-12.4274
-81.6478
-60.9879
-15.8435
-27.663
-27.9299
-45.0316
-33.4583
-37.2377
-45.0751
-45.9828
-36.2983
-34.567
-21.7899
-22.9831
-27.8948
-13.7249
-36.765
-1.8276
-1.85606
-22.1009
-48.7332
-7.77436
49.9767
-54.2995
-118.686
-55.304
-31.5151
-11.4662
64.2564
11.9948
-27.9289
-26.3952
-31.4829
-27.7118
-26.7805
-29.1285
-31.4466
-30.168
-44.4043
-7.34798
-29.5317
-29.3911
-31.7178
-3.69173
1.73318
-5.03724
-45.5277
-33.0644
-171.048
-34.2051
33.1513
-28.7162
-31.9506
-31.8317
-33.8153
-34.117
57.1051
-47.5857
-27.778
-32.5156
-27.9201
-27.8266
-33.0354
48.8215
-35.7271
-9.00139
-6.83477
-3.40656
-12.2821
-1.33807
-5.85775
-6.40442
-24.4554
-9.04411
-2.56101
-36.5495
37.4258
-34.2301
-23.2056
-38.8143
-40.6269
-21.2751
61.0508
-3.73092
-33.6876
0.25846
6.33259
-2.16085
-27.863
-15.9011
-62.0541
-38.9363
-57.7662
-39.1006
-79.5695
-24.9291
37.0629
-31.7997
-4.37487
-48.3983
-37.3277
-44.0149
-35.5511
-33.3073
-28.8667
-29.4441
54.3224
-28.1203
-27.4319
-52.5302
40.8512
-57.7005
-28.0331
-28.8509
26.1066
-26.1282
-37.1047
60.3371
-35.2433
60.5253
61.2711
-27.3856
-37.875
36.659
-34.0506
-29.3266
-26.4202
-24.5045
-24.4042
-18.6083
-34.3455
-36.0492
-29.6697
-65.5371
-61.6436
59.2805
-58.4308
46.1304
-35.1668
-18.7882
-1.24462
-37.4013
-27.8972
-29.1721
9.35187
4.78077
-1.31237
4.97356
9.78921
7.15989
-22.5707
-58.7608
-62.3056
-23.8379
-118.167
-27.8079
-27.2445
-26.613
-35.3195
-37.3529
-36.561
-34.8858
-34.7464
-34.5139
-33.8761
-36.017
-4.50073
-33.4271
-36.3071
-29.4619
-37.6447
-34.4292
-33.1339
-21.2438
-22.0608
-19.7629
-22.4179
-35.2713
-44.1856
-18.0035
-19.1944
-12.1142
-3.49757
-19.6399
-17.4768
-0.682405
0.741118
-42.3297
-8.36419
0.384308
-5.02977
-31.9048
0.536668
-6.70157
-24.857
-27.8988
-26.2481
-19.1119
-38.9316
-30.9315
-20.7453
11.0342
-2.60617
-27.1063
-31.1542
-26.7991
-26.6163
-9.71909
-11.4449
-6.90027
-58.4166
-85.3735
-12.2106
-2.5252
-106.977
-132.645
-20.5654
-8.01286
-9.85551
-59.3136
-22.4662
-23.6798
-41.162
-36.1638
-14.9421
-23.3216
-13.4986
-21.1498
-17.8878
-62.1087
-51.728
-172.528
-46.2427
-34.5876
-42.7315
-34.1339
11.7472
42.0364
40.6427
13.1154
-33.6834
2.59254
-25.1913
-24.5273
-27.8934
-33.5982
-31.2467
-37.2967
-38.3196
-27.7511
-8.25109
14.9694
-1.49132
-36.928
-41.2626
-43.8517
-7.87774
-3.99965
-1.90975
-11.9135
-38.9378
-35.5787
32.03
-12.1182
-20.1786
2.57534
-23.1894
-48.9247
-35.0414
-41.0855
-22.2626
-43.2744
-20.99
57.6819
53.0993
58.4054
56.2452
59.3968
-29.7196
0.242102
-1.26127
2.61353
-2.35803
-32.4125
-34.1367
-170.357
-107.414
-1.17721
-44.9935
-27.6498
-19.4307
-19.2276
1.98123
15.4451
0.84193
-16.3619
40.7605
56.3954
-10.116
-6.02844
30.5831
16.5878
-30.58
-16.6467
-40.4117
-33.6361
-23.2603
-14.5168
-20.1017
-23.2869
1.17671
-12.1674
-41.1276
-18.6012
-11.4194
-11.3006
-8.37957
-9.57385
-17.7583
-1.24393
2.97108
-11.7399
0.41
0.50591
-16.215
-13.5169
-14.0206
-163.345
-8.18409
-6.2603
-53.8918
-0.895081
-11.9241
-10.5935
52.1105
50.3715
47.088
41.4725
3.529
8.43716
8.56311
0.200084
-3.01407
5.91727
0.376418
5.49084
-154.255
-13.5356
-54.2676
-28.2772
10.2257
-16.8484
17.1782
8.77283
-11.3679
-52.307
-10.2696
-16.3834
9.6491
-9.01997
-61.8725
27.2757
22.6079
40.5313
10.0872
32.389
-4.70901
-7.38949
-4.90384
26.6647
30.7443
26.2218
45.5826
22.3995
31.154
32.5043
-5.90434
-1.00164
-7.89249
-19.906
-0.780458
-16.4721
-14.1526
-21.3795
-42.2431
-11.2141
-15.3736
-12.5129
-11.6943
-53.4588
-65.8931
-113.773
-37.6105
-7.94228
-22.9828
-36.5809
-5.6484
-116.497
-75.2834
-60.4022
-29.4519
-3.8576
1.27693
-1.95234
-8.05381
-16.343
-3.99437
45.8481
-8.40698
58.4581
-1.09667
1.07202
59.6809
46.6552
48.0152
-4.58536
-54.3092
-2.15167
-17.8015
6.29346
13.9174
-2.16506
-12.6801
-12.3281
-14.2225
-31.1577
-35.4004
-29.174
22.5592
45.8407
47.8655
14.0874
16.9029
0.683289
1.186
10.6356
26.9743
-3.10963
-24.342
-41.0598
-28.8947
-29.4313
-30.9417
-38.0988
-48.3495
-90.8571
17.5187
27.709
-10.9893
29.3053
-13.0854
-30.5052
-2.58361
48.9922
-60.64
-18.1169
3.6478
-118.874
-32.7508
-38.1936
-38.4736
-39.3576
-33.696
-47.6481
-36.8878
-9.28982
5.99405
-38.6502
-34.8396
-41.45
-22.1549
-9.3111
31.6308
1.29342
59.5267
-34.4757
-34.2613
-27.8056
-2.61247
1.04302
29.8401
26.2995
13.3809
13.5339
40.7595
-18.8475
-28.4769
14.5465
8.33396
5.00201
7.41711
32.2702
-38.5451
-28.45
-21.1623
-31.0759
-20.7089
-39.3556
6.14092
-36.8032
-35.4575
-26.1618
-43.316
-33.2591
-35.1867
-17.4807
-33.5007
-38.0345
-18.6304
-17.2286
2.7307
-13.2743
-24.7042
-35.0853
-34.6099
-38.2887
-28.9419
-25.0155
-34.6144
-30.4367
-28.9289
-34.4603
-35.6054
-28.0174
-16.9508
-27.3425
-22.7985
-19.3085
-16.1436
-2.24618
-0.874212
-16.608
-7.79133
-11.2444
-17.1916
-21.5262
-33.3255
-26.408
3.88884
-19.9935
-31.4508
-6.10561
-38.5213
-28.9434
-30.113
-11.7525
0.648177
-11.8473
-3.41895
-9.14205
-7.37469
-10.2819
-12.5214
-6.01381
-10.2887
-12.6219
-10.058
-10.6044
-33.3945
-28.3699
-34.5984
-28.1428
-18.3966
-9.17933
-0.193579
-24.5466
-12.8389
-30.0767
-12.5803
-28.2093
-2.85817
-11.2077
-23.3357
-29.8819
-25.684
43.2067
-45.1461
-49.3847
41.3613
51.0078
40.1
-29.3785
12.8529
50.9655
26.6684
-12.0737
54.1026
-28.2372
54.7894
-35.0248
-34.6067
-59.7199
-57.1445
-32.4924
-42.5275
-58.3746
-41.8106
-28.8923
-29.4202
-35.1989
-48.3527
-34.3179
-40.8862
-9.91583
-28.6562
-3.2431
-32.3186
-30.5868
-63.0672
-8.40555
-9.42896
-33.1204
-36.1601
-69.3045
-5.22498
-34.581
-13.1272
-9.3802
-24.9472
-15.7054
-10.9285
-41.789
-69.5052
-14.4588
-47.7657
52.4003
-55.6812
-28.2415
-19.6942
-18.514
39.0872
48.7215
40.8957
41.8298
54.1538
60.8019
23.7157
61.2017
50.6334
47.8582
-29.6916
-28.5671
-33.5732
-28.0568
-36.5382
-46.7819
-28.1156
-32.0369
-39.2428
-33.9861
35.6045
36.331
35.6847
-32.5785
-30.0412
-28.8696
-19.5926
-28.0152
-15.4781
-13.4386
-17.9596
-2.11351
-7.41992
-11.9954
-6.12383
-3.84321
-0.131388
-5.49793
-3.74352
-35.66
-4.58817
-37.3134
-18.3007
-9.65476
-39.2101
-21.1254
-18.5359
-36.0074
-26.8568
-18.0705
-35.1949
-39.9358
-1.16657
-24.8036
-11.9725
38.4661
-28.1644
-16.4113
-32.8046
3.11722
-24.8337
-18.7595
-12.7404
-12.5931
-31.6638
-39.2953
42.0101
-24.6368
-34.5355
-53.7464
-52.979
-28.9366
-31.9161
-28.9371
-34.7085
-31.6343
52.2365
-28.7869
-35.1431
-29.0961
-30.6114
-29.2377
20.9423
1.12814
-28.4194
-30.3258
-34.2756
-3.51758
-29.3697
-27.3948
-29.2915
-22.7969
-50.2408
-44.9499
-48.3578
-55.691
-34.5364
-29.0709
-61.8932
-16.7637
-16.2046
-42.6226
-46.3385
2.77671
14.4093
16.9536
55.9596
14.2523
-9.72324
-14.1323
-17.3509
0.606944
-8.69097
-1.60229
-1.63229
4.62625
15.6343
-31.1571
-28.3712
-25.2743
-37.8185
-37.8142
-33.7781
-24.4136
-20.5332
-10.2395
-14.4666
-6.326
-11.7516
-13.3928
-20.9509
-19.4033
-10.6401
-8.61563
-6.11192
-43.2682
-42.0975
-38.396
-2.78636
-28.2679
-12.7959
-15.7662
-22.2137
-12.8657
-17.6564
-21.9495
-6.51423
-7.57939
-4.07633
-18.8859
-28.5493
-35.1244
-49.1821
-18.176
1.75842
-50.8062
-11.4839
-10.0683
-5.15759
-25.7254
-18.5821
-31.265
-18.8696
-10.0058
-22.1978
-41.9355
-10.9602
-13.3812
-34.8253
-14.8586
-17.0225
-28.3549
-36.034
-31.4364
-30.3384
-28.9797
-16.37
-16.0434
-13.3167
47.1582
42.537
51.7631
46.7216
-31.5347
-31.4592
55.7521
46.1508
55.4333
-9.56076
0.737541
-8.4532
-12.2529
-18.9685
-34.9327
-32.2546
-117.753
-92.5952
-44.6363
-36.9943
-46.7006
-36.358
-39.6673
-50.3196
-43.4231
-73.7744
-76.1538
-72.8144
-90.6153
-87.0816
-92.1338
-86.9251
-91.1056
-99.5704
-102.318
-10.642
5.96178
-27.6911
34.1139
-27.0255
-36.1031
-28.2159
-35.1371
-49.7621
-55.9816
-33.2245
-49.4655
46.0089
-120.392
-119.755
-29.4235
-27.7983
-28.1085
-29.4019
-28.1893
-38.4864
-36.6125
-38.9629
-27.8714
-44.7408
-21.3861
-60.3425
-31.6251
-66.4714
-123.067
41.4545
-31.7716
48.6261
57.4332
-27.7671
-28.8717
-32.7559
-8.02552
53.7963
-38.1158
-10.399
-13.2741
-11.3106
-28.8038
-27.6695
-7.29818
-32.5211
-4.24684
-67.864
-29.6902
-27.9781
-27.8533
-29.0885
-95.1519
0.781108
-73.5829
5.44388
3.96477
-7.51443
-23.8668
23.2352
26.4355
-40.0828
-39.3822
-12.0676
-28.6973
-32.117
-26.9372
-27.4231
-27.5628
-37.0594
49.8531
46.8245
-33.4517
-13.8121
-18.182
-12.498
-13.5974
-11.5373
-36.6819
-38.4559
-37.2362
-37.465
-0.903026
-38.7312
-7.09324
-22.1718
-36.6567
-3.1307
-4.0873
-0.882451
-5.9982
-15.6953
-38.4537
-35.5501
-31.4212
-41.6151
-4.9656
6.75171
-13.0383
-8.70656
-17.1003
-12.3988
-9.14714
-8.62574
-12.1839
-14.0412
-57.054
-43.4988
-41.0228
61.5479
-16.3161
-27.6087
-32.1378
-23.9212
-27.9788
59.4022
54.755
55.2018
59.6572
43.0145
40.9175
-33.4948
4.34996
52.5457
-31.6484
-19.0854
-42.4232
-61.1547
-17.0503
-4.60302
-24.23
-16.1433
-45.2185
-35.9728
-49.1271
-36.5991
-51.7049
-40.7304
-64.5399
7.92472
26.8154
12.9778
-68.6385
12.2329
19.7048
1.33155
-14.2221
-55.5185
-26.894
-33.2766
-33.0393
-65.3594
-23.3979
-42.6233
-18.2503
-57.5976
6.33471
-56.3109
-43.5803
-183.601
-129.616
-24.376
-5.64058
-82.0742
-19.3341
-22.5725
7.62271
6.48375
55.0041
50.0103
34.863
-55.8083
-80.9028
-42.8241
-17.5184
-6.52229
-18.5473
-10.6473
-27.675
-7.10417
-28.7402
-44.2405
-37.5183
3.33231
-53.5998
-52.9921
-45.8591
-28.2157
-42.3228
-72.6746
-66.4128
-58.5989
-22.9697
-41.6893
-11.6007
-22.4878
-33.6705
-13.8545
-10.5078
-4.57722
-6.45383
-7.77993
-17.9701
30.4249
43.7341
50.5748
-21.2352
-12.2024
13.6121
35.2623
44.7953
17.8257
43.4374
3.66908
-42.5212
-35.0826
0.956819
4.26824
-17.4895
34.8173
-26.3326
6.70718
-12.6011
-3.85287
-14.9926
-62.0759
-99.0302
25.2005
50.7971
46.006
-6.36006
27.4971
40.5446
-26.4559
-28.4727
-23.7871
-70.7838
-85.8729
32.3965
18.9966
32.4861
20.8336
-4.89082
-9.15464
31.1136
18.6422
-10.8449
-24.5478