/*--------------------------------*- C++ -*----------------------------------*\
| =========                 |                                                 |
| \\      /  F ield         | OpenFOAM: The Open Source CFD Toolbox           |
|  \\    /   O peration     | Version:  2506                                  |
|   \\  /    A nd           | Website:  www.openfoam.com                      |
|    \\/     M anipulation  |                                                 |
\*---------------------------------------------------------------------------*/
FoamFile
{
    version     2.0;
    format      ascii;
    arch        "LSB;label=32;scalar=64";
    class       surfaceScalarField;
    location    "0.0501868";
    object      phi;
}
// * * * * * * * * * * * * * * * * * * * * * * * * * * * * * * * * * * * * * //

dimensions      [0 3 -1 0 0 0 0];

oriented        oriented;

internalField   nonuniform List<scalar> 
7321
(
0.000985894
0.000334588
-0.00235179
0.00103131
-0.0565921
-0.0343371
0.0795163
-0.0521456
-0.0273707
-0.0133879
-0.00817091
0.0318334
-0.0102745
0.00872951
-0.00684122
-0.00152769
0.00135347
0.000672942
-0.000690606
-0.00133581
-0.000609057
0.00196253
-0.00035262
0.00626295
0.00391515
-0.0335693
0.0102555
0.0107461
0.017328
-0.0112703
-0.0168037
-0.00121618
-0.00152702
0.00390905
-0.00176437
-0.000765081
0.00281526
-0.00028581
0.0040067
0.00378186
-0.00186825
-0.00592031
0.00198436
-0.0133774
-0.00177559
0.0131687
0.00118078
0.0311604
-0.0250932
-0.00724792
0.000206498
0.00226886
-0.000635205
0.00123863
-0.001085
5.28639e-05
-0.000751514
0.000754521
-0.000140754
0.000137747
-0.00062206
-0.000129453
-0.000152015
-0.00436299
0.0242839
-0.0197689
-0.000956363
0.000592771
0.000282522
8.10705e-05
-0.00743921
-0.00245297
-0.0158438
0.025736
-0.00621259
0.0229461
0.000502853
-0.00124557
0.00102037
-0.000277653
-0.0455606
0.00840274
-0.000332732
-0.000499913
-0.00224073
0.00307337
0.00305798
-0.00180415
0.00210434
-0.00335818
-0.00974383
0.0120989
-0.00940177
0.000521468
-0.000425499
-9.59689e-05
0.00485545
-0.00276733
-0.000302512
-0.00178561
0.000356292
0.000221104
-0.000531092
-4.63045e-05
-0.0189846
-0.032906
0.0639191
-0.0120285
0.028168
-0.00207332
-0.00572859
0.0204645
-0.00398987
0.00143333
0.00416197
-0.0131017
0.0075064
-0.0023077
-0.00279151
0.00112016
0.00397905
0.00264501
0.00774519
-0.00384148
-0.00654872
-0.02303
-0.00365728
-0.0120991
0.0387864
-0.00114723
0.000767833
-8.66307e-05
0.000466029
-0.00562494
0.0363236
-0.0132539
-0.00176954
-0.00652252
0.021546
0.0111186
-0.0127573
0.00076526
0.00130682
0.00725953
0.000396789
0.0235892
-0.00788532
-0.00536797
-0.0103359
-0.0299749
0.0229182
-0.0237582
0.0308149
0.0010189
0.00237468
-0.00298219
-0.000411395
0.0246168
-0.0276931
0.0009423
-0.000942121
0.00205768
-0.000110039
-0.00100552
-0.00227889
0.00111663
0.000445511
0.000716755
0.000110473
-0.00986443
0.0124184
-0.00266444
-0.00182587
0.00218214
-0.00011781
-0.000238456
0.00359504
-0.000733841
-0.00138304
-0.00147817
-0.000480976
0.00220325
0.000946033
-0.00266831
-0.000958487
-0.00409636
0.00491194
0.00014291
0.0111124
-0.0119608
-0.0483281
0.0491765
-0.00746345
0.00781379
-0.00506829
0.00471795
0.0553813
-0.0430881
0.0171654
-0.0102737
-0.0107128
0.00382115
-0.0181402
0.0115591
0.0127714
-0.00619021
0.018481
0.00960683
-0.0151281
-0.0129598
-0.00174974
-0.00670835
0.00225639
0.0062017
-0.000525038
0.0308606
0.0133656
-0.0142424
0.00370659
-0.00282983
-0.0137819
0.0134002
0.00668239
-0.00630063
0.00921123
0.0024749
-0.00274575
-0.0372068
-0.0217861
0.0617386
0.00696306
0.00694667
-0.0127549
-0.00115484
-0.00121929
0.00160551
0.00056608
-0.000952305
-2.14176e-05
0.00136927
0.00597941
-0.00732726
0.000779173
0.000477145
-0.00136732
0.000111006
0.0093919
-0.00616833
-0.00358033
0.00035675
0.00258517
0.00245345
-0.000476926
0.0028219
0.000553394
-0.00206713
0.000612787
-0.000617304
0.00207165
0.000479644
-0.000607599
0.000127955
0.000393409
8.62355e-05
-5.32728e-05
0.000860741
-0.00041406
0.00237873
-0.00353808
-0.00200375
0.00316311
-0.00163803
0.00296886
0.00104791
-0.0678263
0.0697162
-0.0307833
0.0288934
-0.000429269
0.000139872
-0.000311725
0.000601122
0.000740153
-0.000109885
-0.000630268
-0.0037492
-3.66972e-05
0.000247819
0.00345745
0.00204564
-0.00839995
0.00289686
-0.00114802
0.0160434
0.0547762
-0.0696715
0.000770315
0.000853355
-0.000926145
-0.000697525
0.000727627
-0.00053033
-0.000197297
0.000739319
0.000313688
-0.000325379
-0.00261385
0.000180861
0.000815572
0.00161742
0.0145212
0.00156327
0.000973822
-0.0170583
-0.0125406
0.0129679
-0.00961712
0.00918979
-0.02753
0.0275121
0.0374759
-0.037458
0.00149164
-0.000281996
0.0013937
-0.00260335
0.00295066
0.00146103
-0.00399642
-0.00041526
-0.0573328
0.0408724
0.0361049
0.00691621
-0.0430211
0.00105541
-0.000338894
-1.87808e-05
-0.000697736
-0.0976286
0.013667
8.64066e-05
-0.00138025
-0.000728669
0.00202251
-0.002075
0.000162414
-0.00129
0.00320259
0.0106952
-0.0119101
0.0109021
-0.00968725
-0.0129489
0.00438188
0.015211
-0.00664406
0.0471492
-0.0597637
-0.00953481
0.0111071
0.00581168
0.0063357
-0.0216822
-0.00027048
0.000178778
0.000346659
0.0125612
-0.00108527
-0.00708477
-0.00439118
-0.00860634
-0.00168414
0.00937491
0.000915563
0.0116458
-0.0325974
0.00314057
-0.0076134
0.00502927
0.0047531
-0.00216896
3.54359e-05
-8.36332e-05
-0.000145826
0.000194024
-8.18466e-06
-0.000314016
0.000357637
-2.84409e-05
-5.51923e-05
-7.46843e-06
0.000212985
-0.000233957
0.000303849
-0.000319502
-0.000225494
0.000321253
-0.000390255
0.000294497
-4.37897e-05
-0.000181705
-0.000223412
-0.000447455
-0.000155273
0.00082614
0.00316327
-0.000341853
4.88157e-07
0.00440401
-0.000263563
-0.00178497
-0.00235548
0.00601917
-0.0190603
0.00312672
0.00991441
-0.00194181
0.00101625
-0.00282365
-0.0230353
0.0125498
-0.00175496
0.0122405
0.00118434
-0.000726391
-0.000457953
0.00504484
-0.00798219
0.0119883
-0.00905096
-0.000733933
-0.000760278
0.00149421
0.0193728
-0.0104435
0.00368869
-0.0126179
0.000968662
0.000109524
-0.00298914
0.00191095
-3.42103e-05
-0.00124528
0.00147635
-0.000196854
0.00209736
0.000814171
-0.000781872
0.00940702
0.0114449
-0.0043141
0.00460039
0.000829765
0.00406326
-0.00949342
0.00915166
-0.0138384
0.00293835
0.00174842
-0.00371906
-0.0103929
0.00508742
0.00902457
0.000622226
-0.000114764
-0.000507463
9.38926e-06
0.000752202
-0.000139365
0.000357114
0.000397406
0.000342231
-0.000315709
-0.000167275
0.000540669
-0.000183555
-0.0103018
0.0110587
-0.00167278
0.00091582
-0.000336489
-0.000795889
0.000525996
0.000606382
0.000298035
0.000566031
-0.000323397
-0.000680479
-0.00312908
0.00308112
0.000728436
-0.00107616
0.000445997
0.000515396
-0.00355401
0.00230561
-0.00417602
0.00196626
-0.00732348
1.67543e-06
0.00535555
-0.000860767
0.00128664
-0.000116191
-0.000309677
0.00013414
-0.000998071
-0.000212226
-0.000738673
-0.00312916
0.00217254
0.00169529
-0.00436333
-0.0138058
0.0287251
-0.010556
-0.00863706
0.00724622
0.00955318
-0.00816234
-0.00321957
0.000467562
0.00275201
-0.0260433
0.0150443
0.0141691
-0.00317007
0.000473876
-0.000639401
0.00781132
-0.00845307
-0.0072845
0.00792626
0.00149125
-0.00555168
0.00196332
0.00209711
0.00015821
1.62859e-05
-0.000114434
-6.00619e-05
-0.00514419
0.00167738
-0.000463577
0.00393039
0.00147728
0.0067174
-0.00161817
0.00324517
0.0041845
0.00145996
-0.00888963
-0.00477359
-0.0143218
0.0217404
-0.000839068
0.00109614
-0.000257068
-0.00098726
-0.000525239
0.000673431
0.000174863
-0.00156832
-0.00446428
0.00585773
0.000151706
0.000334456
0.000640964
-0.000345878
2.9495e-06
-0.000235277
2.11492e-05
0.000214128
-0.0012411
0.00150921
-0.000268114
2.88764e-05
0.000100194
-0.00012907
0.000370868
-0.000457257
0.000115265
-0.00080415
-0.00222351
0.00508004
-0.00057027
0.000120669
-0.000249723
0.000699324
-0.000419116
-0.000151154
0.000301947
-0.000149464
-0.000152484
-0.000433056
0.000365397
0.000430661
-0.000363002
-0.00138728
-0.000405429
0.00210947
-0.00031676
-0.00337417
-0.00221338
0.00454065
0.00104691
0.000537156
-0.0104001
-0.0144687
0.0243316
-0.00037242
-0.000967804
0.000578269
0.000761955
0.00142053
-0.000713113
0.00134246
-0.00204988
-0.00601855
-0.0645942
0.0192431
0.0513696
-0.00340066
0.00079113
-0.000824813
0.00343435
-0.00290903
-0.000148745
-0.000795441
0.00385321
0.000188247
-0.00115855
-0.00243036
0.0114948
-0.0118703
-0.0111718
0.0115473
-0.0138562
-0.015585
-0.00129663
0.0307378
-0.00118623
-0.00334694
0.00245817
-0.00164518
-0.00335925
0.00485347
0.000150963
0.00821184
-0.00630051
-0.00211966
0.000208333
-0.00396797
-0.00190188
-0.0318421
0.0197832
0.0186554
-0.00659653
-0.00341002
0.000241522
-0.000328244
0.00349674
0.000378771
-0.000408698
0.000889738
-0.00085981
-0.0001724
0.00118109
-0.000999301
0.00655488
0.00851171
-0.00758578
-0.00748082
-0.00409673
-0.00697451
0.0161161
0.00270444
0.00420267
-0.000352235
0.0117839
0.000923847
0.00402688
-0.0033482
0.000655341
0.00465911
0.0020143
0.0016953
0.00084999
-0.00455959
0.00118933
0.000628132
-0.00127952
-0.000537945
0.00444319
-0.00319286
0.00335006
-0.000159232
-0.000273825
-0.000643391
-0.00864971
0.00460649
0.00468661
-0.000112267
0.000122944
-1.06767e-05
-0.00799977
0.00516342
-0.00385688
0.00669322
0.00608812
-0.00569825
0.00439873
0.00215756
0.00684164
-0.00899921
-0.00290686
-0.00122121
0.00688616
-0.00275809
0.00388479
-0.00703329
0.00139876
0.00914304
0.00329631
-0.0120985
-0.000340851
0.000314089
0.000194823
-0.000508912
-0.00257237
0.00589049
0.00401009
-0.00732821
0.000537227
-0.000186324
-0.000350903
0.000781391
0.00144644
0.00083015
0.00131508
0.000592048
-0.00304116
0.00113403
0.00268365
0.00534801
-0.00434641
-0.00368525
-0.00567756
-0.000208579
0.00297122
0.00291491
-0.000920565
-0.000648539
-2.70457e-05
0.00159615
0.00223807
0.000395128
0.00080675
-0.000850552
-0.00186823
0.00275922
-0.00107154
0.000180549
-0.000278258
-0.000497627
0.0021241
-0.00134821
-0.00169655
-0.000936531
0.00991543
-0.00728234
-0.012718
-0.00971405
0.00609005
0.016342
0.00224849
0.000733015
0.0025061
0.00269307
-0.000956179
-0.00424299
-0.00054683
0.00100001
0.000532719
0.00212624
-0.00114911
0.000772711
-0.00174984
0.000133223
0.00922928
-0.00317355
-0.00618896
0.00251927
-0.00216423
-0.000326774
-2.82668e-05
0.00757475
-0.00213776
-0.00642972
0.000992734
0.00448069
-0.00222869
0.000212923
-0.00246493
0.00250672
-0.0039459
-0.00234074
0.00377992
-0.0565799
0.0310027
0.0130825
0.0124947
-0.00243013
-0.00140088
0.00244159
0.00138943
-0.000143416
7.89663e-05
6.44497e-05
0.0134243
-0.00448543
-0.00530887
-0.00362999
0.000979951
-0.00264428
0.00185258
-0.00391462
-0.0105824
0.00632025
0.00817676
-0.000495325
0.000692409
-0.00153553
0.000733139
-0.00198845
0.00279084
-0.00316445
-0.000342364
0.0107981
-0.00729126
0.0045815
0.00275732
-0.00340238
-0.00393644
-0.0015708
0.00937417
-0.00232326
-0.00548011
9.41908e-05
-0.0073456
0.00483284
0.00241857
0.00275622
0.00964944
0.000137808
-0.0125435
0.000496951
-0.00202922
0.00565834
-0.00412607
-0.000741256
-0.00367939
0.00126977
0.00315087
0.000187256
0.00199726
0.00258169
0.00932605
-0.00635412
0.00592435
-0.00889629
-0.00170247
0.00576792
-0.00150094
-0.00256452
0.00967434
0.0148951
0.00491022
-0.0173983
-0.00565219
0.000321511
0.000797822
-0.00052811
-0.000591223
0.0025163
-0.00196879
-0.00157898
0.00103147
0.00238844
-0.00212375
-0.000264687
0.0115953
0.0129574
-0.0139147
0.000424592
-0.00201046
0.00197955
-0.000393678
0.0053776
-0.00142871
-0.00455942
0.000610533
0.00080969
-0.000518393
-0.000291297
0.00295708
-0.0113949
0.00314594
0.00529185
0.00326988
-0.00172099
-0.00147646
-7.24329e-05
-0.00720112
0.00995817
0.0317912
-0.0345483
0.00106682
-0.000246512
7.03292e-06
-0.000827337
-0.00161506
-0.0143078
0.0232149
-0.007292
0.00663663
0.00336265
-0.00827935
-0.00171994
0.0010478
0.00118624
0.000507576
0.000289889
-0.000422393
-0.000375071
0.00103548
-0.00262009
0.002366
-0.0119722
0.00655741
0.0178439
-0.0124291
-0.00737132
0.00845279
0.00028908
0.00992808
0.00496147
-0.00616004
-6.58188e-05
0.00112719
0.00332148
-0.00438285
-0.0048093
-3.29364e-05
-0.000436674
0.00527891
0.0165544
0.00582001
-0.0129825
0.00330447
-0.00260989
-0.00506933
0.00437475
-0.000263902
0.00603448
-0.00251284
0.000403488
0.000573827
-0.00125363
-0.00213412
-0.00035354
0.000996405
0.00197791
-0.00262077
-0.000723807
0.00250138
-0.00146655
-0.000311024
-0.0047183
-0.000257808
0.00232237
0.00265374
0.00175323
0.00252922
0.0039512
-0.00823365
0.0124435
-0.019593
-0.0141949
0.0213443
-0.00515704
0.00586092
-0.00036522
-0.000338658
0.023114
0.00378697
-0.0172348
-0.00966611
-0.000580091
0.00114475
0.000159814
-0.000724471
-0.00695301
0.0134591
-0.00257164
-0.00393446
-0.00159148
-0.00360823
0.00569666
-0.000234317
0.000884373
-0.000650056
-0.00311961
-0.00337028
0.00899662
-0.000868237
0.000622803
-0.00229919
0.00254462
-0.00272151
0.0139368
-0.00373281
7.54999e-05
0.00254473
0.00111259
0.00320537
0.00100518
-0.00427638
-0.000740906
0.000910531
-0.00149653
0.00132691
0.000168012
0.00018828
-0.00241791
6.11774e-05
0.00235674
0.0044369
-0.00896817
0.000812206
0.000844951
-0.0010343
0.000247004
-5.76522e-05
0.0027504
-0.00387142
-0.00383901
0.00496004
0.00217287
-0.0056512
0.000218808
0.00325952
-0.000724453
-0.000824096
0.0014423
0.00010625
-0.000148353
0.000441256
0.00287036
0.00128001
0.00441949
-0.0026548
-0.0102186
0.00845392
0.00163444
-0.000244737
-0.00199562
0.000605918
0.0202908
-0.0031225
0.000787605
-0.00131504
0.00211981
-0.000789846
-0.00100845
-0.0012358
0.00176404
-0.00171421
0.00118597
0.00105077
3.5052e-05
-0.000473429
-0.000612396
0.000249799
-0.000237853
-0.000282427
0.00167564
0.000751505
-0.00387966
0.00145252
-0.00104689
0.00240317
0.000439618
-0.0017959
0.00980968
-0.00687606
-0.0021177
-0.000815914
-0.00132035
0.00268473
1.69071e-05
0.000113261
-0.000172488
0.000542841
-0.000860475
-4.32081e-05
0.000903683
0.0151709
0.00598331
-0.0137298
-0.00742442
0.000565806
0.002993
0.00156376
-0.00279592
-0.00176084
-0.00375315
0.00190716
0.0041077
-0.00226171
0.0029235
-0.0161015
0.0301196
-0.0169416
0.00311103
-0.00103734
0.00233031
0.0241855
-0.0262677
0.00818653
-0.00610439
-0.00240929
0.00205613
-0.00129202
-0.000341678
0.000666453
4.06214e-05
0.0132843
-0.0550396
0.0164613
0.000338695
-0.00289271
-0.000576242
0.00313026
-0.00194536
0.0159372
-0.0049223
-0.00906954
0.0267968
-0.0064063
-0.00883141
-0.00215846
0.0030756
-8.73743e-05
-0.00037103
-0.000399877
0.000891576
-0.000517827
-0.00214024
-0.00249897
0.00320723
0.00308033
-0.00797749
-0.00365063
-0.00324894
0.0148771
-0.00202566
0.0573144
-0.049671
-0.0321759
0.0245325
0.0146815
-0.010762
-0.0215321
0.0176127
0.000305278
-0.00125274
0.000947464
0.00359037
-0.0015271
0.00400648
-0.00606975
-0.00506688
0.00638417
-0.000800357
-0.000959312
0.000926922
0.000832747
0.0067976
0.000379477
0.000593964
0.00115449
-0.00212793
0.00172771
0.00071223
-0.00207142
-0.000368529
0.000449346
-0.000394145
-0.000426231
0.000783731
-0.00164321
0.00336558
0.00371348
-0.00864299
0.00530898
0.00147972
-0.00113556
-0.000344158
-0.0058762
0.00775151
-0.000226567
-0.00164874
0.0297773
-0.0230149
-0.0130349
0.00627239
0.0158855
-0.0588836
-0.0473241
-0.0136575
0.0211663
-0.00975658
0.00224779
-0.00283473
0.00434799
-0.0026116
0.00109834
-0.00320162
0.000947707
0.00232941
0.00145065
-0.000928104
0.000741966
-0.00126451
0.0775278
-0.0431083
-0.0131321
-0.0212873
-0.00403991
0.00260127
-0.0061618
0.00760044
-2.6278e-05
0.00275179
0.000869535
-0.00111938
5.24863e-05
0.00466933
-0.00360244
0.00392526
-0.00199484
0.00838734
-0.00569007
0.00557
0.00456326
-0.00108321
0.00213399
0.00195937
-0.00996298
0.000798044
-0.00462751
-0.00258956
0.00641902
0.00799752
-0.00334623
-0.00603858
-0.00837889
-0.0015039
0.0098828
-0.0200439
0.0115402
0.0025553
0.00594835
0.00340251
0.00335225
-0.0124655
0.00571071
0.00383932
0.00911524
-0.0030376
-0.00991696
-0.00504667
-0.00777073
0.010872
0.0039938
-0.00988256
0.0147544
-0.00886566
0.000717042
-0.00175642
-0.000290712
-0.00136289
0.00101847
-1.75981e-05
-0.000221699
0.00432904
-0.013473
0.00936292
-0.000218958
-0.0456115
-0.0597056
0.0285402
0.0188458
-0.00481925
0.00636172
0.00186005
-0.00351566
-0.00780724
0.0134074
-0.00208447
-0.00449941
0.000874693
-0.00118458
0.00184079
-0.0034676
-0.00211042
-0.00311633
0.00338306
0.00184369
0.00131053
-0.000863657
-0.00194718
0.0015003
0.00254076
-0.00126306
-0.0012777
-0.00105466
-0.00533581
0.00548883
0.000901646
-0.00250791
-0.00506637
0.00120691
0.00636737
-0.00106263
0.000507229
0.000589104
-3.37001e-05
0.00310604
0.00716147
-0.00624685
-0.00402067
0.00360928
-0.00348534
0.00283314
0.0057454
-0.00279597
-0.00140462
-0.00154481
0.0208558
-0.0298854
0.0214056
-0.0123759
0.00339862
-0.00141907
0.00187152
0.00730323
-0.0155168
0.0313275
0.00361541
0.00400152
0.00595742
-0.00234201
0.000403987
0.000418463
0.0113139
0.00251494
-0.00987329
-0.00395557
0.010334
0.000976367
-0.00755621
-0.0029122
0.0164544
-0.00598604
-0.0098756
-0.00907112
0.000176455
0.0187703
0.0278602
-0.00112806
-0.00825114
-0.00219615
-0.00136686
0.00291171
0.000651304
0.000254733
-0.000174768
-0.000815952
0.000927356
0.00216926
-0.00228067
-0.00077839
0.00174065
-0.00119057
0.000228309
-0.000906799
0.00303322
-0.00503545
0.000491139
-0.000282887
-0.00757957
-0.00361001
0.024525
-0.020915
0.0125852
0.003918
-0.00395345
-0.00324744
-0.00274013
-0.00299339
0.00898096
-0.00672729
-0.00877382
-0.000269134
0.0157702
0.00187018
0.00108455
-0.00237305
-0.000581681
-0.0243918
-0.00118171
-0.0193933
0.0449669
0.00193471
-0.00202682
0.0120772
-0.0119851
-0.0161802
-0.00545516
0.0250858
-0.00345039
-0.0232863
0.0218913
-0.0033786
-0.00500572
0.000393795
0.00393145
0.00593445
-0.0068139
-0.010375
0.0112545
0.0106996
-0.00865446
-0.00272368
0.0116151
-0.00752388
0.00990018
-0.0100551
-0.00421176
0.00436664
-0.00375144
0.0105536
-0.00304644
0.00323843
-0.0160678
-0.00320006
-0.00156719
0.00249914
-0.00011777
-0.0184706
0.0334617
-0.0144539
-0.0114819
-0.0162753
0.0226168
0.00514039
0.00112006
-0.00039973
-0.000720331
-0.00046934
-0.000518969
0.000988308
0.00353638
-0.00383024
-0.00108861
0.00138247
-0.000762619
0.000674481
0.0006157
-0.000527562
-0.000848925
-0.000335373
0.00185724
0.0139247
-0.011897
-0.00189269
-0.000134974
-0.0178603
0.00204363
-0.00403777
0.0198544
-0.0157485
-0.00369506
0.00867943
0.0107642
0.0010888
-0.000673853
0.00824612
-0.00866106
0.000352381
-0.0144146
0.00068479
0.00255247
-0.00686445
-0.00315148
0.00540389
-0.0154723
0.0053336
-0.0006455
-0.0061344
0.00144629
0.0631511
-0.0104853
-0.0574889
0.00482309
-0.0116006
0.00560697
0.00372842
0.00226523
0.000893384
0.0157026
-0.0255371
0.00894111
-0.008026
-0.00345857
0.0064379
0.00120784
0.0111603
0.000385874
-0.012754
0.000862171
-0.0059653
-0.00521582
0.014109
-0.00292787
-0.00531445
-0.000379914
0.000930751
0.00476361
0.00208829
0.00882651
-0.0120248
0.00111004
0.00457577
-0.00454862
0.00251758
0.00103138
-0.00781187
-0.00149333
0.00827381
0.000555557
0.00242683
-0.00166731
0.0143457
0.000788735
-0.0121198
-0.00160079
-0.000389699
0.000489088
0.0015014
0.00349547
0.000412898
-0.00203819
-0.0556227
0.0121913
0.0388831
0.00454824
0.00114232
-0.000657942
-0.000484383
0.00118348
0.000110821
0.0429194
0.0140775
-0.0630155
-0.000118161
-0.00262923
-0.000626785
-0.00299128
0.00169499
0.0498656
-0.064351
0.0144854
0.000109319
-0.000397466
0.000288148
-0.0455928
-0.0555911
0.0501071
0.0510768
-0.0272718
0.0372428
0.0288866
-0.0388576
0.000117259
-0.00825654
0.0144028
0.000353176
-0.00107316
0.00229144
-0.00157146
-0.00112248
0.00364155
-0.0028518
-0.032257
0.0213213
-0.0265226
0.0374584
0.00603916
0.00296544
-0.00536838
-0.000162051
0.000158938
3.11257e-06
2.43802e-05
0.00201895
-0.00144451
-0.000598817
0.00146647
0.000179727
-0.0023871
0.00802325
0.0038853
0.00270228
0.00198284
-0.00130877
-0.000245964
-0.0004281
-0.00333471
0.00155583
0.00177888
-0.00141032
0.00093269
0.000143034
0.000334598
-0.0184867
0.0047604
0.0186891
-0.00496273
0.000240905
0.00154677
-0.00452978
-0.0296627
0.0458618
-0.0116693
0.00277644
-0.0108024
-0.001635
0.000170164
0.0025361
-0.00107126
-0.00370009
0.00320633
0.000625131
-0.000131374
0.000195528
0.000126805
-0.000322333
0.000531477
-0.00136152
0.000240198
0.000589844
-0.00589466
-0.00598168
0.0140391
-0.00216276
0.000555426
-9.06164e-05
-0.00046481
-0.00225562
0.00150143
0.000754196
0.0067265
-0.00458886
0.0041898
0.000670393
-0.000507979
0.00187983
0.00191397
-0.000705626
-0.00308817
-0.0836504
-0.000333903
0.0839843
0.0011109
0.000448197
-0.00140089
-0.0114269
-0.0466114
0.0127566
0.0452816
-0.0590107
-0.00573285
-0.0189069
0.0151477
0.00708122
0.0201236
-0.0423525
-0.0398231
-0.0446655
0.0139638
-0.00481216
-0.00268205
-0.00646959
0.0539292
-0.00477553
-0.00401526
-0.0326232
0.019102
0.0175364
-0.0113245
-0.0354913
0.0387163
0.00831478
0.005375
0.000274022
-0.0660784
0.0396485
-0.0133932
0.0205056
-0.00569334
-0.000845448
4.98859e-05
0.0064889
-0.00105284
0.00126162
-0.0047082
-0.0597418
0.0634472
-0.00370544
-0.02065
0.0139624
0.00324322
0.00344441
0.104928
0.0229834
-0.0595852
-0.0683262
-0.0467281
-0.000774541
-0.00167681
0.0155355
-0.0011817
-0.0024982
0.000691194
0.0029887
0.0142761
-0.000198465
0.0407409
-0.0154504
-0.0223701
-0.00292046
-0.00196549
0.00325482
0.00364764
-0.00493696
0.00199803
0.00540253
-0.0937947
-0.0551875
0.0892404
0.00461919
0.002249
-0.00343611
-0.00343208
0.00667582
0.0038906
0.00836901
0.00872132
-0.00747059
-0.0154735
0.0142228
0.00351433
-0.00484749
0.00109733
0.000235818
0.0078276
-0.0110421
0.00284016
0.000374304
-0.00561639
0.00838578
-0.0212561
0.0135291
-0.0225316
0.00338604
0.0222834
0.0239608
-0.032715
-8.16423e-05
0.000106405
-0.00263862
0.00198968
-9.08875e-05
-0.00269915
-0.00185574
-0.00158429
0.00312591
0.000314118
-0.023205
0.00936975
0.0265886
-0.0127534
-0.00788835
-0.0141232
0.000387454
0.0216241
0.00251168
0.000967845
-0.00103231
-0.00244722
-0.00179376
-0.00355931
0.00349733
-0.00424722
0.0164275
-0.0168326
0.00465233
0.0029814
-0.00438777
0.0270364
-0.016622
0.0209356
-0.03135
-0.0248774
-0.0276416
0.0245666
0.0279524
0.00246679
0.00415571
-0.00337733
0.0254907
-0.0220464
-0.00523496
0.0149943
-0.00454023
-0.000625726
0.00115118
-0.012232
-0.00185303
0.00608529
0.00726897
0.00409181
-0.00333123
-0.0102319
0.0111975
0.00884409
0.0020994
0.0115162
-0.00531234
-0.0083033
0.0158058
-0.00279833
-0.0180917
0.00508418
0.00117515
-0.00169462
0.000259604
0.000259862
0.000164967
0.00730879
-0.000204789
-0.000708064
-6.0396e-05
0.000560295
0.000191907
-0.000216927
0.000328193
-0.000909565
0.000798299
-7.2024e-05
0.000664388
-0.0010617
-0.00334828
0.00323494
-0.000802341
0.000915687
-0.00623772
0.00167157
-0.000109665
-0.000569653
-3.00084e-05
0.0090376
0.00175286
-0.00249853
-0.00829194
-0.000446808
0.000787792
0.000879323
-0.00122031
7.0613e-05
-0.000497956
0.000383553
0.00187713
0.000549578
-2.06015e-05
-0.00976185
-0.000645786
0.00352391
0.00688372
0.000611689
0.00476777
-0.00336747
-0.00201198
0.000270783
0.0162844
-0.00944064
-0.00711455
-0.0121851
-0.00378501
0.00610567
-0.000103702
0.00185102
-0.00174732
-0.000594166
0.0140886
-0.011109
-0.00238546
-0.00200029
9.02131e-05
0.00261363
-0.000703549
0.000878597
0.00132366
-0.00102711
0.000859278
-0.00058995
-0.0209653
-0.00172422
0.0210982
0.0015913
0.00564106
-0.00295682
-0.000762356
-0.00192189
-0.000872125
-0.0026537
0.000324209
0.000385826
0.00189783
0.000232646
0.00652909
0.00667623
0.000719374
-0.0027066
0.0075766
-0.00406386
-0.000806143
-0.0077128
-0.0182314
0.0125562
0.0013085
-0.00502221
0.00217364
0.00154007
0.00854609
0.00208641
-0.00141955
-0.00361982
0.00295297
-0.000419014
0.000308949
0.000431317
-0.00715898
0.0047373
0.00734676
0.000957745
-0.0103418
0.00284373
-0.00393509
0.00145325
-0.00406084
0.00109129
0.0015163
0.00197859
-0.00173952
-0.000819169
-4.89713e-05
-0.0015333
0.00158227
0.0116154
-0.0103264
0.00557645
-0.00686545
0.000731952
-0.000874273
0.000142321
-0.00178097
-0.00153368
-0.000438501
-0.00730729
0.0150488
-0.00106947
-0.00201067
0.00105383
-4.97247e-05
-0.00287233
0.000627287
0.00147065
-0.00124458
-0.00483284
0.0017856
-0.00133453
0.00438177
0.000931971
0.00100315
-0.00267379
0.00320717
0.000276738
-0.00431504
0.000831135
0.0312909
0.00231025
-0.0279229
-0.00567824
-0.00210066
0.00329479
0.000658015
-0.00243738
0.000408007
0.00169066
0.000338717
-0.0016825
0.00159453
0.00152589
-0.000230477
0.00262589
0.000710636
0.000292982
-0.000396032
0.00121395
0.000580201
0.000752283
-0.000300321
-0.00103216
-0.00450769
-0.00662866
0.0132357
0.000400985
0.000263817
-0.00138925
-0.00810149
0.000196323
-0.00432686
-0.00391782
-0.0108776
0.0184735
-0.00268567
-0.00336733
0.0020124
-0.00162924
0.00298417
7.0661e-05
0.000661555
-0.00180108
0.00106886
-0.0129116
-0.029103
-0.000457458
8.50372e-05
-0.000963758
0.00290111
-0.00210984
0.000816967
-0.000227765
0.00117601
-0.00102301
-0.000826495
0.000673497
0.000136295
0.000499492
0.000181179
-0.00129649
-0.000581144
-0.00209189
0.00396953
-0.00132747
0.000207279
-0.000176304
-0.00384861
0.0116634
-0.0031956
-0.00119892
0.000380048
-0.000865384
0.00168425
-7.40361e-05
-9.17435e-05
0.00016578
0.000528806
0.00056772
0.000816293
-0.00191282
0.000465794
0.000773981
-0.000579158
0.000248867
0.00110739
-0.000318601
-0.00189968
0.00111089
-0.00649385
0.0156177
0.00985978
-0.0189836
0.0287867
0.0352383
-0.0272294
-0.0367956
-0.000185919
0.000156524
0.000344327
-0.000314932
-0.000311309
-0.000440218
0.000565607
0.000265843
0.000579116
0.00814637
-0.00268632
-0.011795
0.0186899
0.0065382
-0.00410537
-0.00950481
-0.00807663
-0.00244842
-0.000461716
0.00190067
0.00100947
0.0109876
-0.00405425
0.01148
-0.00314285
0.006153
-0.00686003
0.00189653
-0.0128968
-0.0005969
-0.0014916
0.00478157
0.00186285
0.000408857
-0.00179359
-0.000478121
-0.00128094
0.0153129
-0.0164978
-0.00439409
0.0110163
-0.00893767
-0.0923307
-0.000351122
-0.0151937
-0.0069867
0.0629543
-0.0129044
-0.061668
0.0150411
0.0079267
-0.0591245
0.000155404
0.000237212
-0.00816579
0.00938725
0.0302595
-0.0253389
-0.00507261
-0.00974466
0.00887608
0.00843202
-0.00756344
-0.000223997
-0.00843187
0.00611044
0.000243924
-0.000901395
-0.00292371
-0.00778311
0.0196058
-0.00247389
-0.00936694
-0.00776493
0.00646389
-0.00189854
0.00103296
-0.00559831
-0.0085074
0.0355512
0.00327309
-0.00273854
-0.00141628
0.000881723
0.00269701
0.00054855
0.009416
-0.0126616
-0.00879673
0.000966218
0.00998807
0.0115871
0.00179191
-0.00169605
-0.00249263
0.00122749
0.0104168
0.00909445
-0.00283529
-0.000682555
0.00167648
0.00086893
-0.00126034
0.000469809
-0.000272105
-0.000231197
-0.000708667
0.000542397
-0.00535741
-0.00118703
-0.0049767
0.0115211
-0.000260131
0.000931759
0.000504382
0.0287218
-0.0634882
-0.0298278
-0.00054285
0.001369
-0.00111891
6.42268e-05
-0.000314318
0.00267556
-0.00455436
0.00117698
-0.00120762
0.00308253
-0.00305189
0.00051003
0.000984197
-0.00217678
-4.18077e-05
0.00326316
4.85324e-05
0.0272852
-0.0109101
0.00748099
-0.0134232
0.0389596
-0.0135537
-0.0328451
0.0307322
-0.027418
-0.00619417
0.00288
0.0118007
0.00270263
0.000806301
-0.00522865
0.0115662
0.00765279
-0.0139903
-0.00469032
0.00245608
0.0300123
-0.00748744
-0.0101148
-0.0124101
0.000230389
-0.00618398
0.00191368
-0.00334373
0.0091419
-0.00319691
0.00309621
-0.000894653
-0.000294395
-0.00481334
0.00604538
0.000392691
0.00148383
-0.00397719
0.000373221
-0.00150234
0.00112912
-0.0172914
-0.00207102
0.00788052
0.00218431
-0.000910053
-0.00213473
-0.000575514
0.000948734
-0.000862142
0.00148869
-0.00212261
0.000588869
0.000671599
0.000669216
-0.000779669
0.00133821
-0.00122776
-0.000971758
-0.00106177
0.00110514
0.00092839
0.00124992
-0.00106231
-0.00115937
-0.00119794
0.00229843
-0.000431267
0.0209776
-0.0034007
-0.0349626
0.00673196
0.00301288
-0.0053596
-0.00438525
0.00861807
-0.000435647
-0.00145047
-0.00288282
0.00660568
0.000858632
-0.00668722
-0.00453964
0.00352958
0.00769729
-0.0020676
0.00026491
0.00176848
0.00220872
-0.00107781
-0.000347172
-1.64106e-05
-3.04956e-05
-0.000274945
-0.000687451
6.03281e-06
-0.000511827
-3.85474e-05
-0.00229051
0.00284089
-0.000140924
-0.00316725
0.00279635
0.000490372
0.00169171
-0.000547638
-6.64695e-05
-0.00126903
-0.000171612
0.00182477
-0.00480203
0.0198791
0.000967096
-0.00553073
0.0305039
-0.0140711
-0.0120166
0.00566095
0.00579075
0.000564881
0.00275703
-0.00209496
-0.0103405
-0.00163005
0.0129376
0.00627329
-0.000506715
0.00944447
-0.015873
0.0194323
0.0233309
-0.0268903
0.0105003
-0.0123967
-0.00656237
0.00845874
0.0105455
0.00479269
0.00303227
-0.0183704
0.0195694
0.0035853
-0.0186568
-0.00449787
-0.0210683
0.0115818
0.020032
-0.00876319
-0.0154382
0.00278481
0.0214165
-0.00427544
0.00459656
-0.00279929
0.00247818
-0.00194495
0.00541054
-0.00163704
-0.00182855
-0.00145926
-0.00268296
0.00662244
-0.00493071
0.00432308
-0.00345064
0.00372412
0.0013533
0.0558628
-0.0572161
-0.00659245
0.010532
-0.00315485
-0.00078465
-0.016165
0.00166737
0.00441201
0.0100856
0.00934725
-0.00983596
0.000907181
-0.000895523
0.00200265
0.056829
0.0091369
-0.0592261
-0.00673986
-0.000983447
-0.00737968
-0.000279859
-0.000106528
-0.00345544
0.00220235
0.00135962
0.00448679
-0.00933621
0.00254172
0.0306531
0.0272478
-0.0773158
0.0194149
0.00320854
-0.00151882
-0.000627014
-0.00106271
-0.00976693
0.00727566
0.00542963
0.00189854
0.00135177
-0.00415711
0.0352023
-0.0249272
0.00141569
0.00152434
-0.00323522
0.000295186
0.00168476
0.00121118
-0.00229879
-0.000597153
0.00390032
-0.000691772
-0.00746073
0.00262424
-0.000333906
0.000706704
-0.000372797
0.00183245
-0.000480484
0.000830173
0.000687981
0.00401194
0.00176397
-0.0064288
-0.0163614
-0.0052098
0.00355835
0.0180128
0.00239279
5.62475e-06
0.000445318
-0.0013813
0.000408064
-0.000354237
-0.01421
-0.00168053
0.000102191
0.00120553
0.00037281
-0.0102062
-0.00262548
0.0153466
-0.019339
0.00444987
0.0112466
0.00364248
-0.00613464
-0.0182802
-0.00435319
0.0117773
0.00556438
-0.00768365
-0.00965802
-0.000360569
-0.0107563
0.0149562
0.0156543
0.00769015
-0.000875282
0.00230037
-0.00798257
0.0117233
0.0285802
-0.00882971
-0.00332505
-0.00177381
0.0139286
0.000518109
0.00988634
-0.00259313
0.00126934
0.00063688
-0.000485685
0.000225289
0.00219907