/*--------------------------------*- C++ -*----------------------------------*\
| =========                 |                                                 |
| \\      /  F ield         | OpenFOAM: The Open Source CFD Toolbox           |
|  \\    /   O peration     | Version:  2506                                  |
|   \\  /    A nd           | Website:  www.openfoam.com                      |
|    \\/     M anipulation  |                                                 |
\*---------------------------------------------------------------------------*/
FoamFile
{
    version     2.0;
    format      ascii;
    arch        "LSB;label=32;scalar=64";
    class       volVectorField;
    location    "0.0501868";
    object      U;
}
// * * * * * * * * * * * * * * * * * * * * * * * * * * * * * * * * * * * * * //

dimensions      [0 1 -1 0 0 0 0];

internalField   nonuniform List<vector> 
3918
(
(-2.504 -2.07751 -0.212502)
(9.70121 -0.34334 -1.02658)
(12.4329 0.0964788 0.18519)
(11.8846 0.103906 0.975165)
(10.8595 0.411266 -1.6238)
(2.75738 0.973251 -7.47735)
(2.58204 0.430165 -10.7962)
(9.70975 0.267318 2.06444)
(10.3147 -0.281948 -1.03839)
(6.55518 -0.900166 1.66215)
(8.17821 0.279481 -4.09017)
(-0.800222 -1.32997 2.76101)
(-0.0304006 -2.13096 -0.216796)
(13.0751 0.415867 -0.0849569)
(11.8375 -0.0861023 0.721211)
(6.69171 -0.128715 -5.68019)
(5.27645 0.232222 -6.32866)
(-0.248163 -1.8131 0.646113)
(-0.160054 -1.93793 0.483002)
(5.76316 -0.234974 0.678069)
(1.49507 0.590393 -3.51545)
(10.8371 -0.0243228 1.12771)
(10.7367 0.402292 -0.206765)
(-0.370675 -1.08937 2.20082)
(11.075 0.576499 0.361863)
(-1.67027 0.386278 2.68297)
(7.65528 0.528269 -2.63625)
(12.0223 0.336858 0.202741)
(-0.170921 -1.15344 1.36501)
(-1.94421 0.500645 1.06955)
(-0.920115 -1.50987 0.428872)
(12.1258 0.220538 0.728392)
(11.9303 0.0249803 -0.0462177)
(5.36503 -1.34929 1.37259)
(10.8411 -0.158246 1.6124)
(-3.9708 -2.85106 1.42521)
(10.3917 -0.0425437 0.730484)
(12.5514 0.384388 1.42784)
(3.13194 0.957617 -3.6977)
(11.9868 0.462562 0.0261717)
(11.611 -0.147342 3.3908)
(11.6053 0.396311 -0.0682007)
(7.82517 0.297539 3.49934)
(12.1152 -0.107703 2.17978)
(11.188 -0.148286 0.618484)
(9.14633 0.421036 -5.23461)
(10.7144 0.639479 1.85962)
(3.88475 0.889418 -3.24414)
(-1.83574 -2.27365 1.43822)
(12.7108 0.533722 -0.257364)
(5.80313 0.675994 -4.66722)
(0.483975 0.161982 2.4357)
(11.899 0.32384 -3.48372)
(-2.3679 0.326332 1.41817)
(11.842 0.0320859 0.143912)
(7.45171 -0.00783766 0.714959)
(11.8391 -0.0669332 0.442758)
(8.59381 1.07128 -0.204691)
(11.0733 0.581353 2.71482)
(6.90451 -0.00735636 1.57906)
(9.38644 0.482646 -3.23507)
(11.9386 0.173489 -0.0358036)
(10.082 0.0231035 1.95128)
(11.3117 -0.0592768 2.68855)
(8.30639 1.79426 4.8814)
(11.7471 0.0176006 -0.522675)
(7.7387 -0.191312 2.45795)
(-2.01166 0.471177 0.793253)
(8.24617 -0.105236 1.67419)
(-2.46479 -0.119013 0.723659)
(9.10446 0.480221 3.64167)
(12.6467 0.386721 -2.86899)
(12.6511 0.846312 -2.02598)
(8.45941 0.153309 -0.582464)
(-1.99283 1.41853 -0.764401)
(-0.836062 1.1331 -0.201527)
(1.63883 0.292731 1.70446)
(-3.14073 0.235514 0.575)
(-2.67644 -0.175516 1.7627)
(11.7502 -0.394551 1.04609)
(-1.58543 -0.0576106 0.897631)
(0.960153 0.813436 -4.78274)
(-0.284582 1.10577 2.33754)
(4.88613 -1.07781 2.27144)
(12.6289 -0.119877 -0.212923)
(-1.07468 0.115548 -2.15912)
(-0.145416 -2.19326 0.575229)
(-0.253668 -2.05502 0.53096)
(9.96269 -0.103409 -1.48334)
(12.0437 0.282896 -0.344211)
(8.10116 -0.211677 2.0256)
(11.7748 0.0959508 -1.25439)
(-2.37232 -0.269696 2.90927)
(7.00043 0.7554 1.9372)
(10.8703 -0.163361 -0.366485)
(10.3025 0.49098 0.206765)
(-0.287076 -1.05342 1.96203)
(10.7999 -0.112073 0.197786)
(-0.0547021 -0.996659 2.31959)
(2.49416 1.05644 1.74407)
(12.2202 0.180877 -0.10221)
(12.2369 0.238337 -0.0783593)
(12.7983 -0.266308 0.100192)
(12.152 0.237676 -0.204522)
(12.2685 0.251016 -0.301441)
(-0.428605 0.405007 0.793432)
(11.1263 0.0100739 1.63695)
(7.04668 0.284082 3.97546)
(9.65432 -0.0426361 0.903997)
(3.86757 1.21301 0.699156)
(-0.0260374 0.182718 0.664327)
(-0.92354 -0.0559298 1.17588)
(0.106417 0.276216 0.206934)
(-0.4954 0.20023 0.679864)
(-1.09162 0.189354 0.998744)
(-0.544416 -0.388787 0.622241)
(-0.34954 -0.381977 0.401642)
(-0.638941 0.045856 1.7626)
(12.3409 0.73115 -1.34464)
(9.08593 0.613132 0.364154)
(10.6905 -0.0266887 1.42934)
(3.05695 0.15042 2.92603)
(6.07563 0.490402 -1.27702)
(-1.29718 -2.29543 0.413773)
(10.5595 -0.0666007 1.5497)
(4.10927 1.35189 0.0328536)
(4.306 -0.695104 -1.4661)
(11.8052 0.858222 -3.94979)
(3.4538 0.847713 -0.469707)
(7.05045 0.881098 -2.44772)
(10.3904 0.461459 -0.954415)
(4.86423 -0.592655 2.91496)
(10.8285 0.35618 4.27634)
(12.4675 0.31743 -0.875018)
(0.420518 1.68598 -1.17471)
(0.581426 1.76203 -1.82366)
(-0.262444 -1.63146 0.683852)
(-0.56198 -1.72344 0.210538)
(-0.25657 -1.70901 0.498524)
(9.79363 -0.178154 1.42695)
(2.33869 0.902009 -0.524178)
(-0.393279 -1.6873 0.557808)
(-2.08317 -2.57779 2.00321)
(1.93058 1.30897 -2.00365)
(9.01744 0.536125 0.851539)
(12.0269 0.29167 0.176567)
(1.32167 0.672448 -5.89927)
(2.36964 1.11914 -1.39613)
(11.8468 -0.0402498 -8.82959)
(9.54017 -0.275945 0.327692)
(12.5016 0.276466 -0.304526)
(-0.0361504 -1.4824 3.08584)
(6.53663 -0.779463 -0.130588)
(3.80882 -0.576246 0.145658)
(13.1761 0.210572 -0.278605)
(13.4774 0.761389 -1.25175)
(-3.30779 0.64064 2.93051)
(12.9989 1.76998 -6.27665)
(9.8117 0.515319 -1.44669)
(11.424 0.635889 -1.15505)
(10.8128 -0.0322278 0.712931)
(-0.298489 -2.0597 0.66374)
(-0.647829 -2.09121 0.989038)
(2.73792 -1.53554 1.99287)
(-0.705479 -0.421811 0.722598)
(-0.618835 -1.51043 1.03875)
(-0.309154 0.288108 0.266912)
(-1.75593 -2.08137 0.0262235)
(-0.198847 -0.115987 0.361345)
(-0.471017 0.337191 0.754991)
(5.70083 1.19751 2.68517)
(-0.26712 -1.47006 0.675273)
(-0.172049 -1.6265 0.542247)
(-0.288844 -0.607796 0.324246)
(-0.319086 -1.00371 0.687974)
(-1.83159 -0.263111 0.808215)
(-2.96552 -1.3813 0.961145)
(11.1864 0.491959 3.4623)
(1.34455 1.03981 -3.85149)
(6.5981 0.766056 -3.33626)
(11.5307 0.503173 0.965145)
(-1.06408 -0.953233 -0.170523)
(-1.07714 -1.38312 2.524)
(-2.54675 -0.84729 0.382474)
(7.13396 -0.332347 -0.447463)
(11.8516 0.119868 2.13472)
(3.38443 1.26043 1.69277)
(12.8101 0.38263 -3.39027)
(-0.728889 -3.00113 2.42843)
(7.48537 0.672473 -1.05321)
(11.6871 0.039508 0.405898)
(4.3097 -1.26876 1.9701)
(2.95327 0.819305 -1.95204)
(2.04131 1.43137 -1.0902)
(12.8785 0.676142 -1.8447)
(8.9429 0.197852 1.7329)
(13.043 0.534097 -1.5971)
(10.3655 0.0617016 1.01264)
(8.34744 0.199971 0.931855)
(10.5861 0.756525 -2.66846)
(5.18189 -1.13983 -0.272609)
(2.48781 -0.584032 2.36802)
(-0.20497 -1.26146 0.486779)
(13.1558 0.239431 -1.69649)
(-0.441643 -0.11182 0.115033)
(8.56814 -0.205159 2.12439)
(8.69657 2.23087 2.95809)
(9.45245 -0.166268 7.34748)
(4.01621 -0.477093 1.56128)
(9.06576 0.321481 -2.89361)
(12.7978 0.222699 0.212302)
(-0.892443 -1.10619 0.248512)
(11.8782 0.45834 -2.24768)
(-1.03163 -2.20098 0.278328)
(7.25835 0.417369 -3.28041)
(9.73257 -1.53214 -8.7803)
(12.8153 0.662832 -0.743366)
(13.4704 0.319998 -1.13325)
(-0.66851 -0.514394 2.55137)
(7.85181 -0.218077 -6.28469)
(3.05954 0.540252 -0.339457)
(1.90845 -1.37723 2.31305)
(-0.0756718 -1.44854 2.41036)
(7.5372 -0.504482 0.515153)
(10.064 0.154563 1.16893)
(-0.830488 -0.0103316 2.50105)
(5.4869 0.951561 1.47194)
(-2.0833 -1.26171 -0.500029)
(11.4152 -1.04586 -4.33128)
(8.18402 -0.0797406 2.38786)
(10.7997 0.778641 -0.110032)
(-3.07337 -2.69391 1.93919)
(9.07408 1.38696 -5.72494)
(13.1822 0.271103 -1.25274)
(10.5348 -0.305069 0.370015)
(7.83947 0.494883 0.817342)
(-0.322499 -0.350915 0.170033)
(12.2963 0.408951 -1.21194)
(-1.91261 -1.50305 -0.822762)
(11.1313 0.323208 -0.835671)
(-1.07969 -2.35101 0.446448)
(13.2493 -0.0347212 -1.58626)
(12.6078 0.459738 -0.513318)
(12.5736 0.361668 -2.61586)
(11.3882 0.67977 -1.35962)
(6.49321 0.689319 0.315849)
(10.8303 0.589911 -1.28963)
(11.7282 0.890751 -3.24756)
(10.0221 0.919878 -6.089)
(7.13542 0.745558 -0.836939)
(13.1968 0.164928 -0.414153)
(3.58377 0.337296 1.94142)
(9.91223 0.34902 1.69623)
(10.491 0.499081 3.1309)
(-0.957593 0.0273541 1.8724)
(5.44549 0.570446 -0.923807)
(7.23983 -0.651906 0.992146)
(11.2526 0.00129621 3.47394)
(5.71365 -0.354637 0.12004)
(13.6193 0.553611 -2.22471)
(-0.334489 -0.165549 1.69314)
(5.00988 -0.457732 -1.38997)
(0.575092 -0.595985 2.31721)
(12.108 -0.00568674 0.0428354)
(1.112 0.543758 -5.52368)
(10.2125 0.271298 3.15285)
(6.55963 0.958461 3.48064)
(6.90325 0.755061 -2.96988)
(2.13729 1.36154 -2.43097)
(7.08249 0.505966 -3.00133)
(6.13627 -0.716562 -1.22476)
(13.2803 0.651436 -1.08207)
(11.1825 0.374385 -1.53341)
(12.3804 0.333169 -3.91057)
(12.5442 0.265615 -2.44436)
(9.98231 0.657434 3.64005)
(3.81889 -0.672106 2.44298)
(9.64162 -0.0257506 0.470535)
(12.2591 0.330852 -2.36823)
(9.12428 0.50813 -2.98286)
(11.9637 0.344269 -4.18685)
(12.1644 0.223142 -6.11655)
(-2.97247 -2.73702 0.869667)
(10.1449 0.406754 -2.39876)
(12.0938 0.384564 1.87425)
(5.8566 0.292705 4.62934)
(11.3144 0.0568278 1.05918)
(4.89269 0.423806 0.679816)
(10.7928 0.594156 -0.878619)
(11.5869 0.818961 -2.23534)
(2.20443 -2.06639 -0.724301)
(13.1993 0.202685 -0.963424)
(10.0906 1.60775 -7.7916)
(10.1615 0.523735 -1.1516)
(13.5777 0.187376 -3.11802)
(12.4491 0.602156 -3.79235)
(5.18538 0.989048 -0.242937)
(-0.839986 -1.74001 0.381136)
(-0.0381411 -1.0635 2.75168)
(12.6634 0.236673 -1.30017)
(-1.37327 -0.740535 0.889342)
(10.88 0.447454 -3.71577)
(10.2332 0.302262 -2.77581)
(-1.17084 -0.782233 1.86483)
(11.9974 0.675794 -1.02734)
(0.0128119 -1.07581 2.31609)
(9.5353 -0.112342 4.40319)
(6.4801 0.650942 -3.23021)
(11.8192 0.15324 -0.265279)
(13.1873 0.40267 -3.64865)
(-1.32583 -0.0415032 1.93291)
(4.89831 0.28198 -8.16563)
(-0.371216 -0.0367985 1.9142)
(-0.716307 0.38251 0.45101)
(12.6593 0.989006 -4.37997)
(4.95744 1.40669 -8.10212)
(11.8702 0.360221 -1.34557)
(7.24855 0.471479 -2.81261)
(1.80448 0.435258 0.0103489)
(5.91666 1.84989 -0.969169)
(12.0678 -0.168861 2.92148)
(-0.318179 -2.23673 0.907668)
(-2.40877 0.107025 0.100834)
(1.43329 0.089752 1.3166)
(8.06789 -0.275585 -1.74841)
(7.4546 0.303962 0.542606)
(10.291 -0.128187 0.938379)
(12.5898 0.583742 -3.641)
(-0.581021 -0.910364 1.18331)
(10.8745 0.0675527 -1.63589)
(4.61593 1.24985 2.08255)
(11.0753 0.760059 4.30649)
(11.4965 0.277896 2.55926)
(-1.94664 -0.824343 1.19182)
(-0.550748 -1.40134 1.23107)
(6.13035 0.710219 2.8833)
(6.66843 -0.00345623 0.664016)
(12.6762 -0.020442 0.398322)
(5.46649 -0.321169 -0.130035)
(12.352 0.43027 -0.0124031)
(11.7482 0.210528 -0.231703)
(-2.42813 -0.245891 0.553696)
(8.30114 0.457188 0.721626)
(12.9665 0.278813 -1.3082)
(5.88815 0.669805 -2.72489)
(7.27529 0.42914 0.620415)
(0.648614 -0.653517 2.26385)
(7.51444 0.614053 -6.03669)
(-0.999522 -1.34194 1.15958)
(4.04945 0.920757 1.8641)
(7.40067 0.724124 1.19958)
(-0.261924 -0.458941 3.0955)
(7.36571 0.138192 3.13446)
(12.6725 0.2576 0.638818)
(10.18 -0.0216466 -1.39374)
(11.6231 0.431089 -0.224191)
(-4.42112 -0.175239 0.093422)
(13.6783 0.559117 -2.80998)
(-2.08521 -0.604048 0.848381)
(12.8168 -0.229717 0.424191)
(12.7913 0.309013 -1.48418)
(1.29947 0.33998 1.97067)
(0.268842 0.819977 2.45568)
(10.0345 0.444194 4.92484)
(1.86851 -0.7606 2.35047)
(-0.307443 0.026064 2.2573)
(9.86105 -0.107803 1.39086)
(1.59841 0.0190738 -0.572436)
(2.73789 -0.295913 1.90364)
(9.47996 0.153145 3.63231)
(12.3176 0.349369 2.4166)
(9.01998 0.254239 2.37212)
(10.5303 -0.231725 4.18622)
(9.3031 0.554475 4.15127)
(11.0908 0.117051 2.38374)
(0.357668 0.212319 -0.338253)
(5.90439 -0.745347 0.90921)
(-2.06083 -0.198283 0.769414)
(11.9734 1.351 3.46551)
(10.6068 -0.0613947 -0.617877)
(11.032 -0.22876 1.11178)
(6.14407 -0.302306 2.44504)
(10.4683 0.23969 1.91564)
(12.2222 0.315667 -2.71102)
(3.0819 -0.760806 2.833)
(-3.80267 0.386405 0.381243)
(-2.24257 -0.31246 0.74146)
(0.0505455 -0.17087 2.92249)
(-0.444183 -0.672292 2.61732)
(7.1534 0.0963487 2.62838)
(-1.8292 0.0514598 0.767095)
(2.63266 0.471185 0.470667)
(2.2057 -0.378509 -0.634349)
(9.27191 0.348184 0.684089)
(12.8187 -0.074573 0.830258)
(6.03275 -0.198196 -0.0648155)
(5.72683 0.0450394 0.217382)
(10.6077 0.06239 1.36539)
(8.24479 0.149378 0.684271)
(7.31862 0.0313293 0.614643)
(-1.51146 0.715953 0.119006)
(12.0251 0.187084 -0.357245)
(13.1333 0.0971101 0.0256869)
(9.91755 0.468147 3.52883)
(6.40858 0.150784 1.67006)
(7.07568 0.0660538 0.891774)
(12.5355 -0.0296502 -5.57621)
(-1.32152 0.762676 0.428901)
(-2.13232 -0.470226 0.205096)
(8.36464 1.646 -0.0438562)
(-1.76442 -1.85937 1.30084)
(13.1706 0.73656 -1.49309)
(11.8673 0.153411 -0.0597889)
(5.57033 0.30099 -1.22179)
(13.2105 0.272499 -1.17947)
(9.91849 -0.104005 1.65412)
(1.84549 0.181647 0.388413)
(11.7997 0.183957 0.201411)
(12.746 0.385369 -0.441486)
(11.4079 0.0586826 0.631524)
(10.4943 -0.117947 1.08894)
(4.14534 -0.432199 1.99219)
(12.0631 0.371046 -0.194582)
(12.4835 0.37715 -0.190741)
(4.80774 -1.80922 -0.482513)
(11.6356 0.187771 0.456302)
(9.79802 0.27798 1.74882)
(11.4636 0.133677 0.440021)
(8.53875 -0.0962566 1.92896)
(7.14458 0.823439 -2.7815)
(11.0272 0.66832 1.74812)
(12.856 -0.135096 0.99423)
(-0.179703 0.356397 2.23474)
(0.596121 0.727625 -3.98388)
(8.04065 0.580495 -2.72445)
(1.37512 0.637914 -4.50917)
(4.92051 0.398212 -9.04222)
(12.6069 0.32432 -0.384201)
(11.6639 -0.12141 1.47882)
(12.3419 0.235856 0.367387)
(11.6963 0.353395 -1.11385)
(13.2009 0.431201 -0.524409)
(5.09434 -0.238269 1.13597)
(10.4874 -0.228282 3.13335)
(6.52757 1.61352 4.35683)
(12.8876 0.190802 0.527745)
(10.9429 2.08262 4.06558)
(11.7355 0.895826 1.4328)
(7.96258 1.50728 4.35377)
(5.50436 -0.812628 1.60126)
(-3.66838 0.557182 0.544129)
(13.2666 0.405719 -0.676198)
(-3.61573 0.194664 -0.130101)
(12.9305 0.265284 0.372955)
(13.4924 0.352416 -2.6142)
(12.2156 0.318804 0.045343)
(12.7614 0.257392 -8.68514)
(9.30813 1.18944 9.0466)
(8.12287 1.21441 -1.22314)
(0.562807 -0.0801053 0.143745)
(12.169 0.16181 -0.310497)
(1.13121 0.755533 1.33247)
(-1.19175 -0.92462 1.40765)
(11.7072 0.316376 0.825076)
(-3.33972 -1.44158 1.21868)
(-2.40121 0.383852 1.60281)
(11.6818 -0.0273846 -0.327979)
(-1.61503 -0.13374 0.494799)
(12.4151 0.32472 -0.03861)
(11.9539 0.394361 -0.850589)
(-0.207105 -1.91013 0.648283)
(10.7488 0.752044 2.07827)
(11.2152 -2.4302 -4.1595)
(-2.05527 -0.24587 3.02377)
(12.1797 0.873219 -0.288108)
(7.26869 0.893444 2.6297)
(0.661037 0.824736 0.391773)
(-0.28556 -0.999936 0.312159)
(9.84609 -1.09996 -1.9066)
(10.6599 0.095678 4.51347)
(-0.569897 -1.54325 2.31103)
(-0.538146 1.56144 3.68005)
(-0.61259 -1.91983 1.71016)
(12.0559 0.431856 2.17302)
(-2.09418 -0.165923 0.982452)
(12.1992 0.71699 0.0430573)
(8.89795 1.03124 7.90057)
(-0.932344 -1.0982 1.4592)
(6.09698 1.0368 -0.161056)
(-1.58125 -0.171952 0.619295)
(-1.45796 -0.0112685 -0.197025)
(2.23825 -0.407355 -0.571035)
(0.407897 0.94673 -0.373555)
(1.55346 1.28956 3.1044)
(8.01776 0.682455 0.46367)
(0.159173 2.13129 0.308838)
(-0.993368 -0.525022 0.317376)
(12.1715 0.0165526 -0.0751946)
(7.88762 0.313553 -2.24424)
(12.3099 0.0289129 -0.749873)
(12.5067 0.106206 -0.0521584)
(11.4187 0.281519 -1.39004)
(10.4752 0.0370923 -1.55402)
(4.07206 -0.329153 -1.14949)
(12.8033 -0.223099 0.135072)
(11.9757 0.0845314 1.30738)
(6.70973 0.108472 -1.97806)
(4.13633 -0.147509 -1.48926)
(10.5495 0.0339692 -1.58333)
(12.5751 0.162679 0.0875568)
(12.4524 0.297806 -2.5664)
(11.7485 0.357675 -2.84218)
(11.0598 -0.127522 -0.284275)
(9.22789 0.752455 1.92556)
(12.4187 0.696137 0.833284)
(10.8309 0.459027 0.368666)
(12.3888 -0.021885 0.0809133)
(11.3541 0.365857 -3.08541)
(12.0212 0.421267 -0.0503304)
(9.6338 0.0345727 0.928013)
(11.4051 0.342819 -2.58677)
(4.35817 -1.00777 -1.24448)
(11.3589 -0.0622846 -0.357312)
(3.60337 0.256095 1.4656)
(10.9771 -0.427593 4.94863)
(6.31996 -0.461628 1.24995)
(-3.80811 -2.15752 0.750396)
(11.0912 0.730579 -1.05274)
(11.5058 -0.117538 3.23715)
(11.5907 -0.246927 3.73035)
(11.4344 -0.368023 3.15437)
(9.83662 -0.397169 -2.25208)
(6.06338 0.943194 -1.57238)
(11.5167 0.452234 -5.97903)
(6.51798 -0.214261 0.235544)
(11.741 0.0204221 1.15779)
(10.3506 0.280969 -6.18687)
(11.1391 0.355256 -4.85731)
(11.1257 0.46478 -0.374311)
(11.4593 0.410502 -3.63614)
(7.9412 -0.195144 -2.03011)
(11.7802 -0.0100217 0.994773)
(11.5718 0.557491 -1.34792)
(11.4398 0.412268 -0.174536)
(9.9861 -0.123874 1.46864)
(9.46495 0.0847541 -2.67931)
(9.40771 0.157103 1.72898)
(5.18929 -1.45 3.19158)
(12.1851 0.342305 -1.39819)
(12.413 0.166006 0.955906)
(12.3178 0.163008 -0.0643278)
(7.1083 0.556504 -0.773812)
(7.80913 -0.948451 2.27853)
(3.51612 0.718506 -3.08308)
(0.535127 1.47285 -2.62365)
(-0.902829 -1.29528 1.31506)
(1.74579 0.0424383 -3.40041)
(12.3428 0.72065 -1.05515)
(11.9567 0.394242 -2.98854)
(1.48001 1.31179 0.791417)
(5.18931 -0.414129 1.33083)
(-1.36107 -0.794486 1.06627)
(-0.699243 -0.539442 0.761509)
(0.502754 1.54906 0.877349)
(3.58317 0.346137 0.108654)
(12.3262 1.4138 -6.58176)
(12.247 0.209844 1.03231)
(12.5858 0.47054 -0.533404)
(-3.31034 -3.42447 0.340836)
(12.3734 0.413975 -0.574771)
(11.9531 0.276353 -5.00672)
(5.20985 1.09697 -0.0669945)
(2.62407 0.493752 -1.97024)
(12.935 0.0388989 1.83921)
(12.6109 0.446949 -0.531066)
(13.8326 0.194873 -3.70687)
(4.83435 0.551461 -1.23579)
(12.5998 0.34395 -0.199676)
(1.72501 0.45571 -0.0260717)
(12.143 0.123158 0.786251)
(8.60571 0.537578 -3.26578)
(8.99146 1.18141 8.56477)
(9.44672 0.501281 -5.86446)
(-0.72397 -0.326851 1.13099)
(7.9637 0.340117 2.02024)
(9.19987 -0.0340846 2.95254)
(1.08823 -0.924318 3.56265)
(2.74812 0.526323 2.35441)
(7.21609 -0.629898 -0.45504)
(4.65825 0.700823 -0.431566)
(9.50918 0.137448 3.55032)
(-2.09927 0.139835 0.23796)
(1.43464 0.155627 1.95942)
(12.6608 0.00532901 1.0092)
(6.95063 0.378213 0.665208)
(-0.458086 -1.03197 2.60327)
(-1.55347 0.321977 -0.972025)
(8.35228 0.491813 0.289981)
(9.52549 -0.216117 -9.2273)
(13.4739 0.363253 -2.62462)
(11.992 0.120764 0.244819)
(10.2415 -0.96597 -3.96634)
(0.272128 -0.253371 2.63098)
(-0.733663 0.929057 1.59484)
(1.1696 1.3681 -0.0353541)
(5.74882 0.667407 -1.24745)
(-0.706364 -0.574461 1.64583)
(10.6683 0.535447 1.51887)
(-1.32662 -0.805593 1.35958)
(10.077 0.0616136 1.27513)
(0.894323 -0.495871 2.73751)
(10.3924 0.608229 4.17909)
(-3.11951 -0.699522 1.05658)
(4.42021 0.93088 -2.70042)
(12.0842 0.278532 1.26838)
(0.638413 0.562947 -2.94028)
(3.27404 0.058818 0.664877)
(-1.79036 -0.217053 0.784667)
(-1.36854 -0.490237 1.24324)
(-1.49842 -0.154838 1.2725)
(3.06518 0.375327 0.169512)
(0.0150527 0.660869 0.603011)
(6.21521 0.544101 0.724925)
(4.91567 0.92089 -2.60283)
(-1.01012 0.683116 0.41889)
(5.69857 0.55069 -6.15779)
(-0.663572 -1.18457 0.366379)
(-1.43857 -1.71917 0.184711)
(-0.736415 -1.26249 1.17025)
(-3.05645 -2.80133 0.898475)
(9.04291 0.659707 1.44031)
(11.2327 0.049512 0.245198)
(-1.17667 -0.412453 0.808851)
(-1.46504 -0.563556 0.994948)
(-1.14561 -0.605589 0.46904)
(8.03848 0.890694 3.04604)
(11.8462 -0.113523 2.0244)
(7.33642 1.02372 2.83213)
(11.6451 -0.234525 2.9766)
(12.65 0.184641 -3.44002)
(12.8097 0.0644823 0.0109857)
(12.7102 0.0111679 0.0981238)
(11.9586 -0.0727428 1.14722)
(5.71671 0.492722 2.67761)
(-2.42556 -0.0661033 0.247873)
(10.06 -0.291419 1.88684)
(8.24844 0.418738 1.50377)
(11.3012 0.0471083 0.270748)
(11.2059 -0.227939 4.11472)
(10.6539 -0.0443242 0.253987)
(10.8541 -0.0317705 0.258463)
(-0.134011 -0.162753 0.0665731)
(10.4432 0.545883 -1.06422)
(7.67398 -0.317809 0.89837)
(11.8025 0.257397 -0.763768)
(11.7048 0.260377 -0.83652)
(7.21344 0.427019 -1.1375)
(2.60789 -0.28851 -0.656186)
(3.58975 -1.41021 0.530172)
(4.58518 0.250141 2.92702)
(11.9076 -0.574761 2.22105)
(4.0294 -0.481854 1.28002)
(12.2815 -0.0163134 0.757844)
(9.92489 -0.153646 4.75161)
(10.4408 0.474601 8.04763)
(10.8741 -0.296821 4.03317)
(10.7328 -0.0948493 7.37099)
(9.81047 0.178494 4.5348)
(-2.14258 -0.0938286 0.714064)
(-2.17309 -0.00698759 0.533069)
(-1.7565 -0.254351 0.386498)
(7.71911 0.814606 0.814782)
(-1.01253 -0.514557 1.62042)
(11.2848 0.413894 1.01422)
(-1.3541 -0.358247 1.06435)
(-2.02231 -0.300941 0.592602)
(-3.50391 -1.85633 0.671374)
(2.28403 -1.64393 1.78585)
(-2.32696 0.0186393 0.286548)
(1.52382 -0.576302 2.10375)
(6.56566 0.161842 0.312184)
(7.80066 0.146544 0.417848)
(11.3624 -0.00167073 0.869979)
(6.58414 -0.360525 -0.254901)
(8.98598 0.120444 2.97881)
(11.7751 0.175787 1.20734)
(-2.85139 0.369896 -0.593967)
(6.05086 -0.0856845 -1.58655)
(12.8535 0.467511 -2.00727)
(13.2646 0.303338 -1.56265)
(0.835825 -0.166559 0.527966)
(13.2406 0.307399 -2.07413)
(13.143 -0.488283 -7.10994)
(6.04391 0.250925 -1.39758)
(11.7367 -0.217679 1.39204)
(8.90074 1.18993 -1.72894)
(4.57901 -0.109712 -0.900896)
(-1.79768 -0.890571 1.2616)
(-2.30561 -0.696822 1.07977)
(0.465446 -1.33667 2.16981)
(-1.25213 -1.05422 1.63692)
(-1.71585 -0.587498 0.84822)
(0.549497 -1.12431 2.06982)
(5.91202 0.112211 -1.70585)
(12.4091 0.435967 -2.03655)
(12.741 0.429139 -1.58781)
(12.9991 0.397537 -2.18709)
(11.2618 0.512299 -2.07536)
(3.50022 1.01149 0.816602)
(2.94988 0.340618 1.02247)
(2.31399 0.492837 1.53816)
(2.00687 0.82903 -2.61382)
(8.51467 0.448221 -4.32549)
(8.64946 0.760629 -3.63291)
(6.62814 0.675117 -3.89067)
(5.80516 0.602077 -3.92149)
(7.02196 0.71088 -4.5341)
(12.2657 0.163018 0.0454119)
(12.1083 0.181285 -0.256723)
(12.0666 0.15228 -0.00551844)
(10.9552 0.402767 -1.29423)
(7.15527 0.333386 -4.14784)
(11.9301 0.16561 -0.0561218)
(12.1961 0.182574 0.0559463)
(11.826 0.313085 -0.0791293)
(13.1572 0.328515 -1.03449)
(12.0822 0.317877 -0.19459)
(11.478 0.390357 -0.269775)
(11.8247 0.308619 -0.0878368)
(11.6304 0.377484 -0.138175)
(4.29992 -0.31899 2.6605)
(3.75406 -0.434881 1.50044)
(3.651 -0.697993 2.55509)
(12.3627 0.324479 -0.25281)
(3.0439 -0.500969 2.45223)
(12.2403 -0.0711776 -0.0218901)
(9.46072 0.167453 5.77435)
(12.5977 0.252608 0.688972)
(8.38582 -0.553111 0.953679)
(10.7312 0.697265 -2.83263)
(12.0516 0.145551 -0.410911)
(4.52703 0.608627 2.33652)
(10.0015 0.653974 -3.22025)
(-3.57654 -2.56374 1.99246)
(10.8463 -0.225082 -1.03058)
(-0.0395596 -1.81163 2.73641)
(7.89662 0.845429 4.91508)
(-2.29781 -2.07769 1.24574)
(12.2077 0.142607 0.00822246)
(7.68801 0.654552 -3.15356)
(7.86079 0.742464 -3.30363)
(0.140777 -1.74808 2.77123)
(13.1745 0.264463 -1.84235)
(-1.57197 -2.46258 0.617699)
(5.61996 0.59912 -5.80923)
(1.97428 1.06268 2.7455)
(2.60521 -0.283178 2.52184)
(9.23896 -0.0756443 1.92208)
(-1.6986 -0.677758 2.09048)
(-1.4462 0.984754 0.573655)
(2.86101 -0.274825 -0.767755)
(9.51587 1.09201 -1.33587)
(12.264 0.21677 -0.37629)
(12.176 0.241386 -0.676913)
(7.92102 -0.536226 0.199353)
(12.7891 0.447573 -0.0671495)
(11.4223 -0.153447 3.63812)
(11.2874 -0.196968 3.82667)
(10.9265 -0.543374 3.83653)
(8.38449 -0.620386 3.42046)
(10.2849 0.262318 1.61519)
(11.6354 -0.468874 2.79265)
(12.8515 0.156425 0.10243)
(6.00135 0.830662 -4.15407)
(6.40833 1.03613 -5.30015)
(11.3942 0.195254 1.62247)
(7.41494 0.786972 -2.50687)
(7.86134 0.83679 -4.78724)
(13.2271 0.363524 -2.87656)
(-1.84788 -0.488473 2.7904)
(3.25443 0.858492 -1.66231)
(7.15641 -0.204693 -2.3089)
(9.71279 0.440809 -1.25304)
(9.55428 0.441348 -1.26036)
(11.5852 0.267928 -4.27767)
(10.1462 0.448915 -1.91454)
(11.1223 0.25269 -0.687643)
(7.42223 0.638932 -1.89816)
(10.0554 0.623948 -4.72336)
(5.65393 0.943187 -1.76487)
(13.6834 0.422485 -3.24386)
(11.7727 0.310431 -2.37617)
(7.57193 0.903301 -5.24745)
(13.8448 0.710038 -4.9725)
(10.4968 0.713578 -5.54177)
(11.804 0.175944 -0.120101)
(12.0107 0.238784 -0.891392)
(12.3495 0.405776 -0.512799)
(12.3996 0.448461 -1.04106)
(12.5895 0.380672 -0.494099)
(12.6742 0.347404 -0.885057)
(12.2163 0.361853 -0.835133)
(10.5114 0.454994 -3.34907)
(8.17174 0.937057 -1.7963)
(7.31306 1.36197 2.02396)
(8.87148 0.13344 0.765926)
(-0.165794 -1.22218 3.00389)
(12.2764 0.519251 0.123438)
(7.98879 -0.140479 1.02759)
(9.00064 -0.12042 1.84235)
(12.6368 0.445644 -0.0844637)
(9.25054 -0.0139378 2.142)
(11.2443 -0.0344697 1.02223)
(1.7612 1.0131 -3.14268)
(11.731 0.840371 -1.91407)
(10.1651 0.34764 0.353348)
(12.363 0.316306 -0.000166994)
(6.78462 -0.311784 0.577767)
(10.5738 -0.0498841 0.236215)
(7.50256 -0.476188 -0.630866)
(13.6516 0.622514 -3.26605)
(12.1531 0.397108 -3.19724)
(13.6593 0.487299 -2.44082)
(12.5962 0.250143 -2.49263)
(11.9938 0.527091 -1.82025)
(13.3724 0.472821 -1.59288)
(11.772 0.655378 -3.43576)
(11.4252 0.622996 -3.32611)
(13.4006 0.617733 -2.91734)
(10.8055 0.48513 -5.04512)
(6.76751 0.666971 0.605542)
(11.9683 0.679833 -4.74174)
(-2.7209 -4.02621 1.28145)
(11.1513 0.306026 -3.40841)
(12.017 0.233619 -0.520856)
(9.57699 0.775106 -2.29251)
(13.4523 0.2934 -2.44183)
(10.9845 0.585925 -5.08626)
(10.1404 0.773197 -1.94563)
(9.34832 1.53382 3.65085)
(0.856719 -0.851495 0.158142)
(-1.78843 0.100429 2.96549)
(12.6437 0.0659247 0.334093)
(8.32353 0.627088 3.12694)
(7.93667 1.48196 4.94408)
(6.08169 0.736086 0.96179)
(11.7927 0.726163 -3.38933)
(11.7682 -0.194153 1.78225)
(12.7667 1.02622 -3.73373)
(10.8757 0.606065 -0.34956)
(11.4015 0.262505 -0.757703)
(11.3897 0.702865 -3.64323)
(10.9781 0.782464 -3.86205)
(11.0095 0.786037 -7.99451)
(11.8415 0.823641 -3.71021)
(11.8786 -0.08013 0.835151)
(8.76074 0.38844 -11.0758)
(3.30481 0.477721 -0.502141)
(12.1406 0.919722 -0.357678)
(5.21264 0.202784 0.141278)
(5.28489 0.350362 0.0997604)
(13.084 0.534102 -1.4954)
(12.0037 0.203105 0.500914)
(11.788 0.261217 0.425233)
(12.2861 0.985323 -1.21858)
(8.09608 0.609105 -1.17038)
(12.0899 0.318186 0.0854935)
(11.9729 0.346876 0.0656433)
(5.82474 0.701785 -0.211242)
(6.67865 0.669133 -1.0348)
(11.9027 0.657957 -3.6092)
(12.0618 0.608868 -0.748266)
(12.064 0.443807 -1.38656)
(4.13877 1.15681 -2.5672)
(2.95926 -0.294875 2.17082)
(-2.12277 -1.20763 2.37013)
(11.6549 0.25411 0.627702)
(13.5178 0.353037 -1.07325)
(11.8864 0.169136 0.535535)
(11.0422 0.853368 -2.59722)
(5.85834 0.865793 -4.26436)
(11.6231 0.630946 -1.58224)
(11.6118 0.403329 -0.278622)
(13.3428 0.582125 -2.57707)
(12.3104 0.294411 0.0263887)
(12.1198 -0.247332 2.28404)
(6.28708 0.184196 0.910008)
(8.6935 -1.91626 -1.19305)
(3.39375 -0.150883 3.70297)
(4.00652 0.773315 0.605383)
(-0.434892 -1.48229 1.17854)
(6.91568 0.391868 -1.02614)
(13.2326 0.635184 -1.72428)
(2.19976 0.822006 -7.3801)
(12.4008 0.372711 -0.101799)
(10.956 1.01583 -5.10073)
(1.40933 1.41981 -3.22125)
(4.68905 0.522676 -0.209605)
(4.61382 0.57184 -2.11968)
(12.3172 0.747624 -2.57104)
(13.2383 0.654271 -2.41331)
(11.4893 0.726134 -2.31509)
(11.4696 0.175717 1.07574)
(1.10828 0.832488 -2.69895)
(12.3983 0.73092 -3.48726)
(2.31681 0.880969 -3.82541)
(1.96576 -0.524291 0.330593)
(2.58539 2.71115 -1.66011)
(5.20348 1.23873 0.426965)
(1.4354 1.24616 -8.96243)
(12.5163 0.215412 0.158825)
(11.7805 0.341347 0.0799942)
(11.6308 0.89558 -2.64475)
(6.18778 -0.793151 1.29798)
(0.648061 -0.57386 0.804312)
(8.81162 0.23398 1.19863)
(5.60067 0.657115 -2.85223)
(11.6647 0.29149 0.0381092)
(10.9576 0.567544 -1.91884)
(12.1077 0.367402 0.719783)
(11.796 0.361448 -0.73338)
(11.4259 0.432174 -2.26763)
(0.0593313 1.57798 0.0451183)
(12.9722 0.374375 -1.58733)
(-2.13217 -2.2614 0.754277)
(2.5324 0.300238 -7.12222)
(7.26467 0.799719 0.363925)
(10.9959 0.358161 -2.29549)
(8.11502 0.319396 -4.35818)
(11.1499 0.432608 -2.98222)
(11.5521 0.343544 -5.02148)
(11.277 0.893028 -2.78311)
(2.83965 0.536331 -7.93101)
(13.0608 0.40903 -0.334392)
(13.6699 0.700036 -4.17312)
(2.97734 0.240105 0.392782)
(11.1371 0.605942 -3.41953)
(6.88043 0.596125 0.439949)
(7.69687 0.647024 0.160538)
(9.62567 0.491926 -1.80864)
(10.7306 0.683429 -2.47061)
(10.8092 1.12936 2.35615)
(4.18412 0.764023 2.16822)
(5.47153 -0.0467482 -0.217369)
(4.39108 -0.485059 2.3861)
(-1.01646 -0.925297 1.50581)
(-0.190012 -1.6152 2.30268)
(11.3771 0.246942 3.70163)
(-2.06871 -2.5607 0.632581)
(12.6089 0.886696 1.10341)
(-3.56238 -1.8419 1.07456)
(6.23558 0.575201 1.00061)
(4.66515 1.19272 -8.26359)
(11.0119 0.454684 -2.89126)
(11.1244 0.754843 -2.32042)
(5.62813 -1.05314 0.13212)
(10.868 -0.150507 0.702979)
(-3.6471 -2.40343 1.15648)
(8.01699 1.43939 -12.3607)
(0.331763 -0.337282 2.41317)
(11.7875 0.397372 -1.61901)
(11.1473 0.261094 -3.42493)
(11.602 0.363192 -3.75001)
(11.9492 0.380904 -2.46645)
(10.677 0.371834 -3.85775)
(4.15034 1.04787 -5.17148)
(13.2245 0.113669 -0.643259)
(11.3068 0.564814 -6.76769)
(8.36402 0.451946 -3.36815)
(5.88587 0.465004 -2.04729)
(13.3218 0.241192 -0.554059)
(-1.28572 -0.00163967 1.9159)
(9.81037 -0.203542 1.8336)
(3.2451 -1.12869 0.832992)
(0.543201 0.69249 -4.57818)
(5.4411 -0.862057 1.29)
(0.506016 1.15461 -1.62528)
(-0.624859 -0.774039 1.96865)
(10.9951 0.205984 0.911368)
(13.7723 0.619299 -3.68772)
(5.62498 0.758277 0.461136)
(6.68987 0.0714865 0.000919476)
(-1.53926 -0.235034 0.302836)
(0.0209226 -1.61673 2.58074)
(11.8648 0.378645 -1.22607)
(10.3912 -0.270486 1.31989)
(5.67967 -0.331134 2.78622)
(10.3852 0.603972 -2.21632)
(10.8995 0.389594 -0.587063)
(11.0383 0.550721 -0.929342)
(13.4704 0.268471 -2.33235)
(12.2323 0.168042 0.320706)
(9.9816 0.307382 -2.71639)
(3.96921 0.249491 0.276488)
(12.1207 0.156409 1.12914)
(-0.255418 -0.763319 0.656146)
(10.3018 3.35746 -3.332)
(2.14409 0.706001 -0.642086)
(4.26875 0.14666 -0.816354)
(-0.270971 -1.52171 0.757975)
(11.2922 0.0402316 0.361203)
(3.1748 -0.942969 1.91673)
(6.35769 0.205482 0.680826)
(9.09314 -0.468085 0.624681)
(12.0908 0.58292 2.77307)
(-0.440651 -0.0185709 2.22797)
(-2.59027 -0.560875 0.0368612)
(-3.06415 -0.37256 -0.409059)
(-1.96983 -1.07674 0.654383)
(12.0659 0.451275 -1.263)
(4.83321 -0.241783 2.67836)
(8.93308 -0.373709 2.16352)
(8.6023 -0.0502604 1.66996)
(-3.3823 0.357387 0.464128)
(10.8242 -0.112816 -0.43761)
(12.3492 -0.0676931 -0.305114)
(-0.13934 -1.22687 1.02071)
(12.6889 0.037032 0.226511)
(-1.7342 0.168982 2.33598)
(12.4608 0.388557 2.18946)
(4.75917 1.00967 0.978554)
(-0.862937 -0.078309 2.33992)
(5.80961 -0.35801 0.021677)
(9.56241 2.16027 4.38573)
(4.16872 -0.120963 1.21035)
(11.406 -0.257947 0.758054)
(9.53341 -0.374757 4.3444)
(11.039 0.24764 1.69147)
(9.31313 -0.298819 -1.3692)
(-0.989459 -1.10282 0.524542)
(10.5524 0.419462 -3.13523)
(-1.48333 -0.526343 0.689467)
(12.8236 0.227563 -0.92782)