/*--------------------------------*- C++ -*----------------------------------*\
| =========                 |                                                 |
| \\      /  F ield         | OpenFOAM: The Open Source CFD Toolbox           |
|  \\    /   O peration     | Version:  2506                                  |
|   \\  /    A nd           | Website:  www.openfoam.com                      |
|    \\/     M anipulation  |                                                 |
\*---------------------------------------------------------------------------*/
FoamFile
{
    version     2.0;
    format      ascii;
    arch        "LSB;label=32;scalar=64";
    class       volVectorField;
    location    "0.0817324";
    object      U;
}
// * * * * * * * * * * * * * * * * * * * * * * * * * * * * * * * * * * * * * //

dimensions      [0 1 -1 0 0 0 0];

internalField   nonuniform List<vector> 
3919
(
(9.98897 0.00588812 -0.00892205)
(10.0246 0.00558788 -0.00139061)
(10.0155 0.00570136 -0.00049917)
(9.99032 0.00895051 -0.00239939)
(9.99528 0.00476522 -0.00850817)
(10.0101 0.00190294 -0.00519609)
(9.9575 0.015479 -0.0055902)
(9.94088 0.0142763 0.0137876)
(10.0204 0.0447212 0.010853)
(10.0002 0.0173428 -0.00430884)
(10.0075 0.0121605 -0.00433411)
(10.0051 0.0225476 0.0181634)
(9.98402 0.0145312 0.0121214)
(10.0137 0.00378588 0.00739745)
(9.97468 0.000326102 0.00386573)
(9.95493 -0.0020698 -0.0141889)
(10.0682 -0.00329326 -0.0108029)
(10.0554 -0.0122017 0.00496607)
(9.99799 0.000288722 0.0215039)
(9.99595 0.0224466 0.00670781)
(10.0661 0.0216991 -0.00161623)
(9.96593 -0.0146932 0.00760382)
(10.0488 -0.00752447 0.0073093)
(10.0481 -0.00963649 -0.00368742)
(10.0154 0.0276513 -0.00595469)
(9.98313 0.0009725 -0.00327358)
(10.0266 0.0694269 0.0159986)
(10.023 0.0125067 0.00132267)
(9.93588 -0.00713653 0.0222995)
(9.97966 -0.00504978 0.00328271)
(10.0075 0.0179173 -0.0042378)
(10.0314 0.00595192 0.000936053)
(10.0536 0.00676064 0.00342145)
(10.0226 0.0089935 -0.00126416)
(10.0273 0.0060878 0.013652)
(10.0385 0.00141846 0.00158569)
(9.82602 0.00718558 -0.00975216)
(9.98551 0.00197072 -0.0019599)
(10.0239 0.00250098 0.0231778)
(10.0339 -0.0152014 0.0134845)
(9.98722 0.0127924 0.00302935)
(10.0012 -0.0125915 0.00992641)
(10.0337 -0.0017051 0.0101256)
(9.99561 -0.00309757 -0.0044566)
(9.78839 -0.00857228 -0.00725154)
(9.97449 0.0273664 0.00432737)
(9.78096 0.00123091 -0.0454133)
(9.87115 -0.0143111 -0.0129076)
(10.0045 0.00627052 0.0128132)
(10.0838 -0.0266173 -0.00231428)
(10.0203 -0.0201547 0.00821568)
(9.95992 -0.00198091 -0.0132178)
(9.99238 0.0850235 0.0312473)
(9.97286 0.00443669 0.00418586)
(9.92037 0.00855409 0.00431349)
(10.0165 -0.00013689 -0.00745258)
(9.74183 0.0178166 0.012556)
(9.74124 0.0259567 0.011083)
(10.0374 0.000803341 -0.00402985)
(10.0178 0.00229444 0.00333914)
(9.87964 -0.0112158 0.00833128)
(10.0032 -0.00674519 0.0126145)
(9.90647 -0.0086812 0.00925038)
(9.94825 0.00551044 -0.00917543)
(10.015 -0.00441576 -0.0198338)
(9.99226 0.00531102 -0.00675171)
(10.0863 0.0382994 0.00117306)
(9.95726 -0.0198338 0.00501369)
(10.0183 0.000988624 -0.00985076)
(10.0466 -0.00291501 -0.00175228)
(10.0973 -0.036521 0.00704591)
(9.97688 0.000864844 -0.0127169)
(9.94957 0.00153353 -0.0120795)
(9.8528 0.00734044 -0.00460098)
(9.81247 0.00593926 0.00323944)
(9.90165 0.00258763 0.000848332)
(10.0233 -0.00970092 0.00988857)
(10.0508 -0.000632241 0.00551446)
(10.0491 -0.0170537 -0.00900387)
(9.98131 -0.0171187 0.00258778)
(10.0051 0.015006 -0.00353661)
(10.0438 0.00449055 0.00665499)
(10.0281 0.0224481 -0.00367674)
(10.0221 -0.0364919 -0.0127681)
(10.0455 -0.0167641 -0.00705146)
(10.0478 0.00362283 0.00587991)
(9.98715 -0.00190959 0.0198555)
(9.9503 0.000301214 -0.00361837)
(9.94579 -0.0190978 0.00328765)
(9.94334 0.00410744 -0.00358078)
(9.92899 0.00237951 -0.00403984)
(9.7827 0.00313909 -0.00973807)
(9.81966 -0.000915604 -0.00850504)
(10.1246 -0.117702 0.00521633)
(9.972 -0.0125796 0.00558368)
(9.97613 0.0204086 0.00721344)
(9.9658 -0.0112749 -0.000409396)
(9.98129 -0.00759583 0.0116029)
(9.98302 -0.0033245 -0.00192995)
(10.0515 0.00942112 -0.0115686)
(10.0741 0.00158315 0.00174449)
(9.93024 0.00287412 -0.00885829)
(9.93945 0.00158786 -0.0168443)
(10.0305 0.0220105 -0.00293449)
(9.81518 0.00984164 -0.00157493)
(10.0412 0.00325289 0.00465909)
(9.97666 -0.00123054 -0.0200715)
(9.98206 -0.0102229 0.0193956)
(9.99615 0.00485533 0.00696215)
(9.96107 0.0222693 0.0107913)
(9.8561 0.00782597 0.00490892)
(9.95486 -0.00398102 -0.00054476)
(9.94264 -0.0184702 0.00264983)
(10.0428 0.0102053 0.00781924)
(10.0023 -0.069629 0.0177352)
(10.0159 0.0393756 -0.00196524)
(10.0037 -0.0151417 -0.00621896)
(10.0069 -0.0895079 0.00651751)
(9.98181 -0.015054 0.0157474)
(9.95 0.00251321 -0.0220683)
(10.009 -0.0249287 -0.0187835)
(9.97048 0.0214459 -0.00291393)
(10.0172 0.032401 -0.00357487)
(9.98697 -0.00608241 0.0189178)
(10.1041 -0.0503482 0.0143096)
(10.0174 -0.00480164 0.00758494)
(9.97887 0.022795 0.00879542)
(9.9966 0.00844769 -0.0186039)
(9.96224 0.00557132 -0.0234322)
(10.0009 0.0061527 -0.0229372)
(10.021 -0.0363697 0.00991407)
(10.0164 0.005057 0.00192031)
(10.0016 0.00352664 -3.53139e-05)
(9.99317 -0.0044848 -0.00883519)
(10.0827 0.042648 -0.0100661)
(10.0516 -0.00510475 -0.000247378)
(9.94803 0.0148568 0.0086691)
(9.96796 -0.00943001 0.0109211)
(9.99771 -0.0126576 0.0035493)
(9.96414 -0.00393206 -0.000846372)
(10.0053 0.0116129 0.0176688)
(10.0601 0.0100615 -0.00157425)
(9.98228 0.00328823 -0.0199219)
(10.0457 -0.00226792 0.00792464)
(10.0126 0.0261521 -0.0116084)
(9.98922 0.000277702 -0.00555103)
(9.92422 0.00974442 0.0037822)
(10.0201 0.0085888 0.0248831)
(10.0658 0.0292257 0.0026884)
(10.0008 -0.0166063 0.00553396)
(9.97113 -0.0120251 0.0113607)
(10.0526 -0.0115305 -0.0024134)
(10.0395 0.0122088 -0.00457987)
(10.013 -0.0027775 -0.0104498)
(10.0403 0.00546065 0.0302849)
(10.0464 -0.0245817 -0.00130157)
(10.0345 0.00668595 -0.00140899)
(10.0019 -0.00898179 -0.00460448)
(10.0427 0.00370646 -0.0149508)
(10.0135 0.000850723 -0.00611874)
(10.0195 -0.00555273 -0.00457524)
(9.96365 -0.0173328 0.00118612)
(9.93857 0.00689594 0.0040518)
(10.0352 0.0184251 0.00323753)
(9.93103 -0.0027459 -0.0040122)
(9.86211 -0.00834226 0.00100327)
(9.86041 -0.0133758 0.00945528)
(9.99783 -0.00186956 0.00692575)
(10.0144 0.00187871 0.00664682)
(10.0527 0.017785 0.0028714)
(9.96366 0.0101951 -0.00243275)
(10.0254 0.0116984 -0.0132087)
(10.0355 0.00269653 0.0146016)
(10.0554 -0.0344701 -0.013693)
(9.80791 0.00285591 -0.0128679)
(10.0596 -0.0135175 0.0266992)
(9.97283 0.00516443 -0.0101297)
(10.0482 0.0212631 0.00267827)
(9.85047 -0.0653129 0.0111068)
(9.99283 -0.00364278 0.00269716)
(9.97878 -0.00170111 -0.000558662)
(9.95744 -0.017561 0.00243489)
(10.0324 -0.00887734 -0.00531011)
(9.99582 -0.0168015 -0.00234791)
(9.97129 -0.00624553 0.00461566)
(9.95335 -0.0182909 0.00255055)
(9.92745 0.0084239 0.00185469)
(10.0316 -0.00695492 -0.0032795)
(9.95651 -0.0368763 0.00220132)
(9.98527 -0.023532 -0.0085543)
(10.0444 -0.0164914 0.0162038)
(9.99635 -0.0226598 -0.0103239)
(9.95423 -0.0222939 -0.00929397)
(10.0144 -0.0237326 -0.0103971)
(9.99849 -0.0180812 -0.0023024)
(10.0258 0.0747849 0.0213212)
(9.98653 -0.0209327 -0.00239893)
(10.0399 -0.0895762 -0.00207529)
(9.88026 -0.0596 0.00963726)
(9.97338 -0.0213719 -0.00383153)
(10.0382 0.0148854 -0.00538646)
(10.0073 -0.0190311 -0.0041695)
(10.0077 0.0643112 0.0119311)
(10.0139 -0.0145476 -0.0081269)
(9.95197 -0.00251042 0.00300768)
(10.0154 0.027201 -0.0127509)
(10.0591 -0.0859471 0.00163766)
(9.9214 0.00457655 0.000179471)
(10.011 0.0135529 -0.0247501)
(9.96388 0.0162081 0.000261184)
(9.80771 0.00278663 0.000975556)
(10.0188 -0.00134885 -0.00676424)
(10.0514 0.00473959 0.0060817)
(10.0585 0.0176783 -0.0153365)
(9.93322 0.0231852 -0.00292532)
(10.0467 -0.0106371 -0.00666815)
(10.0446 -0.010064 -0.0136602)
(10.0069 0.00569426 -0.0122745)
(9.9916 -0.0135154 -0.00499798)
(10.0468 0.00267725 0.00686788)
(10.0455 -0.00049005 0.00228558)
(10.0148 0.00106664 -0.010652)
(9.84583 0.00435505 -0.00353472)
(9.86495 0.00672082 0.00504491)
(10.0399 -0.00232163 0.00759779)
(10.0137 0.0262526 -0.0133942)
(9.84356 0.00225556 -0.0044959)
(9.99417 0.000644284 0.00114547)
(9.99016 0.000786161 -0.00231504)
(10.0013 -0.0761655 -0.0110299)
(9.9736 -0.00246497 -0.00227328)
(10.0122 0.00376586 0.00928454)
(9.93237 0.00208592 -0.000330563)
(9.96202 0.00271308 0.00561923)
(10.0005 0.00504978 0.00493284)
(10.0001 0.00668733 0.00494074)
(10.0298 -0.0142295 -0.0103044)
(10.023 0.00902571 -0.000437483)
(9.97321 0.00248747 -0.00102367)
(9.95525 -0.0162655 1.50427e-05)
(9.75651 -0.00681466 -0.00125047)
(9.88689 -0.0248296 -0.00542491)
(9.94267 -0.000658061 0.000470643)
(9.81089 -0.0088585 -0.00197096)
(9.78321 -0.0110096 -0.00285804)
(9.9743 0.00180967 0.00311202)
(9.98021 -0.00744961 0.00717078)
(9.88789 -0.00381253 0.00572873)
(9.85318 -0.00218362 0.00683691)
(9.91447 0.0306496 0.00137496)
(9.90864 0.0280455 0.00369653)
(9.80485 0.0303108 0.00833172)
(9.84114 0.0316776 0.00738965)
(9.91098 0.0265032 0.00808826)
(9.91626 -0.00127639 0.0144755)
(9.91137 0.000940751 0.0253418)
(9.97674 0.00270214 -0.0146739)
(10.0054 0.00470965 -0.0128442)
(9.99042 0.00448999 -0.0100553)
(9.80244 0.0278101 0.00462648)
(9.98047 0.00968872 0.00759031)
(9.95506 0.0187606 0.0062277)
(9.76305 0.0276746 0.0108065)
(9.77464 0.0272148 0.00979137)
(9.94406 0.0217188 -0.00427882)
(9.86592 0.0196215 -0.00358509)
(9.95159 0.0257101 -0.000918775)
(9.84475 0.0247425 -0.00466032)
(9.9513 0.0137618 -0.00423575)
(9.9669 0.0081203 -0.000546091)
(10.0157 0.00192424 -0.00956222)
(9.90384 -0.013052 0.0200261)
(9.91529 -0.00818958 0.0231731)
(9.71014 0.00067651 0.000749819)
(9.94263 -0.00259765 0.000610781)
(9.95959 -0.00589536 -0.0167603)
(10.0132 -0.0236227 0.01153)
(9.71942 0.00293527 0.000855475)
(9.94286 -0.00981918 -0.0125962)
(9.84536 0.00928302 0.00759244)
(9.98903 0.000924271 -0.00838405)
(10.0254 -0.0126595 -0.00406785)
(9.83761 0.00455018 0.00789722)
(10.0384 -0.0102444 -0.0105582)
(9.88157 -0.0187444 0.0151065)
(9.98831 0.0777673 0.002306)
(10.0354 -0.00775665 0.00161713)
(9.8938 0.0174569 0.00373236)
(9.91009 0.00979136 0.00066565)
(9.93374 0.00450628 -0.0221507)
(10.0511 -0.000698244 0.00470428)
(9.93423 0.00374527 -0.000739084)
(9.9171 -0.0186711 -0.00215815)
(10.076 0.0466599 0.0121837)
(9.93633 0.0227431 0.00144286)
(9.93947 -0.0219854 -0.000761763)
(10.055 -0.0101669 -0.0173753)
(10.0275 0.00933855 0.0183008)
(10.0286 -0.00337283 -0.00239518)
(9.95548 0.0100727 0.00275843)
(9.95089 0.0600417 0.00506842)
(10.0054 0.00246189 -0.00895238)
(9.97223 -0.00146438 0.0243745)
(10.0071 0.00879654 -0.00345623)
(10.0543 0.0279978 0.00174836)
(10.0001 0.0267762 0.00552789)
(9.74998 -0.00311253 -0.0146642)
(9.92396 -0.00846206 -0.000757433)
(10.0092 -0.0198621 -0.0124586)
(9.99345 -0.0122709 -0.00519138)
(9.93506 0.00607822 0.00216097)
(9.93303 -0.00932343 0.00278938)
(10.0004 -0.00434211 -0.00481584)
(9.9707 -0.0118902 -0.00938134)
(9.92004 -0.00882077 -0.0142577)
(10.0165 -0.0110361 -0.0125243)
(9.97094 0.0178013 0.000414998)
(9.73769 -0.00990598 -0.00135707)
(10.0995 -0.0436973 0.0106239)
(9.95009 -0.0159542 0.00187114)
(9.98366 -0.0176468 -0.00484198)
(10.0728 -0.0278277 -0.00996153)
(9.97366 -0.0126806 0.0038644)
(10.0069 -0.00669634 0.00398124)
(9.9895 -0.0109286 0.00522094)
(9.97074 -0.00996785 0.00395453)
(9.99805 -0.0236303 0.00140046)
(9.94662 0.0232229 0.00827546)
(9.88281 -0.0442024 0.00957202)
(10.0989 -0.0337981 0.0192849)
(10.0456 -0.00847558 -0.000593058)
(10.0254 0.0313905 -0.00441084)
(10.0369 0.00586106 0.0237457)
(9.95424 -0.000561637 0.0108795)
(10.0558 0.0217322 0.00585385)
(10.0394 -0.000997711 0.0129718)
(9.79738 0.0102002 -0.0132592)
(9.91968 0.00213655 0.000952477)
(10.0002 0.0141527 0.00395568)
(10.0089 0.0119225 0.000274092)
(9.9578 -0.00969455 0.00163851)
(9.99186 0.0134203 0.00597764)
(10.0059 0.0137854 0.00444073)
(9.96473 0.0128535 0.00234597)
(9.9963 -0.00131669 -0.0070193)
(10.0384 0.0022536 -0.0114072)
(9.94858 -0.06842 0.00878767)
(9.93514 0.00127165 0.000379896)
(10.0157 0.00264497 0.0119685)
(10.0005 0.00566024 0.00315143)
(9.90205 -0.00342562 -9.92899e-05)
(9.98321 -0.0087996 0.00240675)
(10.0416 -0.01222 -0.0106818)
(9.97311 0.0117933 0.00393973)
(9.98335 -0.00914897 -0.00516677)
(9.95379 -0.00834782 -0.000952037)
(9.97492 -0.0104273 0.000520978)
(9.98668 -0.0082432 -0.00838042)
(9.94285 0.0119723 0.0028393)
(10.0534 0.0404975 0.00401314)
(10.0169 -0.0292391 -0.00937997)
(9.99464 -0.0105741 0.00771334)
(9.98957 -0.0117516 0.000454313)
(10.0474 -0.000753089 -0.0124424)
(10.0398 -0.00267306 -0.00106642)
(10.0205 0.0168448 0.000786543)
(10.1352 -0.0701519 0.00926588)
(9.97209 -0.0102529 0.00303674)
(10.0579 -0.00595577 -0.0103199)
(10.0968 -0.0346835 -0.000436351)
(10.0232 -0.00266059 -0.0112949)
(9.93993 -0.00153372 -0.0103308)
(10.0187 0.00448335 -0.0148982)
(10.01 -0.148799 0.00791927)
(9.85612 0.00704536 0.00091149)
(9.95753 0.0152783 -0.00634652)
(10.0199 0.00237657 0.0197444)
(10.0286 -0.0140532 -0.0117775)
(10.0229 -0.0183993 0.0101)
(9.97411 -0.00676684 -0.00273172)
(9.88097 -0.0110568 0.0181672)
(9.92827 -0.0249087 0.00339148)
(9.84621 0.00396554 -0.000941715)
(9.97104 -0.0119555 -0.00454775)
(9.95719 -0.000422331 -0.00489591)
(10.0281 -0.00654097 -0.00584565)
(9.95913 0.00365211 -0.0077719)
(9.98416 0.00616232 -0.0115521)
(10.0255 -0.00536009 -0.0102503)
(10.0102 -0.00788372 -0.00650347)
(10.0171 -0.0100556 -0.00411334)
(9.99693 -0.00993725 -0.00206122)
(10.0217 -0.000121331 -0.00569058)
(9.80587 -0.00977288 -0.0108254)
(9.84723 -0.0110969 -0.010891)
(9.85592 -0.00615393 -0.0176783)
(9.83098 0.00450807 0.00883317)
(9.86681 0.0110275 -0.00207634)
(9.7991 0.009197 0.00593872)
(10.0334 0.0366438 0.00769287)
(9.9726 0.0183117 0.00987747)
(9.87784 -0.0144958 -0.00752283)
(9.95747 0.0218144 -0.00226111)
(10.1213 -0.0605637 0.00653385)
(9.98989 -0.0125895 0.00650337)
(9.99054 -0.0137754 0.00395172)
(10.0077 0.028859 -0.0080169)
(9.88365 0.0332476 0.00197823)
(9.88357 0.0344611 0.00396291)
(9.85503 0.0338545 0.00938323)
(9.94733 -0.0178802 -0.00515716)
(9.96956 -0.00108143 -0.00408407)
(10.0252 -0.00629243 0.0065607)
(10.0022 -0.0128512 -0.0128049)
(10.0002 -0.00497932 0.00389391)
(9.91442 0.00594336 0.0010093)
(9.95804 -0.0205755 0.0193591)
(9.95148 -0.00303151 0.0007344)
(9.88929 -0.000756844 0.00852697)
(10.0326 -0.00346796 -0.00319027)
(9.99223 -0.0137371 -0.0082867)
(9.92338 0.0412895 0.00478664)
(10.0238 0.0047446 0.00438281)
(9.92616 0.0327977 0.00504392)
(9.94834 0.056968 0.0101711)
(10.015 0.00959062 0.00329452)
(10.1393 -0.0829224 0.0159107)
(10.0084 0.00978991 0.00487386)
(9.90588 -0.00168024 -0.00249603)
(9.96042 0.0770013 0.00696934)
(9.99657 -0.00487426 0.0163869)
(9.98708 -0.00908956 -0.00365656)
(10.0013 -0.000905638 0.00540426)
(9.98927 0.00313555 -0.0016563)
(10.0037 -0.00495143 0.00125101)
(9.96508 -0.00771083 0.00398493)
(9.93087 -0.0211665 -0.0104074)
(9.85595 -0.0247392 -0.00899242)
(9.93511 -0.00290445 0.00502731)
(9.7909 -0.0137613 0.00360687)
(9.82343 -0.0120776 0.00200209)
(9.91235 -0.0126228 0.00185674)
(9.91321 -0.00576987 0.02151)
(9.92922 -0.00345105 0.0221352)
(9.89709 -0.00296243 0.0167188)
(9.92073 -0.0202958 0.00668008)
(9.88572 0.00317274 0.00425152)
(9.97029 -0.0265859 0.013945)
(10.0011 -0.0143888 -0.00284399)
(9.97154 -0.0135772 -0.00124867)
(10.0001 0.0180612 0.0102973)
(9.94462 0.0246877 0.00142696)
(9.98908 0.0213708 0.00612403)
(10.007 -0.0135861 -0.0166557)
(9.93923 -0.0379102 0.00659858)
(9.93045 0.0478606 0.00571063)
(10.0115 0.02806 -0.0027143)
(9.94708 -0.012571 -0.00284295)
(9.92583 0.00239545 0.00304874)
(9.9341 0.000168864 0.00369798)
(9.89024 -0.00251708 -0.00276783)
(9.69137 0.0129531 0.0106522)
(9.68502 0.00649831 0.0110681)
(9.94829 0.0176092 -0.00258113)
(9.71368 0.0110196 0.000799413)
(9.95615 0.0116612 0.00429052)
(10.0228 0.0198438 -0.00349556)
(10.0347 0.0165867 0.00769183)
(10.0209 0.013108 0.00859386)
(10.0246 -0.0168695 0.0142246)
(10.0279 0.00662328 0.00779639)
(10.0632 0.0164741 -0.00205614)
(9.94689 0.00375724 -0.00970923)
(9.86046 0.00354143 0.00228031)
(9.95244 -0.0150025 0.00345469)
(9.95705 0.0143823 0.00129558)
(9.94327 0.00678951 -0.00322389)
(9.87579 0.00490411 0.000894005)
(9.86546 0.00354374 0.000162624)
(10.0702 0.035044 0.000955549)
(9.8843 -0.00843195 -0.0010593)
(10.0216 -0.0953676 0.0132422)
(9.88486 -0.0112285 -0.00181425)
(10.0346 0.020373 -0.00394475)
(9.88833 -0.0153651 -0.00572092)
(9.86727 -0.000351626 -0.0139316)
(9.96193 -0.0135371 0.0119224)
(9.93537 -0.0119296 -0.00262793)
(9.89755 0.0321557 -0.00677511)
(10.0358 0.000770404 -0.00325978)
(10.0485 -0.0154307 0.0105402)
(10.0562 -0.00402745 8.02532e-05)
(10.0137 0.00579014 0.000379912)
(10.0005 0.00626 -0.00191424)
(9.99248 0.00823735 0.00231521)
(9.99946 0.00109812 0.00643004)
(10.0056 0.00817725 0.00692673)
(9.95999 0.0107267 3.72869e-05)
(9.99241 -0.0224137 0.00181718)
(9.97452 -0.029113 0.000327898)
(9.98221 -0.0303632 0.00431986)
(9.99379 -0.0259961 -0.00892365)
(10.0071 -0.0268665 -0.00884778)
(9.93524 -0.0247616 -0.00482686)
(10.0091 0.012925 -0.00603198)
(10.0205 0.0108984 0.00675132)
(10.0035 0.013726 0.00494772)
(9.99501 0.0151094 0.00237796)
(9.98043 0.0153036 5.15443e-05)
(10.0212 0.0106015 0.00394364)
(9.98208 -0.0141211 6.94065e-05)
(9.96095 -0.0111488 -0.000539751)
(9.97412 -0.0104827 0.00240701)
(9.96585 -0.0154727 0.00358663)
(9.9894 -0.00829407 0.00404468)
(9.9936 0.00125424 0.011218)
(9.95535 -0.0199919 0.0030919)
(9.98877 -0.00629323 0.00887487)
(9.95642 -0.00117019 -0.00372463)
(9.94488 -0.00139762 -0.0182207)
(10.0008 0.00857311 -0.0179313)
(9.97339 -0.00121379 0.000347331)
(9.9475 -0.00269565 -0.00213821)
(10.0252 -0.0145314 -0.00620773)
(9.99091 0.00685329 -0.0163987)
(10.0396 0.00583974 0.000856101)
(10.0041 0.0168969 -0.00240415)
(9.83489 0.00922153 -0.000881111)
(9.81526 0.00199625 0.0107347)
(9.92208 0.0125969 -0.00739475)
(9.82878 0.00267555 -0.00110703)
(9.7966 0.0303568 0.0023341)
(9.80516 0.0291204 0.00027974)
(10.0347 0.000187257 0.0106918)
(10.0889 0.0456549 0.00381128)
(10.0762 0.0401439 -0.00112694)
(9.95677 0.00398161 -0.0119571)
(9.94447 -0.00331641 0.000629978)
(9.78034 -0.0083002 -0.0110274)
(9.81528 -9.70529e-05 -0.00858473)
(9.75584 -0.00097701 -0.0134644)
(9.92251 0.000261699 0.00127031)
(9.95015 -0.00754482 -0.0046177)
(9.99574 -0.0159769 -0.0135524)
(10.0293 -0.00645838 -0.0261697)
(9.97269 -0.0210577 -0.00393226)
(9.99061 0.000416286 2.77078e-05)
(9.98947 -0.00317181 -0.00346096)
(9.98524 -0.014541 -0.00563516)
(10.0144 -0.00395996 -0.00208733)
(9.95182 -0.0151831 0.00127762)
(10.0115 0.000157909 -0.00663311)
(9.96915 -0.00441988 0.000899196)
(9.97608 -0.0193827 -0.00445201)
(9.81308 0.00537913 -0.0137961)
(9.7472 -0.00556825 0.0202411)
(9.84304 0.00387727 0.0030276)
(9.87237 -0.00489947 -0.00114213)
(9.84688 -0.00235796 -0.00120567)
(9.83812 0.00628221 0.000765751)
(9.85103 0.00922482 0.00364455)
(9.98597 0.0197867 -0.00778296)
(9.93844 -0.0179971 0.0179496)
(10.0171 -0.00480569 0.00665578)
(9.84634 0.0051567 -0.00677968)
(9.9878 -0.0085006 -0.00322272)
(10.0267 -0.00543365 0.00119194)
(9.94084 -0.0117994 -0.00567991)
(9.92192 -0.0209552 0.000416921)
(9.9363 -0.0116275 -0.00219827)
(10.0461 -0.0256664 -0.00373777)
(10.0376 0.021956 -0.00302938)
(9.98642 0.0329638 0.00388761)
(9.99031 0.0186204 -0.00462839)
(9.81988 0.00981176 -0.00115534)
(9.90918 -0.0411361 0.00847289)
(10.0034 -0.00153639 0.00706769)
(10.02 -0.00622391 0.0144406)
(10.0121 -0.0122359 -0.00497818)
(10.0066 -0.0127831 0.01328)
(10.0643 -0.0699343 -0.0055766)
(10.0398 -0.077889 -0.0023525)
(9.9015 0.0545728 -0.00528604)
(9.95314 -0.0575544 0.00437721)
(10.0964 -0.0155849 0.0198899)
(10.15 -0.0348898 0.0203784)
(9.84404 -0.00225871 -0.00221334)
(10.0053 -0.0129147 0.00178389)
(9.97148 -0.0757957 0.0115588)
(10.0277 -0.0236893 0.0160471)
(9.93363 -0.000123233 -0.00130848)
(9.9666 0.00284759 -0.00828892)
(9.96882 -1.78809e-05 -0.00902681)
(9.91783 0.00425333 -0.0124224)
(9.96293 -0.00612252 -0.0184344)
(9.80309 0.00168477 0.0101172)
(9.7997 -0.00526871 0.0111298)
(9.81473 0.00373157 0.00845476)
(9.91548 -0.00995341 0.0234072)
(9.92859 0.0594467 0.0143646)
(10.0254 -0.126551 0.0229434)
(10.0081 -0.0128107 0.0103803)
(10.0133 -0.00921324 0.0087764)
(9.94707 0.0413527 -0.0037199)
(9.98069 0.0599346 0.0232705)
(9.98305 0.0351595 0.0095202)
(9.96079 0.00508896 -0.0253335)
(9.92394 0.00186721 -0.00746093)
(9.93381 0.00672877 -0.000350109)
(9.97633 0.0162662 -0.00445616)
(9.95382 0.0577609 0.011369)
(9.97512 -0.0129645 -0.00623772)
(10.037 0.002551 -0.0138055)
(10.0154 0.0111629 -0.022207)
(10.0188 0.0263498 -0.0129339)
(9.94612 -0.0150693 -0.0048229)
(9.97398 0.000739172 0.00336903)
(9.95788 0.0211678 -0.00892986)
(10.0355 -0.000902373 -0.00243162)
(10.0387 -0.0195871 -0.0104022)
(9.91834 0.0119663 0.00479136)
(9.95816 0.00794266 0.00138164)
(9.89959 -0.0224773 0.00341521)
(9.93715 0.0156909 0.0119604)
(9.90793 0.0152913 0.00208155)
(10.0365 0.0100571 0.0119302)
(10.0745 0.0320316 0.00337114)
(10.0365 -0.00794924 -0.000402295)
(9.9549 -0.00310643 -0.00921277)
(9.81331 0.00401916 -0.0046339)
(10.0797 0.0498884 0.0122007)
(10.0035 0.0284905 -0.00655904)
(9.94801 -0.0600905 0.00920355)
(9.93534 0.0194766 0.0163745)
(10.0354 -0.0160378 0.00635521)
(9.9593 0.00381166 -0.0149025)
(9.8371 0.0333814 0.00741335)
(9.96112 -0.0254309 -0.00459458)
(9.93793 -0.00779358 -0.00102305)
(9.93729 0.0117496 0.00137676)
(10.0112 0.0285322 0.00748275)
(9.92958 -0.00844098 -0.00151528)
(9.96843 -0.00676522 0.0108981)
(10.0457 0.00554993 -0.00719002)
(10.056 0.0117434 -0.000263046)
(9.97773 0.00480361 -0.00124087)
(9.9894 -0.00775652 -0.00679045)
(9.97589 -0.0561589 0.00619978)
(9.99818 -0.00185371 -0.00411806)
(10.1307 -0.103276 -0.00529625)
(10.0142 -0.00431715 -0.00488184)
(10.0253 -0.026317 -0.0120997)
(10.004 -0.00762991 0.0217758)
(10.0585 -0.0164671 -0.00371726)
(10.0349 -0.0154069 -0.00602664)
(10.1519 -0.0718935 0.0134543)
(10.0891 -0.0377546 0.00390028)
(10.0553 -0.0071351 -0.00545816)
(10.0577 -0.0222533 0.0122699)
(9.98637 -0.00365371 -0.00371314)
(9.93783 -0.00775619 -0.00722424)
(9.90153 0.00168559 0.00151716)
(10.0294 0.00210506 0.0312556)
(9.9697 -0.0926726 0.0242477)
(9.93685 0.0063606 0.0118057)
(10.0296 -0.0255785 0.00952692)
(9.9641 0.0187283 0.00274485)
(9.97512 -0.0208203 0.0127859)
(9.93493 -0.0205101 -0.00272321)
(9.94773 -0.000377631 -0.00810023)
(10.0165 0.0259778 -0.000891996)
(9.97158 -0.0178764 -0.000329526)
(10.0315 0.00246843 0.00931405)
(10.0108 0.0502452 0.0126136)
(10.0328 -0.00273733 0.00517761)
(10.1087 -0.0490837 0.00806164)
(9.96249 -0.0103721 -0.00719241)
(10.01 -0.0470938 -0.0092976)
(9.99769 -0.111374 0.0306861)
(9.91283 0.0292918 0.0104122)
(9.96868 -0.000578247 -0.0106737)
(9.98387 -0.0695266 0.0288876)
(9.98201 0.00526063 -0.00289455)
(9.97654 -0.00504466 -0.00406864)
(10.0493 -0.00852356 0.0131379)
(9.97065 0.0503404 0.012799)
(9.94686 -0.0121888 -0.000853609)
(9.99355 0.0232701 -0.00255074)
(10.0167 0.0321854 0.00892692)
(10.0713 0.036904 0.0106778)
(9.99262 0.0127748 -0.00512561)
(10.0102 -0.0287091 -0.00556312)
(10.007 -0.00511337 0.00677731)
(9.97593 -0.0121823 -0.00380637)
(9.94111 0.0203512 -0.0120923)
(9.95529 -0.0122152 -0.000997599)
(10.113 -0.0971678 -0.00687974)
(10.0166 0.00219949 0.00738966)
(9.97055 0.0168329 0.00896954)
(9.97693 0.0182158 -0.000914336)
(9.96217 -0.0476905 0.0140239)
(10.0931 -0.00751685 -0.00486696)
(10.0465 -0.0277704 -0.000130106)
(9.99977 -0.0878112 0.0249277)
(9.95131 -0.00125011 -0.00319127)
(9.95604 0.0103183 0.01009)
(9.93537 0.00176316 -0.0162797)
(9.98084 0.0136709 -0.00163336)
(10.002 -0.00433701 -0.0137824)
(9.90515 0.0352101 -0.00937076)
(9.93866 0.0254488 -0.000249789)
(9.96101 -0.0245044 0.00586191)
(10.0274 0.00985676 0.00169676)
(9.99662 0.00225697 0.00444393)
(9.99367 0.00632172 -0.0182106)
(10.0242 -0.0149549 -0.00669873)
(9.97886 0.0237882 4.65862e-05)
(9.97886 0.0500372 0.00742465)
(10.0286 0.00900181 0.0115398)
(10.033 -0.00719882 -0.00296967)
(10.0265 0.00585843 0.00527553)
(10.0312 -0.0111523 -9.02509e-05)
(9.96092 0.00137013 -0.000848757)
(10.0323 0.0238389 -0.00724459)
(10.0456 -0.0498487 0.00523024)
(9.91791 0.00225626 -0.000759698)
(9.97513 -0.00111713 -0.00995552)
(9.85668 -0.061205 0.0162116)
(9.98907 -0.00290356 0.00384138)
(9.9085 -0.000355973 0.00307005)
(9.99108 -0.0785969 -0.00560892)
(9.99914 0.0138968 -0.00115182)
(9.95738 0.00858231 -0.0352836)
(9.97641 0.00402897 -0.00374316)
(10.0094 -0.0164051 0.00319831)
(10.0281 -0.0186443 0.00463142)
(10.0391 -0.0485616 0.0128599)
(9.95724 -0.0198669 0.00240168)
(10.0255 -0.0109758 -0.017108)
(9.89524 0.0590789 0.00138457)
(9.97921 -0.00473286 0.0013162)
(9.99617 0.0153544 0.00170017)
(10.0294 0.0392693 -0.000954312)
(9.97823 0.0400333 0.00738724)
(10.0148 0.0221164 0.00921189)
(9.94467 0.0646256 0.000715737)
(10.0274 -0.00540948 -0.0227945)
(9.908 -0.0127181 0.00240721)
(10.0429 0.00801301 0.0136723)
(10.0316 -0.0100865 -0.00266089)
(10.045 0.0036556 0.00646845)
(9.94085 0.000742979 -0.0118652)
(10.0189 0.000984926 -0.00951688)
(9.9856 0.076365 0.0238811)
(10.0219 0.00230012 -0.00857062)
(10.0187 0.0125077 -0.0152324)
(9.9031 0.0090179 -0.0186946)
(10.0808 -0.00879841 0.000684368)
(9.96455 -0.0150242 0.000804023)
(10.0302 0.0140549 -0.00990179)
(9.86206 -0.00107255 -0.00150102)
(10.1111 -0.0513956 -0.00174754)
(9.953 -0.0567793 0.00541282)
(9.95649 0.00413066 -0.00677571)
(9.93416 -0.00416662 -0.0109769)
(9.81584 0.00617657 -0.00534945)
(10.049 -0.0301265 -0.011694)
(9.9712 -0.00823223 -0.00801364)
(9.96469 0.00466949 0.00139135)
(9.98935 -0.00837634 -0.00451786)
(10.0057 -0.0336948 -0.0214062)
(10.0569 -0.0113116 -0.00569266)
(10.0346 0.00307513 -0.00766597)
(10.0275 -0.00810803 -0.00722643)
(9.93168 0.000823862 -0.0061328)
(10.0236 0.00775101 -0.00283026)
(9.91189 -0.020039 -0.00789391)
(10.0362 0.00961098 -0.0144984)
(9.96301 0.0164451 0.00970236)
(9.96771 -0.0159099 -0.00777109)
(10.0154 -0.0080873 0.00100596)
(9.98522 -0.00608519 -0.0142737)
(10.039 0.0408028 -0.00150972)
(9.94472 -0.0105924 -0.00209325)
(10.0125 0.0464296 0.00183473)
(9.9573 0.083426 0.00885046)
(9.94125 -0.0212022 0.00394115)
(10.0196 0.0274372 -0.0119347)
(9.96273 0.00335783 0.00242958)
(9.68619 0.00947939 0.000768584)
(9.9097 -0.0208003 -0.00278567)
(9.97263 0.0219945 0.0082993)
(10.0289 -0.051859 -0.0172624)
(10.0841 -0.0295129 0.0103812)
(10.0488 -0.0174316 -0.0034796)
(10.0207 0.0135496 0.000960115)
(10.0116 0.0302716 0.0122406)
(9.96927 -0.019502 0.00372242)
(10.0059 0.00350819 -0.00862501)
(9.98454 0.0227363 0.00624013)
(9.95458 0.00718294 -0.0268343)
(10.007 -0.0424022 -0.00800598)
(10.097 -0.0523555 -0.000922396)
(10.0037 0.0712322 0.0122918)
(10.0552 0.00194411 0.00728769)
(9.85365 0.000265387 -0.00588052)
(10.0309 -0.0129315 -0.0157979)
(9.93134 0.00439088 -0.00564495)
(9.94549 -0.0160739 0.00476463)
(10.0062 0.0230407 -0.00331188)
(9.99713 -0.0118898 0.00455276)
(10.0099 0.0206372 -0.00776804)
(9.96804 0.0356607 -0.00314962)
(9.97953 0.0253987 -0.00470075)
(9.99244 -0.00995363 0.011913)
(10.0004 0.0175615 -0.000898836)
(9.8726 0.0164766 -0.00188456)
(10.0339 -0.00425764 -0.00498425)
(9.85677 -0.115322 0.00609784)
(9.94307 0.0303963 -0.0173467)
(9.98482 -0.0120341 0.00402206)
(10.0746 0.0337914 0.00237122)
(9.93638 0.0053621 0.00843551)
(9.87702 -0.00950412 0.0138284)
(10.0393 -0.0116397 0.00410637)
(9.98905 0.000502372 -0.0167038)
(9.94127 0.0315759 0.000382216)
(10.0164 -0.0144059 -0.00310896)
(9.9499 0.0244532 0.042056)
(10.031 0.0328471 0.0229312)
(9.98523 0.0320726 0.00117891)
(10.0103 0.0731824 0.029062)
(9.90248 -0.0423967 0.0073844)
(10.0063 0.015743 0.00405473)
(9.95692 0.0142081 0.00371975)
(10.0215 0.000551035 0.00410116)
(9.95743 0.00382331 -0.0333033)
(10.0392 -0.0143633 -0.00361778)
(10.0225 0.0144804 0.0166738)
(9.9487 -0.000694207 -0.0152537)
(10.0285 -0.000274622 0.00304024)
(10.0189 0.00292387 -0.00944961)
(10.0299 0.0029599 -0.0132753)
(9.94324 -6.36652e-05 -0.013876)
(9.82281 0.00644242 -0.00429261)
(10.0154 0.00379636 0.00450906)
(9.9806 0.0194246 0.00975921)
(10.0631 0.0205199 -0.00993677)
(10.0293 0.00923968 0.0154471)
(9.93462 0.0137138 0.0100743)
(9.97413 0.0217317 0.00508197)
(10.0539 -0.000555418 0.000772472)
(10.024 0.0158186 0.0107472)
(10.005 -0.00671488 -0.00499529)
(10.002 0.00432305 0.0112011)
(9.98516 0.01667 0.000306437)
(9.98404 0.0170429 0.000100871)
(9.95257 0.00739825 -0.0073533)
(10.0215 0.0282434 -0.00168284)
(10.0177 0.014567 0.0092787)
(10.0199 0.01345 0.00496358)
(9.861 -0.00112793 -0.00288202)
(10.0547 0.0123223 0.00752664)
(9.95064 -0.0219586 0.00311278)
(9.99634 -0.00926747 -0.00600339)
(10.0139 -0.00494716 -0.00803501)
(9.97669 -0.000541454 0.0291542)
(9.95872 0.00965095 0.00601481)
(9.96941 -0.0121922 -0.00724796)
(9.97282 -0.00794944 -0.00692202)
(10.0712 0.0411524 0.005221)
(10.0115 0.0118525 -0.00994924)
(10.0725 0.0426754 0.0107213)
(10.0505 0.0297066 -1.78703e-05)
(10.0487 0.0271676 -0.00205594)
(10.0026 0.0543246 0.027857)
(10.0497 0.0282448 0.00149737)
(10.0341 0.00546087 0.00115546)
(10.0266 -0.000911495 0.0315624)
(9.98639 0.0194608 -0.00509077)
(9.93229 -0.00301956 0.00563181)
(9.82334 -0.000759557 0.00818093)
(9.98966 0.0135877 -0.00171538)
(10.0131 0.0148547 -0.00521244)
(9.86304 0.00516518 -0.0357574)
(10.0348 0.00441161 0.00801204)
(10.0382 0.000749092 -0.0122491)
(10.022 0.0210807 -0.00331708)
(9.95375 -0.0170725 0.00964013)
(9.8777 -0.0148744 -0.0130523)
(9.94953 -0.0165292 0.0117646)
(10.0346 0.0126626 -0.00697255)
(9.97868 0.0131685 0.00364367)
(10.0485 -0.0153234 0.00302404)
(9.96041 -0.0104053 -0.00361002)
(10.0164 -0.00119988 -0.00298231)
(9.98148 -0.0112911 -0.00568512)
(9.94235 -0.0120721 -0.000704314)
(10.0209 0.00137731 0.00748163)
(10.0367 0.00228537 -0.0146956)
(9.96541 -0.0212966 0.00166126)
(9.92837 -0.0153449 -0.00146389)
(9.96366 -0.00966623 -0.00302725)
(9.96871 -0.0165568 -0.00293826)
(9.98079 -0.0306403 0.022968)
(10.0076 -0.0103451 0.00329208)
(10.0253 -0.00531711 -0.00999708)
(10.0019 -0.00368641 -0.0121424)