/*--------------------------------*- C++ -*----------------------------------*\
| =========                 |                                                 |
| \\      /  F ield         | OpenFOAM: The Open Source CFD Toolbox           |
|  \\    /   O peration     | Version:  2506                                  |
|   \\  /    A nd           | Website:  www.openfoam.com                      |
|    \\/     M anipulation  |                                                 |
\*---------------------------------------------------------------------------*/
FoamFile
{
    version     2.0;
    format      ascii;
    arch        "LSB;label=32;scalar=64";
    class       volScalarField;
    location    "0.0817324";
    object      omega;
}
// * * * * * * * * * * * * * * * * * * * * * * * * * * * * * * * * * * * * * //

dimensions      [0 0 -1 0 0 0 0];

internalField   nonuniform List<scalar> 
3975
(
72.3735
54.0681
74.9335
42.9616
42.2137
62.6367
58.4031
61.8203
43.3415
41.6089
42.5805
122.702
41.9993
157.954
41.8213
65.2665
63.6532
63.1452
76.0543
95.376
165.576
127.544
71.5116
72.6319
72.7488
44.3742
456.151
82.6206
60.1894
77.1553
47.7499
103.19
49.2017
84.3431
99.2842
95.0149
76.8348
51.6801
78.743
74.4774
77.6575
73.7073
74.1028
42.9386
68.265
42.4751
42.532
42.4826
75.3211
131.06
83.4994
42.3378
51.0573
136.749
134.456
145.898
130.323
101.234
86.1691
72.6328
57.1658
595.191
119.214
55.8798
51.2159
140.091
50.6229
47.3081
140.622
1031.27
1008.06
1576.08
762.634
73.9652
66.287
72.7595
66.3017
69.5052
72.6475
67.6078
42.9045
49.4056
62.3322
92.8405
42.7811
98.5544
65.1353
44.1664
57.0669
99.8527
44.2777
49.7028
132.339
72.5454
1035.04
63.8292
75.5472
667.5
51.9206
487.226
41.8379
353.602
53.4967
56.0743
44.4617
152.314
78.0937
61.6766
61.9889
63.9893
94.1444
73.2386
77.1849
76.1332
87.852
106.749
107.89
108.927
150.854
64.8873
49.5648
172.777
84.0828
124.106
96.8926
146.957
105.045
135.113
130.91
136.974
133.585
127.85
78.7974
75.0451
76.4915
72.9858
136.691
72.9133
119.856
48.5977
64.1004
43.7949
52.1031
44.224
192.699
44.6317
43.0945
131.685
64.5084
123.399
56.979
108.387
93.6981
65.9288
539.577
57.8055
48.2543
65.21
42.4904
84.9464
42.7884
43.7582
83.5817
133.961
49.6409
87.1539
91.246
1112.16
119.979
44.4757
42.7816
41.9079
96.4124
65.9876
1087.44
42.283
61.6124
188.562
91.7896
65.4733
60.7463
84.9775
116.801
121.149
120.777
53.0513
117.069
85.4709
80.674
127.949
58.7971
65.4289
140.64
88.7547
56.1008
113.158
196.281
42.7363
49.1966
44.0278
122.897
42.1028
53.2446
44.1195
47.0628
46.4723
99.7259
864.773
55.6106
848.592
47.1931
136.498
46.3552
84.6617
146.201
47.0501
62.6602
79.9029
50.0135
57.6077
68.9117
89.251
45.3842
64.2739
63.2773
79.3648
857.378
42.3544
118.474
42.993
137.194
53.2202
55.0227
87.3052
42.1622
44.3502
58.2061
65.9723
300.798
70.3036
41.75
111.778
45.8762
133.093
74.0453
832.411
59.0011
71.5621
738.312
41.8382
42.6921
44.0097
70.4454
1057.72
68.8409
75.8873
121.952
130.544
632.942
698.184
99.0785
259.576
48.4512
72.4288
118.368
52.8648
909.883
47.0907
80.2884
78.7326
78.1965
177.872
181.39
145.859
127.944
116.635
156.27
57.8284
864.914
471.251
545.02
57.8743
77.9635
46.0564
87.9818
144.885
205.618
157.077
780.879
133.13
98.6828
54.9354
74.9305
87.6011
63.7685
71.716
84.2979
70.1494
109.081
101.577
112.067
99.8376
80.152
112.681
120.209
105.984
127.976
170.792
161.355
69.3271
48.8842
48.9765
52.8551
51.6879
59.9689
137.186
66.5095
80.5607
44.4992
43.8631
42.8021
117.519
79.4498
73.3603
258.555
66.2512
72.6322
80.5414
196.772
124.43
63.8567
62.6229
64.946
64.949
167.384
105.644
82.0534
155.709
212.909
219.873
101.486
127.012
72.0798
103.616
90.9714
63.5521
41.6743
44.7785
42.8463
41.6569
133.873
70.3275
100.041
99.9736
59.937
60.0911
53.5896
118.07
46.4178
46.5652
49.6996
841.537
60.5218
45.2518
45.7611
45.9801
74.401
45.1458
63.5059
42.7775
44.4828
175.851
50.7187
72.7082
116.489
77.705
44.6449
1135.52
243.972
72.1079
502.877
156.721
42.1505
229.119
169.893
175.098
99.2271
245.724
170.259
164.209
92.4152
50.4731
176.006
46.9106
48.4051
54.5628
78.0984
78.6126
75.9135
73.3807
62.5518
82.1132
113.157
92.4863
66.2443
90.0585
67.6762
71.3166
71.469
54.6223
77.2027
71.3901
301.28
500.452
51.3261
807.478
67.164
47.9141
158.155
68.7451
84.0802
74.1929
43.5277
266.152
266.718
296.584
65.9947
170.767
43.8265
278.094
136.204
58.5907
61.9828
422.324
73.0197
85.0503
50.0739
108.2
235.828
61.7196
96.1064
66.178
281.385
944.599
967.915
66.4635
48.2992
112.849
982.974
53.0199
50.0048
48.8665
51.6879
53.1091
127.515
42.0175
62.7969
43.3675
66.1811
44.8515
47.3722
282.675
44.103
43.0292
178.861
43.5827
46.5976
42.9327
44.8353
43.3951
162.925
43.3555
43.6292
87.6185
48.5816
493.701
43.6983
44.9506
45.3343
44.2513
131.573
42.0457
49.9432
48.6255
145.543
165.188
137.681
734.019
1154.4
138.664
64.6483
49.078
55.433
287.929
53.2909
46.2933
44.1157
48.4579
85.2032
338.95
885.051
42.4716
43.2631
51.3912
42.2392
43.9985
63.4752
642.01
49.9924
48.2661
72.2351
44.9209
55.2157
1045.28
74.1354
69.4922
43.8401
59.033
43.9431
139.465
82.2211
121.998
95.1241
515.699
544.373
159.842
97.679
1158.29
47.5864
60.7493
43.3419
53.5386
46.4451
42.2794
71.7257
61.0502
53.3649
196.194
1015.55
62.4168
42.8217
42.7845
41.6536
114.184
406.359
853.813
60.8687
1053.29
389.976
56.74
183.184
46.054
77.7943
48.5749
152.681
156.597
74.13
68.6697
50.4851
67.4115
62.8997
63.3897
203.755
518.891
482.473
834.476
1404.87
297.039
1155.51
826.09
47.9469
43.3405
43.8007
43.7597
44.5364
43.9653
42.6992
49.9466
44.3852
71.6381
46.4085
100.102
79.4512
99.5218
43.748
42.4102
41.9457
42.9235
49.3512
54.1362
66.9923
43.9018
46.7541
213.567
61.4405
51.3063
42.9942
56.6273
46.8454
44.204
48.5982
48.3643
900.168
119.592
76.9825
99.397
86.6342
66.0152
67.9353
84.0366
71.0331
63.8361
44.1122
50.1046
97.5459
49.917
45.1101
43.6438
46.8472
201.777
42.1994
42.1471
44.0901
43.4793
56.1051
46.6402
67.5978
42.9209
63.2316
43.5326
79.8059
52.3201
94.6243
44.8761
46.583
47.3255
44.1807
47.9603
75.1168
63.3796
42.8334
122.566
105.879
44.289
42.8167
116.147
142.32
62.0182
144.1
121.479
60.2394
61.1649
429.862
868.894
82.8285
783.274
199.13
194.614
104.891
707.543
457.785
919.153
53.2646
1012.03
780.93
1010.09
912.582
865.337
47.0083
47.9639
55.5795
57.0469
55.1978
50.4898
58.4004
234.531
43.4547
42.3585
42.2367
44.4861
72.3782
48.665
42.9014
79.8595
104.885
49.755
54.6679
46.5199
43.4335
123.844
57.7593
94.5176
51.8678
47.3633
132.23
65.4089
296.865
79.0903
50.9016
52.7123
243.751
42.4241
57.3715
948.713
48.9648
107.403
60.1135
42.6675
43.0785
489.212
65.5148
49.234
48.4431
93.4323
45.7092
47.2086
81.4804
114.328
66.1275
55.5127
43.4153
50.2085
78.7008
44.002
84.4623
44.1093
146.135
44.9534
43.7971
51.1
64.6807
62.5442
49.5484
61.1043
62.815
54.1746
60.0341
64.641
676.95
63.6135
561.26
63.5458
251.104
82.8963
987.956
60.3626
48.6625
42.6988
98.8363
50.5994
329.735
50.082
60.8971
50.29
408.652
66.1795
43.4503
46.0443
45.434
42.9982
44.2823
43.3217
105.843
43.888
43.4822
78.1369
43.9528
42.3232
126.239
42.9106
129.294
43.7907
45.7198
43.7449
72.9472
43.5437
47.2768
54.051
48.4503
64.162
124.605
783.114
161.035
52.2774
43.3863
67.8588
73.7682
43.3175
64.9363
51.5734
58.4787
61.3726
989.912
43.7054
118.587
174.532
55.0108
67.8862
48.8356
71.8345
72.0034
55.7714
64.9296
67.5025
1068.95
46.2697
50.9797
50.2974
1069.11
89.7589
66.4754
48.1378
43.2175
208.557
285.242
104.304
996.44
125.769
121.12
561.734
72.4278
63.3956
74.604
65.6757
91.0592
484.887
439.672
50.5486
765.578
481.803
558.998
604.131
1079.67
880.426
864.303
460.784
115.58
116.499
852.005
468.92
229.484
875.673
848.798
100.004
176.475
64.048
105.967
146.447
177.248
67.9349
55.9277
179.201
146.622
395.397
380.423
123.149
80.0761
381.084
379.93
54.597
154.216
81.4254
76.68
66.1355
69.0055
65.0592
49.2662
49.4946
46.4131
43.4028
61.8124
61.5709
51.2377
49.5276
51.9921
47.2447
51.4482
47.583
49.1076
48.3573
176.167
75.0986
90.7603
86.4399
66.4644
42.8831
45.3682
104.845
47.5693
80.4591
79.3307
109.989
97.3762
101.796
78.2391
124.685
65.997
61.3158
67.9344
115.698
212.241
429.784
241.556
389.615
384.837
436.756
83.1394
105.255
89.3477
81.2725
57.9588
65.2153
66.6143
75.3708
52.9563
54.3673
53.5765
110.902
87.346
150.192
645.767
86.5532
197.931
77.5836
75.6236
47.7849
45.3971
57.9111
133.297
83.9956
172.214
141.965
94.415
119.13
69.4039
733.465
68.623
55.6214
93.6009
80.64
102.083
111.8
149.304
133.17
133.562
116.757
77.9253
74.4154
87.9587
121.309
89.6177
62.5869
76.4367
65.9622
59.4556
55.5895
59.2514
58.8676
48.76
55.8914
61.0469
47.219
48.3013
47.0354
42.5656
46.0557
41.6664
43.163
43.6786
44.5431
42.7264
42.0062
41.7794
42.2788
73.4909
53.2503
45.1614
47.1423
51.9901
58.4338
168.545
365.026
73.5734
67.1183
58.5065
143.573
88.934
449.49
176.918
51.0135
134.366
49.9727
108.564
65.7642
46.6802
53.4783
106.487
109.364
53.3249
68.7091
71.4904
68.6996
62.5948
104.801
43.5692
48.9002
52.2977
232.335
547.072
52.7837
1170.25
42.8459
44.4319
68.4251
100.474
46.8475
42.7637
55.7817
110.879
58.6934
44.3389
48.9196
61.2284
65.5385
74.5605
85.0375
52.8985
42.5153
119.17
43.5993
778.355
91.828
63.5013
80.1109
122.893
125.215
208.597
156.727
75.4157
64.1071
85.2102
58.4344
86.2499
57.8224
66.24
69.3594
81.2267
77.4966
107.433
88.0174
51.429
50.1667
74.8278
121.152
126.22
47.5882
42.674
54.4034
80.772
171.636
43.2527
61.8508
124.249
163.527
78.1376
46.4944
53.4825
44.1564
45.7909
57.3417
66.4643
42.5715
62.946
60.2352
89.7925
43.1843
53.2613
52.8969
63.3946
95.8128
43.811
118.609
109.07
42.1842
327.295
615.546
104.678
73.2466
48.636
69.8847
103.013
61.0074
62.9651
43.0359
85.3406
46.0183
44.0726
45.4345
169.319
51.3043
86.7631
49.8372
1238.31
195.942
203.254
389.969
126.331
60.3114
45.4162
46.5837
77.5678
97.3495
66.3919
86.9497
55.4328
46.5754
49.4326
62.1802
47.3467
88.3417
65.6923
53.2207
66.0062
62.2814
170.378
50.7193
601.375
830.954
1001.43
931.756
950.076
50.32
105.002
50.8512
80.0794
52.8434
708.212
117.177
297.152
846.155
447.281
420.235
1230.72
570.283
66.7411
84.8605
55.396
46.8123
52.1323
66.7972
52.9448
45.7176
42.9395
214.324
932.484
238.002
57.4826
56.879
287.758
464.503
61.9344
93.7448
47.4964
42.3805
41.918
53.0793
56.1621
44.7757
42.1279
52.1262
42.4611
43.0537
46.508
51.8498
46.7013
44.9951
66.6909
49.395
44.8579
168.769
42.4307
372.373
43.6147
42.2523
55.5172
795.703
808.211
56.4253
47.0845
51.9509
53.1864
71.6553
55.2398
58.5064
464.457
42.1685
43.1246
42.2887
43.5875
41.9866
83.3219
55.8891
69.2369
43.9733
70.0105
47.7064
45.4878
47.2755
43.1946
47.2798
44.7672
44.8885
102.665
61.424
62.5795
74.7241
98.1724
58.6186
64.2199
110.9
42.4906
44.1258
51.4043
44.2507
111.094
43.1488
76.5904
112.014
1422.71
48.3356
47.493
58.069
77.6278
48.8192
590.248
51.2115
872.176
346.552
177.648
281.44
107.512
559.495
47.262
42.4343
42.7628
593.394
42.8609
210.543
739.201
970.729
163.15
1306.76
379.489
914.683
109.705
43.0134
82.3644
68.3386
947.048
934.923
795.862
619.222
794.078
778.261
189.046
81.2592
53.7662
92.8377
55.846
51.7983
73.5105
61.1004
52.0081
174.634
41.7423
101.217
55.2772
48.0337
147.716
68.7053
1197.97
107.283
42.7157
47.9113
52.2306
48.041
50.5954
80.8073
68.5884
51.5694
79.4087
46.2737
47.7817
46.2938
51.5987
43.6847
194.489
42.3545
52.8014
176.999
61.8393
90.864
52.3507
211.751
51.1088
179.421
62.4792
766.256
653.077
60.653
87.6675
135.539
178.255
138.605
203.171
123.09
74.182
93.5278
43.9999
43.1211
53.4052
60.9648
53.7664
61.8937
52.4234
63.6402
61.9059
61.7524
145.987
118.608
60.1861
133.992
103.371
122.991
50.575
48.0647
93.305
49.1045
45.5094
52.0023
44.6046
58.4671
43.1755
44.9225
44.1291
44.7774
45.5154
125.793
57.8408
44.6929
53.6413
44.985
46.784
54.5896
46.7518
48.0197
58.4822
137.001
619.437
225.497
62.8635
1131.86
764.466
57.3219
218.19
109.502
109.172
61.1499
47.6361
92.048
66.1651
75.5274
64.0168
65.1442
44.1862
818.025
77.1691
360.097
65.5469
887.857
52.8473
80.8787
67.7209
71.7818
108.573
161.076
388.63
87.8172
80.4482
63.0968
60.6468
68.2003
57.6346
1027.65
1034.33
90.6475
80.2896
140.372
70.2074
117.124
65.7617
73.2081
115.476
137.561
142.871
208.695
171.353
244.638
194.76
419.57
462.41
436.455
521.399
42.4287
42.1493
81.5132
43.7526
114.167
62.0748
178.611
128.797
177.958
45.5289
66.7469
64.8994
68.1668
93.7029
58.2722
91.6239
47.6104
54.7934
46.1986
43.5462
130.973
316.157
42.9805
999.067
73.8027
69.2245
104.253
61.7579
60.7779
57.6414
214.947
93.4123
124.799
53.3819
107.45
95.6637
99.6668
81.2827
56.9338
54.5962
46.2555
81.7114
43.4111
71.0833
76.2722
64.9245
257.572
70.8323
205.674
261.154
49.7876
106.649
107.621
1041.32
118.543
67.0349
46.9888
69.0552
384.774
55.261
858.839
43.1941
62.0524
54.6797
873.017
43.794
951.287
997.722
818.023
90.5584
101.389
63.8526
70.7781
71.8412
833.92
66.4374
1431.84
174.048
408.742
67.4311
72.6081
69.0198
50.1412
53.5228
49.0434
62.5422
189.689
93.9271
90.5708
112.679
51.1936
247.53
46.009
92.2824
68.6819
90.3976
81.9191
56.9241
92.6375
72.7079
248.73
109.421
58.5885
51.7154
63.462
43.4077
117.647
42.8435
148.112
70.8525
49.4771
44.3248
378.395
184.667
61.7227
309.458
80.5201
43.874
45.215
44.6897
53.0505
54.0109
68.1688
76.7422
156.112
147.329
43.5474
96.4612
56.0176
116.53
52.5185
116.296
45.8268
43.06
60.3296
120.903
48.428
65.9094
72.5909
253.247
72.0834
53.9096
829.578
944.909
1054.5
135.074
192.514
114.744
48.7065
52.1298
61.9664
63.9267
98.4074
42.4845
116.607
57.7686
571.844
583.946
42.5192
44.6035
54.9205
152.509
57.2295
79.8687
56.4899
86.4677
546.798
56.0388
54.099
54.9778
78.8681
53.3408
738.235
63.376
818.249
121.985
139.231
1033.1
246.401
677.493
387.555
89.2593
111.673
64.8912
82.4161
60.2529
640.194
70.1145
64.0241
85.6986
776.001
842.928
637.438
98.0378
512.324
120.286
72.1572
890.093
68.7262
79.9525
67.4469
64.1048
68.4364
682.309
962.332
851.766
52.261
69.277
80.9066
110.384
50.6535
45.4209
49.8416
54.1148
120.545
58.2603
46.9775
65.2408
43.7009
109.905
59.1382
48.5132
169.236
61.558
41.9375
42.3716
60.8856
42.2791
42.7464
61.6227
56.1337
1015.41
60.7436
60.996
43.6299
131.438
44.89
133.806
258.267
46.0737
41.8326
48.6422
43.2803
42.7845
79.3639
285.358
295.272
44.28
44.5125
50.6757
41.8137
41.8941
117.723
41.9457
78.0628
108.648
42.1877
471.951
656.23
306.811
89.2733
114.39
52.1613
74.4107
57.9108
48.5352
49.7422
58.2782
52.0468
49.0739
129.777
142.792
125.41
103.701
68.3309
100.095
68.7504
76.7233
69.4074
73.1043
485.188
87.1191
81.7814
47.1487
113.227
101.238
79.0043
105.24
331.684
438.415
115.707
42.4078
43.0781
113.812
132.742
145.816
42.2686
42.379
42.5356
51.0914
54.0524
118.482
64.7436
88.7661
152.154
577.751
197.105
57.6139
61.1191
57.7457
56.9107
199.525
134.776
64.8598
90.4466
89.0959
105.761
208.223
49.7411
82.8504
89.8352
53.6474
65.2363
52.5917
139.863
44.1365
256.001
652.854
42.9277
42.5119
42.6459
44.0755
126.287
42.0695
73.0811
64.6513
69.8404
207.899
774.123
904.6
56.6877
1183.06
787.969
543.567
697.138
1025.69
298.321
54.9148
53.7589
490.965
75.4133
72.5722
75.0527
202.885
510.597
269.492
126.248
415.007
582.561
59.5349
54.6123
1230.03
903.223
825.134
893.911
1068.77
903.243
1007.16
56.7
845.684
57.5927
71.3515
64.7834
64.775
43.8865
45.0845
43.7956
68.4779
75.5477
53.7944
44.1852
50.7895
45.2646
54.0559
51.095
45.5575
44.9984
56.2825
52.7254
56.0803
165.412
50.4871
48.7492
42.3261
43.3095
62.3327
60.5498
43.8075
41.8395
54.9506
53.6866
59.4873
87.0927
172.913
60.4693
42.3119
63.7232
124.654
57.6198
237.578
43.8084
43.6568
85.3994
49.1852
101.257
140.725
118.834
58.4723
105.801
59.5422
62.2776
73.4688
58.1142
94.7809
66.2434
79.7261
66.9209
42.8492
113.514
57.2344
61.5612
44.3499
43.3062
66.0716
45.1721
1034.85
406.831
881.807
120.049
42.6261
45.183
65.2594
43.0586
43.0643
47.7921
44.4145
545.974
648.625
43.0858
44.6096
42.1639
59.0609
56.834
70.5415
43.5192
78.6735
56.9238
959.017
49.1798
83.3844
55.8494
55.0118
86.936
42.2709
41.7944
42.0114
590.381
42.9404
42.0088
566.362
140.755
65.093
84.4468
683.411
1050.92
43.0329
43.6687
42.9364
43.8865
75.9816
892.923
42.3873
42.2162
43.106
44.8413
47.3289
444.327
45.1629
43.0269
42.7132
42.6876
53.2216
69.9474
76.6797
62.3434
60.968
97.3122
63.5205
63.7504
87.4963
50.9489
68.9847
58.1412
49.7554
44.2873
49.8512
63.7911
109.013
64.8269
71.6257
81.0675
57.486
85.4932
52.2618
64.7482
64.5001
66.561
215.224
44.6664
46.9227
96.6509
50.1613
361.093
45.6496
109.162
401
1037.08
850.575
1126.07
62.0949
214.83
59.7653
192.608
819.214
107.676
656.693
100.108
435.319
431.291
68.1985
897.134
169.323
64.3447
1350.25
992.95
775.102
75.2193
96.1322
75.0855
64.4017
635.406
123.892
139.549
225.614
97.6592
200.349
59.1194
64.0602
88.5323
56.3388
74.4728
89.2378
99.0528
70.4825
130.328
66.1336
73.8124
58.9912
61.7739
201.741
61.1217
51.1055
78.8512
67.3399
111.167
110.438
65.6749
130.779
74.3724
171.867
65.4196
82.9542
74.2944
68.1812
73.3933
63.8134
75.7283
87.9054
63.2365
67.9479
108.261
65.4963
64.133
54.4234
120.786
47.1525
85.8817
109.28
53.669
46.9699
46.6538
46.7343
45.5276
49.6508
89.272
73.856
69.662
71.4192
68.4819
340.448
72.5172
41.8544
52.1647
66.6877
49.7299
50.8373
51.2515
53.5987
53.2057
52.4963
75.3678
88.2243
82.7482
61.7182
51.3028
74.5114
80.4692
61.2775
77.8336
164.265
43.8297
75.5561
42.8171
43.5545
71.5989
69.3978
64.2666
66.6043
105.96
73.0245
98.0567
59.0528
71.661
116.341
76.9966
46.5164
42.3722
44.5102
76.6689
56.3557
46.8951
44.0881
117.548
158.504
191.737
64.8147
42.9622
53.4388
182.413
109.439
41.9804
49.7821
71.0942
130.327
109.373
121.854
169.02
80.0326
93.4063
74.342
109.965
139.233
54.1539
48.2521
48.7325
48.5536
52.2998
49.0401
43.305
139.288
142.878
81.5306
53.9919
394.873
793.255
70.8793
161.382
152.068
82.1521
112.7
1544.57
332.466
68.9458
90.2569
67.9804
84.3515
61.9008
127.952
84.6256
72.3333
67.7503
102.888
62.4032
60.2836
72.7443
95.1247
48.4801
46.9988
43.3145
58.7477
67.1219
63.3192
156.371
62.4364
818.273
83.0167
124.984
74.05
48.9427
67.994
54.7844
66.8938
62.1263
543.347
80.2788
73.6449
78.4215
65.8134
180.564
169.447
71.4251
65.9063
85.2448
102.879
203.542
51.8945
73.6092
66.9259
48.1694
44.3405
50.1506
69.4727
139.48
58.0673
77.4429
47.6092
91.5744
43.8114
43.4133
63.2935
591.263
63.9312
63.1031
310.04
85.3047
61.2138
75.146
49.8413
116.441
63.0817
162.69
43.024
42.2406
65.8272
64.4446
147.708
111.466
46.0119
43.0941
56.0198
47.7445
123.588
58.7905
65.5731
61.8662
59.7625
82.1855
94.5122
59.6899
48.0961
43.0991
167.95
132.911
59.3097
59.2744
55.6523
89.2386
63.9959
80.4026
74.567
232.608
257.438
67.95
144.795
135.188
391.658
140.09
98.0551
47.7441
42.8811
41.655
49.7777
45.5996
43.0902
60.0674
44.0743
79.4896
51.2547
87.2346
62.4244
107.971
42.0293
81.6639
45.1269
55.4069
85.6227
56.1094
59.4584
111.962
728.682
108.063
124.56
1033.96
61.2877
182.764
43.0677
44.7477
52.1979
43.9386
46.0033
61.6216
76.9113
76.6475
51.2159
58.3817
58.8944
53.2116
44.0185
62.4686
205.434
44.0287
46.7563
168.713
58.4978
55.2505
66.8028
56.2614
171.022
54.7868
56.0647
80.6085
381.367
1246.49
122.015
64.7541
428.07
84.3595
43.928
43.7887
42.0148
404.915
1018.66
63.6107
73.2376
54.9088
87.6885
501.716
46.225
46.8381
378.41
117.271
70.6457
1086.66
86.0889
52.6806
43.2995
42.8755
43.646
43.4024
42.0465
42.0744
62.9172
42.1203
55.0197
44.2523
62.1376
56.1987
46.7451
50.9788
53.7303
44.1926
91.7499
42.0174
51.4771
46.6933
121.209
84.4246
56.3267
51.9653
1028.52
835.906
159.385
88.2977
156.72
104.143
44.2895
42.164
42.1635
151.96
71.9065
87.3836
45.2035
53.4875
44.7454
59.9891
49.1823
58.0827
50.0515
49.4304
42.3994
45.9961
67.4958
56.1689
107.886
96.7991
149.583
58.5854
49.6036
52.0278
70.4941
92.6977
133.312
160.998
108.63
43.041
52.1925
165.882
73.6069
47.3897
103.185
58.6019
965.194
850.637
933.755
42.5677
106.355
1889.31
53.0162
50.1515
68.3319
916.729
52.5152
766.769
51.4262
60.2901
47.4103
43.322
48.5835
45.2988
49.3388
109.051
378.836
524.684
44.5379
126.919
86.3761
51.5302
97.6674
125.23
485.462
152.519
65.7306
220.367
56.3271
44.202
42.9555
93.5953
300.854
42.3511
97.3265
107.772
46.9419
93.6853
52.0741
95.2292
44.0821
67.1592
54.1683
49.2163
52.9053
53.456
90.7682
50.6512
70.7989
65.4053
121.912
235.048
377.649
80.319
62.1214
83.7064
78.4508
71.138
74.6867
116.775
55.853
67.3095
65.3557
44.4495
58.5449
56.6775
54.7291
52.654
70.2937
64.3713
86.4915
355.01
135.615
47.9322
62.7137
55.086
49.3313
51.6037
67.8877
184.244
60.2125
44.5286
341.204
64.4245
184.869
121.622
42.4479
64.1909
66.5508
67.7021
73.3994
128.038
85.6798
55.332
66.4187
71.1802
86.4647
171.464
101.915
87.364
64.0601
188.876
74.2347
48.6708
49.7607
47.1951
47.2633
51.0751
47.3255
49.5763
52.1164
45.1083
43.3727
73.5597
59.5288
53.1393
103.505
169.826
67.0051
69.63
50.6786
525.766
71.8702
172.069
70.4389
78.1073
52.5785
761.729
96.254
185.48
395.208
721.011
66.0351
73.9621
67.3246
80.7214
47.5965
760.974
132.247
140.316
111.968
60.7385
927.578
91.517
75.5906
76.5153
60.0156
52.5757
61.8077
67.8587
73.9267
59.4249
170.176
83.1928
76.9168
135.309
233.395
884.739
879.095
395.924
826.779
913.361
581.419
237.314
80.2905
78.7927
84.4274
69.0379
88.6224
91.6488
894.411
764.82
553.726
194.243
903.463
386.491
484.265
87.6194
85.8519
43.6481
44.3988
46.5484
44.0156
44.6032
43.9832
45.0066
44.0806
625.934
458.309
68.2023
61.391
74.3488
65.4122
66.6778
64.9916
64.6976
64.367
218.212
71.2928
71.9035
75.6953
115.26
62.2313
53.6698
60.9781
42.6888
44.532
84.6037
129.786
47.9788
97.207
64.549
68.4293
41.764
186.693
93.4744
918.083
156.578
162.851
162.423
272.817
47.2748
50.3188
48.1476
100.569
42.6303
64.5795
136.325
42.7012
90.2271
547.93
106.041
97.5663
81.8047
49.0657
96.5276
214.115
827.181
70.7624
43.0386
113.703
136.762
50.4456
115.767
214.157
52.2142
47.064
50.1208
48.8768
126.909
93.619
187.852
41.786
1178.58
53.9861
44.5046
43.0447
44.6475
44.8608
45.0064
51.1585
85.6595
47.5825
53.9257
89.9436
168.809
70.8955
73.4548
83.3749
100.486
125.839
46.1027
88.9898
121.588
51.1459
44.7727
48.3816
42.6003
45.3525
42.195
60.3744
97.2807
75.1857
116.206
460.47
48.2767
83.7501
117.166
44.1033
43.028
63.5375
78.2118
82.1417
369.799
392.75
43.0758
1401.15
230.185
518.766
549.846
45.2102
44.0688
81.0947
62.5946
45.3276
44.1279
63.2018
42.9634
41.8987
42.4018
45.2727
82.8437
229.532
94.1424
112.212
98.1477
101.142
69.0548
50.9686
42.7154
44.0377
61.1086
48.0147
42.2369
85.4545
80.7307
67.8262
81.1405
67.0658
67.2104
70.7552
63.0084
112.413
78.4424
111.135
63.8708
68.006
43.8482
57.1351
94.9475
66.0615
112.104
65.7562
75.9688
44.8145
45.7003
48.1029
42.0811
52.0261
89.7134
76.1583
68.2233
72.647
217.238
211.627
64.1267
54.6904
135.899
71.4296
73.6211
46.9886
95.3487
138.279
160.187
59.0992
43.8228
101.791
44.5355
54.4432
151.52
134.657
64.2526
108.469
69.7598
81.8635
79.4101
142.381
93.868
252.773
63.5035
46.2106
108.961
46.8475
42.855
43.1358
41.7858
49.4495
57.8728
59.5563
46.8105
41.6526
42.8317
49.7462
42.3554
59.0102
68.2398
81.7747
73.8968
56.2579
124.076
157.99
82.3846
55.1243
71.7655
219.456
55.1213
623.79
44.7588
72.1422
55.4641
60.9869
70.0315
48.6262
49.1294
48.0607
68.0007
89.9525
65.4341
100.275
53.5285
42.3025
53.0237
56.1885
50.7322
41.8202
42.6127
44.1934
42.4809
42.273
109.602
99.1009
70.6682
283.875
54.8044
53.1718
210.795
84.3425
423.796
613.215
862.287
445.689
245.637
48.1156
59.9818
46.926
42.9216
110.65
72.3624
44.7705
45.9278
42.4583
1275.08
1061.58
52.6457
45.2429
318.357
46.8843
47.1335
65.4323
62.7313
252.379
46.5484
52.1511
55.0944
1069.55
815.111
591.502
988.69
51.8626
41.9181
47.6586
47.5209
48.7109
428.657
41.5826
45.26
41.7191
64.8539
43.2747
53.3838
57.9295
54.55
42.4383
51.7674
84.1443
43.7772
384.724
833.968
869.962
42.9516
785.569
1256.2
41.9532
61.4817
1081.17
1047.4
1050.85
116.592
85.5405
66.5393
852.965
1396.12
101.076
45.6827
56.0724
1295.39
807.572
67.2679
65.9739
81.2647
66.4158
41.9797
64.8894
43.2093
42.8213
41.9261
42.4424
41.9243
59.7466
49.2491
46.1363
44.9649
50.7084
42.3564
61.0654
106.261
50.6272
51.9266
50.1052
50.4182
43.4791
46.6292
76.3564
44.2767
47.1604
45.3899
50.5051
48.4363
44.6079
42.5499
44.6624
59.487
138.829
42.01
94.0013
52.0409
44.4224
47.6791
411.396
130.033
43.1594
50.3692
42.0479
51.1847
46.2741
43.0054
50.698
50.3151
43.4686
42.2565
43.8621
43.6766
58.0979
1668.5
46.8942
64.8047
50.2434
48.5662
50.7832
55.0656
66.1465
65.0742
74.7542
53.215
74.2473
71.2008
90.0785
51.6953
519.078
50.0392
43.9353
130.356
151.245
79.102
76.7844
107.959
45.1359
41.9229
42.0681
52.2507
43.9261
42.8336
43.2823
53.4767
97.7495
88.5475
82.7237
45.6664
44.0923
43.1104
48.8286
41.9556
42.0037
42.3928
44.2337
43.3559
161.525
48.9473
43.1102
53.7186
59.5765
63.0926
68.1789
71.9809
49.9243
91.2269
90.0176
71.1031
61.4959
135.567
69.2747
168.558
72.5417
42.1978
61.2906
93.3945
60.5244
59.5182
48.2774
50.8974
971.122
49.8935
48.5795
95.8968
87.5327
118.775
79.7133
67.0984
61.0163
73.1322
43.6949
42.0702
47.9918
102.092
42.2467
43.6237
42.365
42.6949
99.3727
45.9622
48.3375
111.999
45.6767
110.667
66.7098
59.8212
45.3704
49.765
43.9089
41.9892
42.2157
47.9926
41.833
47.9095
59.4832
62.2785
48.7886
50.0498
52.8378
54.7891
51.1619
54.7652
53.0925
44.982
60.429
200.585
47.1282
49.1571
84.7487
109.992
53.6476
77.385
595.327
54.1293
967.349
1579.47
122.814
1663.92
58.1767
70.7974
46.3989
872.378
159.301
181.987
98.5449
104.789
50.0003
44.9942
52.0559
48.8497
47.7445
932.486
354.615
96.3641
55.9388
1061.09
194.915
129.714
58.809
59.0731
53.6409
106.649
739.15
524.742
45.6157
57.511
185.515
49.7351
88.4966
1057.12
265.393
379.905
71.3555
503.172
592.859
50.3404
1140.8
1039.44
46.8205
51.4898
60.0505
53.2301
55.1617
57.3122
51.8373
51.1227
55.5938
42.8264
43.7727
49.4351
45.2284
43.523
53.4551
50.845
67.0155
344.817
502.317
724.654
59.2724
61.0826
44.9414
49.2687
50.524
158.776
44.4268
52.6901
50.484
56.7585
52.5771
51.0119
46.0167
54.8585
138.537
77.2881
51.8392
68.6775
63.9339
58.9536
89.8702
154.108
58.0022
68.5152
336.846
918.381
202.224
78.6315
52.321
50.1867
71.8147
104.141
61.069
194.699
47.4049
73.8741
50.8636
154.302
72.5998
49.1751
46.8543
68.2893
83.5472
83.8238
45.4491
48.425
61.4806
62.2982
63.0424
65.9992
155.288
85.9457
49.6516
46.7003
85.9203
43.0274
44.2492
101.506
43.9784
43.4998
42.8184
42.8458
43.0666
47.1798
43.6175
45.6398
51.4337
76.5261
60.5545
52.5826
97.6453
1084.09
43.0171
52.3325
42.2955
89.1887
984.094
64.7557
122.333
64.8053
50.6704
77.5351
65.5799
55.6333
66.7725
65.7762
63.5456
67.3605
69.6478
75.0346
61.1404
76.5578
64.9482
50.4982
43.9141
46.0078
169.369
152.019
91.3043
64.8342
70.8197
123.746
108.672
55.0796
43.1897
56.6662
57.9691
49.143
44.2067
62.117
43.0311
94.397
69.3892
115.711
98.951
47.5887
54.6811
87.1277
118.526
52.2714
48.3482
43.6893
52.321
46.0031
52.23
52.7153
53.41
999.253
42.7135
42.022
44.2662
42.6517
42.4749
45.239
59.1801
55.4935
42.69
61.6838
64.6523
132.107
79.7577
1003.09
929.874
43.9153
1090.35
43.8424
45.1986
42.5979
56.7785
48.7511
47.4966
43.8621
42.8926
43.263
55.3544
43.0324
45.4126
44.4949
49.1265
53.5103
54.1985
59.2533
53.9492
42.7798
42.8569
426.365
69.3272
57.5787
44.143
44.8623
46.2923
52.1869
217.249
73.0102
78.2032
52.8392
59.7121
68.7292
61.0457
112.208
43.0736
166.026
62.4054
119.827
422.911
58.6375
53.7013
77.0855
333.904
54.8143
64.3471
49.8822
62.9835
72.0647
75.1214
72.5776
167.995
783.173
65.1145
53.9609
83.316
69.8556
78.2173
189.178
475.202
1082.91
62.9503
155.613
91.2936
43.3458
911.358
852.968
44.1542
43.6979
82.1929
123.531
131.118
761.632
47.4945
141.565
62.862
887.363
62.7715
511.819
84.3656
81.0053
126.991
185.831
120.683
193.285
66.556
68.6347
71.868
191.669
70.1312
62.894
117.204
58.7405
151.004
168.737
93.0059
57.1614
145.835
56.6458
62.5257
201.415
203.605
64.7011
1362.96
46.0351
46.7471
84.199
47.5703
65.8409
69.4002
55.1121
66.9786
60.1739
63.3889
102.864
64.9111
123.602
74.5441
153.818
187.005
55.5757
51.3217
52.4358
55.0939
58.4471
108.97
62.3412
41.7236
410.65
61.9418
130.906
60.7975
122.407
114.829
42.2615
42.4155
58.7048
65.9262
46.3625
43.2497
624.623
58.4572
1252.95
46.7465
97.973
50.0692
886.714
97.9396
47.8009
422.073
94.1222
483.945
119.581
69.2892
109.374
101.886
64.5243
81.2871
138.527
144.053
124.252
48.5347
852.129
50.7033
53.5336
75.4977
63.6094
101.77
66.7104
62.0497
50.2331
49.418
46.1016
63.7012
112.645
134.886
79.3719
75.575
80.4983
80.5484
456.584
97.2886
55.1789
129.316
67.3279
560.529
82.9982
109.887
204.783
111.59
79.3183
121.219
122.611
44.077
43.2548
65.3901
64.8041
97.5268
140.731
75.772
126.199
48.1886
53.5966
54.6377
56.0057
51.5742
77.0088
59.1088
50.5168
127.745
90.6125
63.0705
73.1083
163.716
223.257
158.34
50.7517
51.2525
118.234
83.0768
158.84
79.973
105.99
183.404
205.778
58.44
66.687
74.8439
67.4477
104.366
865.794
119.075
69.1226
67.3282
300.325
167.978
814.591
349.726
424.199
48.6913
49.412
101.391
82.8365
105.77
48.7101
97.0162
107.276
47.9993
108.984
147.052
43.0674
74.8405
136.911
66.2988
155.83
56.7119
55.659
121.206
49.3163
69.4365
98.2372
66.3869
52.6655
48.6062
168.377
50.6584
44.5923
74.4608
66.1754
47.7892
76.5891
87.4677
50.4009
46.9569
60.6175
136.917
66.6153
81.9906
93.5576
71.3315
48.9636
50.5244
93.8333
42.7681
49.3995
132.77
275.374
133.132
101.283
98.9542
47.6546
93.4062
80.5313
618.576
46.1134
77.5589
70.71
47.7225
48.7619
41.9599
124.138
137.285
87.5982
72.8413
47.6694
48.5167
61.7021
149.45
150.921
124.018
55.1844
79.5203
48.8111
156.563
102.499
156.643
390.571
105.014
106.892
95.5065
80.3261
71.5724
49.0464
1236.62
281.342
41.9341
91.2577
48.5989
51.0981
61.4788
57.2077
71.6205
42.5006
70.363
104.511
42.2055
42.7508
41.9787
76.3707
41.8607
45.7766
65.3311
48.1559
378.849
50.4027
43.1172
51.012
81.309
43.9841
42.4465
43.2926
42.5631
45.9854
48.1084
50.9442
54.6789
79.0577
50.3526
63.4088
573.55
46.1339
79.7285
50.286
58.112
50.0622
42.5931
48.2516
42.154
787.223
380.489
51.7536
53.8141
72.8181
383.74
62.2951
400.471
458.315
83.7683
75.835
441.52
55.2093
73.1307
157.577
150.436
1408.38
779.366
499.804
272.347
638.591
739.303
773.51
199.323
1137.79
1672.49
454.942
794.73
698.154
91.1498
89.6542
89.6384
74.3589
54.828
63.9989
79.4204
80.7615
63.7867
66.9324
67.3254
694.88
503.878
612.302
393.62
378.305
564.482
467.088
444.159
525.119
1246.99
743.527
63.9218
59.0279
84.8303
248.678
557.62
389.552
203.094
176.795
73.8874
53.6259
69.3394
50.3783
61.8546
61.1773