/*--------------------------------*- C++ -*----------------------------------*\
| =========                 |                                                 |
| \\      /  F ield         | OpenFOAM: The Open Source CFD Toolbox           |
|  \\    /   O peration     | Version:  2506                                  |
|   \\  /    A nd           | Website:  www.openfoam.com                      |
|    \\/     M anipulation  |                                                 |
\*---------------------------------------------------------------------------*/
FoamFile
{
    version     2.0;
    format      ascii;
    arch        "LSB;label=32;scalar=64";
    class       volScalarField;
    location    "0.0100321";
    object      k;
}
// * * * * * * * * * * * * * * * * * * * * * * * * * * * * * * * * * * * * * //

dimensions      [0 2 -2 0 0 0 0];

internalField   nonuniform List<scalar> 
3919
(
0.378124
0.378968
0.375321
0.376219
0.375094
0.376575
0.379594
0.371373
0.381062
0.377081
0.377274
0.3904
0.380875
0.37226
0.384657
0.378599
0.377899
0.385567
0.397826
0.393202
0.385825
0.3792
0.382576
0.372696
0.383298
0.379552
0.380242
0.382792
0.386677
0.393033
0.37858
0.381143
0.368819
0.381385
0.388727
0.375663
0.385513
0.391924
0.37491
0.369329
0.377312
0.385316
0.377987
0.377518
0.377047
0.391186
0.375662
0.372866
0.380297
0.377615
0.371838
0.38939
0.374408
0.380464
0.389682
0.383219
0.38616
0.400589
0.375364
0.383751
0.385395
0.379185
0.378506
0.369934
0.374052
0.377327
0.378533
0.377013
0.379986
0.371741
0.376359
0.375014
0.372887
0.377745
0.39252
0.37773
0.373785
0.374669
0.379791
0.387189
0.374324
0.382106
0.370933
0.385216
0.378758
0.390754
0.392228
0.379868
0.386556
0.38487
0.383482
0.389843
0.392678
0.372522
0.384608
0.383911
0.381204
0.381744
0.376415
0.380054
0.374289
0.379835
0.390453
0.376529
0.375716
0.370418
0.384618
0.378742
0.375769
0.388986
0.377859
0.38555
0.380637
0.376231
0.379822
0.371629
0.376299
0.381414
0.384569
0.383586
0.376955
0.382069
0.386089
0.39208
0.374638
0.385828
0.378654
0.384148
0.382032
0.381853
0.373385
0.377209
0.37899
0.382601
0.384203
0.382128
0.385867
0.388719
0.388289
0.385675
0.399828
0.375586
0.375713
0.378112
0.380661
0.37094
0.396688
0.383241
0.396426
0.392646
0.387474
0.379419
0.373506
0.381179
0.37377
0.373836
0.373249
0.375688
0.384371
0.374501
0.37364
0.384947
0.393189
0.376681
0.378404
0.379369
0.390545
0.380321
0.376324
0.370086
0.388084
0.388066
0.371102
0.379625
0.397408
0.374131
0.376101
0.38655
0.379295
0.380913
0.395168
0.379248
0.371622
0.380776
0.383478
0.368539
0.39247
0.372664
0.379471
0.388888
0.374362
0.38687
0.382194
0.390574
0.374566
0.379744
0.371164
0.379054
0.377996
0.374208
0.371359
0.380975
0.376733
0.386734
0.377724
0.383706
0.374834
0.389271
0.369646
0.387496
0.397852
0.375381
0.372868
0.375711
0.374983
0.376155
0.376344
0.383359
0.377171
0.374479
0.377139
0.380456
0.383751
0.384442
0.373455
0.381754
0.386309
0.382436
0.378617
0.389468
0.378718
0.373161
0.382917
0.389402
0.37607
0.37908
0.371113
0.373716
0.378758
0.382975
0.402182
0.38651
0.375871
0.378174
0.391823
0.383329
0.369245
0.374569
0.38364
0.382909
0.374864
0.386421
0.377047
0.368815
0.382021
0.390879
0.375991
0.377805
0.372679
0.393435
0.382445
0.38343
0.400848
0.399403
0.36858
0.371488
0.370525
0.38876
0.375296
0.377689
0.37737
0.39448
0.395403
0.402407
0.390209
0.391437
0.375384
0.392291
0.385667
0.38352
0.377485
0.377947
0.389337
0.372819
0.3851
0.375175
0.385903
0.388392
0.381793
0.392113
0.376262
0.375227
0.384858
0.384548
0.388004
0.387417
0.377733
0.379861
0.37525
0.388081
0.382221
0.383137
0.385507
0.373307
0.372464
0.375562
0.381887
0.382767
0.370669
0.381265
0.372744
0.380399
0.375236
0.385607
0.380065
0.372123
0.384829
0.395857
0.37231
0.383526
0.380643
0.379309
0.378416
0.381481
0.383336
0.380071
0.385284
0.378466
0.382993
0.369156
0.379054
0.380502
0.387232
0.385455
0.377262
0.371283
0.379763
0.38101
0.385218
0.37971
0.388688
0.385378
0.389235
0.381261
0.384934
0.375497
0.39034
0.39162
0.382503
0.381129
0.382602
0.386331
0.382735
0.380746
0.383737
0.378376
0.378189
0.38121
0.388068
0.379989
0.374898
0.388411
0.386776
0.374196
0.387449
0.377159
0.37995
0.372675
0.377671
0.377938
0.378437
0.379527
0.386563
0.375493
0.378445
0.374835
0.373708
0.376765
0.373751
0.390631
0.386422
0.391843
0.382209
0.370153
0.379581
0.373929
0.374376
0.372016
0.387622
0.382759
0.376842
0.378388
0.385949
0.388447
0.381553
0.370466
0.392
0.382162
0.398285
0.378222
0.370286
0.393174
0.378944
0.378935
0.381574
0.380949
0.380746
0.390621
0.381286
0.388818
0.386849
0.37107
0.377568
0.372665
0.385269
0.380519
0.37283
0.384657
0.387394
0.371882
0.375481
0.392637
0.379903
0.393984
0.385325
0.380503
0.377233
0.378458
0.383975
0.376267
0.395997
0.386423
0.395939
0.380853
0.400131
0.384385
0.37721
0.382558
0.376826
0.402455
0.394816
0.37679
0.392483
0.394544
0.393232
0.375996
0.381696
0.375946
0.378762
0.378081
0.393827
0.381145
0.387794
0.370659
0.392995
0.389564
0.381389
0.386786
0.39594
0.395004
0.382861
0.40646
0.407078
0.377484
0.387531
0.391984
0.38057
0.373136
0.385356
0.376859
0.37401
0.383714
0.371041
0.395403
0.370438
0.380716
0.377548
0.392448
0.379969
0.391269
0.380736
0.379623
0.387605
0.385438
0.387761
0.38692
0.383184
0.382691
0.378858
0.377824
0.381525
0.382283
0.375751
0.375422
0.374162
0.376786
0.378392
0.378685
0.37529
0.388693
0.382977
0.384025
0.391463
0.397036
0.381424
0.386265
0.386769
0.380266
0.378726
0.379296
0.379275
0.37888
0.373013
0.383617
0.384061
0.392182
0.382655
0.38644
0.39031
0.385702
0.384228
0.378516
0.393933
0.373909
0.383266
0.376673
0.373337
0.391389
0.379713
0.38012
0.387063
0.40088
0.397417
0.369408
0.373395
0.380519
0.379389
0.385357
0.398742
0.386338
0.40647
0.383939
0.378482
0.384295
0.384017
0.387511
0.380771
0.378107
0.375089
0.382062
0.377177
0.382955
0.380432
0.373892
0.394333
0.400816
0.383456
0.379167
0.393894
0.394232
0.391551
0.378567
0.37685
0.370537
0.37761
0.38882
0.378162
0.387035
0.385599
0.390318
0.375563
0.374317
0.371709
0.386362
0.384341
0.378718
0.386512
0.382064
0.37951
0.389186
0.373955
0.385444
0.388416
0.377502
0.381313
0.37788
0.386149
0.375739
0.389562
0.376366
0.379251
0.379966
0.390345
0.369114
0.389973
0.39571
0.393544
0.394343
0.388918
0.398847
0.374127
0.380177
0.374512
0.391318
0.38546
0.374869
0.372362
0.387893
0.383055
0.381142
0.389388
0.379481
0.375976
0.381621
0.37787
0.385656
0.374921
0.388545
0.382637
0.373145
0.379139
0.384639
0.384521
0.37221
0.376556
0.372027
0.384117
0.379683
0.373521
0.37992
0.384151
0.376802
0.390612
0.376718
0.377284
0.380776
0.393083
0.381378
0.388475
0.398468
0.387578
0.377873
0.375189
0.383273
0.378313
0.392086
0.375408
0.38211
0.388762
0.372243
0.379464
0.3824
0.390868
0.381607
0.381466
0.374724
0.382978
0.386932
0.390639
0.382766
0.388228
0.396155
0.377384
0.389456
0.379588
0.381388
0.388222
0.387738
0.378034
0.376768
0.386547
0.371622
0.381728
0.389582
0.376683
0.37031
0.376581
0.369582
0.372588
0.376201
0.388965
0.382533
0.382929
0.387392
0.373051
0.37136
0.387196
0.379964
0.377689
0.380264
0.388477
0.376752
0.373618
0.384625
0.39701
0.367148
0.368948
0.377961
0.385882
0.393401
0.387941
0.382757
0.383549
0.377701
0.382994
0.384373
0.391387
0.374039
0.374492
0.388635
0.384686
0.387764
0.387652
0.375914
0.374311
0.379455
0.379854
0.383892
0.390675
0.389362
0.377911
0.373312
0.381956
0.378356
0.378559
0.385666
0.382501
0.385307
0.378383
0.398176
0.376592
0.374547
0.386495
0.381046
0.379106
0.374182
0.381617
0.381366
0.38233
0.388817
0.372656
0.37636
0.374372
0.383111
0.372722
0.380881
0.386901
0.384198
0.382354
0.375833
0.3683
0.389701
0.388588
0.379557
0.373794
0.376125
0.391168
0.377979
0.379265
0.386076
0.38747
0.377187
0.39066
0.38263
0.381853
0.381927
0.37864
0.387185
0.377653
0.375863
0.376742
0.377516
0.377266
0.380989
0.384892
0.379237
0.380095
0.377296
0.388415
0.38451
0.385452
0.379004
0.382548
0.38773
0.374086
0.386297
0.379036
0.374294
0.386349
0.401816
0.383144
0.377948
0.391781
0.378861
0.373878
0.378994
0.384104
0.381821
0.386828
0.391071
0.381492
0.372079
0.395673
0.389317
0.383882
0.390477
0.382991
0.384459
0.385651
0.371405
0.391218
0.373199
0.376125
0.369183
0.386292
0.39984
0.384382
0.371005
0.377964
0.380249
0.38849
0.384865
0.373531
0.387365
0.379213
0.38667
0.383701
0.376592
0.375064
0.381972
0.381966
0.371337
0.393278
0.387023
0.380123
0.383065
0.37842
0.374339
0.381867
0.388358
0.373865
0.37989
0.379589
0.386221
0.376701
0.391117
0.387278
0.383806
0.373168
0.394687
0.382571
0.385948
0.370857
0.375462
0.392267
0.386403
0.385202
0.391237
0.380224
0.383255
0.378479
0.390562
0.382519
0.388895
0.375693
0.375698
0.386595
0.378739
0.385649
0.390302
0.379953
0.38514
0.385079
0.378174
0.372894
0.369531
0.376949
0.37292
0.379143
0.372785
0.372253
0.375251
0.37653
0.382451
0.376669
0.389364
0.384192
0.372549
0.37691
0.384892
0.383067
0.389273
0.381652
0.380445
0.387473
0.379857
0.382844
0.377557
0.387832
0.372626
0.374947
0.396587
0.379823
0.381354
0.376448
0.372129
0.376343
0.370808
0.373125
0.382791
0.378043
0.371346
0.377883
0.384238
0.384396
0.391396
0.378924
0.388705
0.377841
0.375132
0.376922
0.377109
0.388334
0.382257
0.380991
0.380458
0.388877
0.383685
0.384823
0.376146
0.382709
0.38863
0.387714
0.387564
0.392904
0.378069
0.37849
0.37619
0.390137
0.383205
0.381084
0.388532
0.37833
0.369048
0.381193
0.391925
0.388469
0.384951
0.371128
0.369556
0.38986
0.378484
0.395513
0.39376
0.382376
0.373248
0.384633
0.379077
0.387844
0.373493
0.375195
0.381031
0.38582
0.372883
0.374199
0.380513
0.388227
0.38506
0.381372
0.385622
0.375034
0.392615
0.38656
0.376778
0.382571
0.370166
0.386504
0.379623
0.389091
0.372167
0.378154
0.383222
0.374833
0.378236
0.374839
0.392603
0.37996
0.384493
0.381603
0.377318
0.375861
0.379853
0.388126
0.373754
0.380257
0.396164
0.38273
0.373752
0.371444
0.375832
0.378038
0.369399
0.381409
0.381861
0.378031
0.373902
0.374407
0.384411
0.380138
0.37316
0.385152
0.376052
0.390858
0.377861
0.374331
0.388201
0.37245
0.374677
0.372347
0.378854
0.372134
0.372686
0.383525
0.390219
0.383316
0.387206
0.392973
0.380028
0.385327
0.377951
0.390627
0.385739
0.384143
0.38028
0.368726
0.381098
0.372701
0.386324
0.385195
0.395214
0.37034
0.382698
0.373328
0.37228
0.379277
0.376232
0.386333
0.375259
0.388209
0.375456
0.376701
0.376857
0.37336
0.375323
0.389694
0.369328
0.375356
0.374282
0.38713
0.388528
0.388995
0.389455
0.373459
0.370303
0.376399
0.373868
0.373177
0.379503
0.393452
0.386176
0.382916
0.390165
0.393083
0.379259
0.370997
0.373708
0.370979
0.370439
0.378367
0.37963
0.389725
0.381185
0.371777
0.375072
0.379126
0.382369
0.391356
0.377183
0.373422
0.388784
0.375156
0.37707
0.384128
0.373477
0.376792
0.370108
0.376861
0.374094
0.368686
0.375099
0.370637
0.378249
0.373563
0.37656
0.384316
0.382867
0.394492
0.388424
0.38706
0.394192
0.379321
0.374977
0.370684
0.376914
0.370378
0.385135
0.377674
0.382206
0.383274
0.380898
0.382328
0.396166
0.382275
0.381111
0.384101
0.385892
0.373347
0.383282
0.374747
0.390705
0.386074
0.374204
0.382769
0.378315
0.386002
0.370376
0.381645
0.387086
0.373571
0.383869
0.393551
0.380265
0.369205
0.383088
0.386044
0.392101
0.384636
0.389117
0.375856
0.381325
0.385627
0.395742
0.378197
0.370473
0.377652
0.379797
0.379834
0.393806
0.371785
0.37648
0.375486
0.372529
0.376669
0.37516
0.384244
0.370675
0.386354
0.374582
0.37402
0.384029
0.388816
0.382354
0.374189
0.380595
0.373445
0.377451
0.384175
0.393589
0.375553
0.388829
0.389039
0.37793
0.389902
0.381056
0.369135
0.375086
0.380073
0.382478
0.385833
0.38246
0.382445
0.368297
0.386632
0.389155
0.381323
0.377823
0.375328
0.388915
0.372127
0.37619
0.372601
0.409693
0.377511
0.379312
0.39616
0.377887
0.394519
0.372126
0.389013
0.381396
0.374294
0.382018
0.377715
0.376363
0.381473
0.379806
0.387529
0.387235
0.38102
0.370579
0.38096
0.380451
0.396649
0.374074
0.380687
0.393412
0.374794
0.375629
0.38186
0.381905
0.376333
0.381242
0.379482
0.378313
0.380486
0.366949
0.373017
0.376468
0.387034
0.381699
0.376287
0.377364
0.3868
0.368991
0.376201
0.38138
0.376188
0.38859
0.384772
0.37504
0.391817
0.383166
0.376221
0.382623
0.374986
0.386637
0.380765
0.383911
0.379918
0.388035
0.392353
0.383337
0.383018
0.378821
0.400504
0.395188
0.392934
0.396136
0.373229
0.376324
0.381387
0.392321
0.38894
0.380631
0.374097
0.367163
0.387586
0.378056
0.376626
0.37995
0.377195
0.381675
0.374598
0.370356
0.371797
0.374137
0.371172
0.394638
0.378942
0.384148
0.39221
0.383958
0.376257
0.378487
0.379477
0.379188
0.379831
0.373276
0.387393
0.37806
0.378617
0.384224
0.36813
0.379552
0.38255
0.375992
0.388647
0.386842
0.381266
0.371178
0.37901
0.401394
0.369265
0.37569
0.372018
0.380554
0.391093
0.383996
0.380876
0.38078
0.373857
0.376011
0.374841
0.371905
0.37414
0.38857
0.388828
0.383793
0.380608
0.381903
0.377032
0.385075
0.393569
0.38228
0.38127
0.387821
0.382554
0.388998
0.393044
0.376713
0.371148
0.388686
0.382634
0.384137
0.382811
0.369351
0.389314
0.384982
0.393634
0.386389
0.376952
0.383603
0.373814
0.382908
0.377411
0.374387
0.41235
0.383051
0.377208
0.394305
0.387106
0.369845
0.372174
0.375768
0.369678
0.386583
0.388533
0.384999
0.373907
0.376696
0.383064
0.377709
0.375968
0.3759
0.375682
0.375498
0.388789
0.38429
0.382764
0.382208
0.378904
0.369343
0.374905
0.375355
0.376159
0.374581
0.384525
0.374373
0.374357
0.378492
0.376448
0.399041
0.382929
0.374054
0.384791
0.367628
0.385021
0.373888
0.384448
0.378377
0.377678
0.381718
0.373728
0.375297
0.387656
0.376032
0.377776
0.377989
0.380721
0.384812
0.38348
0.373944
0.377738
0.379085
0.386838
0.394271
0.397886
0.392649
0.378853
0.371783
0.378948
0.399062
0.3887
0.377363
0.390713
0.380491
0.3855
0.385369
0.378342
0.374858
0.386607
0.389224
0.385309
0.372754
0.383517
0.379306
0.383488
0.378903
0.378655
0.387639
0.385318
0.386498
0.378476
0.371298
0.380166
0.381283
0.381263
0.390013
0.391202
0.376316
0.382058
0.390859
0.374627
0.383494
0.374544
0.371961
0.37885
0.378999
0.377463
0.38476
0.384504
0.389929
0.386889
0.388637
0.371127
0.386109
0.396295
0.376762
0.384868
0.383123
0.386538
0.390237
0.381492
0.384819
0.381675
0.387027
0.390556
0.379299
0.374206
0.391752
0.385072
0.375457
0.381798
0.39809
0.383963
0.375464
0.388374
0.378532
0.379635
0.376637
0.391288
0.376875
0.375208
0.378148
0.387308
0.378735
0.382495
0.377605
0.370978
0.385949
0.395606
0.368734
0.387579
0.384684
0.386684
0.372547
0.379916
0.386002
0.390462
0.375861
0.383595
0.375532
0.383464
0.390974
0.375485
0.383538
0.382798
0.384522
0.380545
0.378633
0.379614
0.378619
0.370602
0.379322
0.387123
0.378115
0.373469
0.384682
0.386987
0.396512
0.379771
0.38088
0.382931
0.382316
0.381047
0.380886
0.386496
0.375809
0.396781
0.378241
0.386558
0.378855
0.373729
0.383832
0.381648
0.387089
0.37804
0.373704
0.37762
0.38365
0.381311
0.372739
0.378641
0.376677
0.381054
0.371162
0.374114
0.384
0.39046
0.390013
0.373618
0.397296
0.36928
0.384046
0.384206
0.391101
0.379907
0.383705
0.380246
0.391603
0.378333
0.377464
0.372766
0.374486
0.377226
0.385141
0.383939
0.372413
0.39839
0.368639
0.384317
0.370429
0.38005
0.382688
0.383113
0.387232
0.386529
0.383103
0.389372
0.375325
0.37725
0.385377
0.375665
0.380674
0.381233
0.390081
0.381211
0.388813
0.390634
0.371358
0.376556
0.375933
0.377601
0.375614
0.372849
0.378181
0.384612
0.378517
0.386654
0.377775
0.381638
0.373151
0.377344
0.385649
0.377832
0.372392
0.378221
0.374644
0.375058
0.379165
0.38369
0.392861
0.390634
0.383102
0.372919
0.388965
0.382455
0.378593
0.373036
0.387084
0.371983
0.387452
0.383705
0.388439
0.379682
0.373606
0.385572
0.381888
0.381989
0.380192
0.378317
0.386174
0.391354
0.372267
0.374978
0.373827
0.382918
0.393606
0.375011
0.375207
0.393393
0.386955
0.379728
0.380055
0.375436
0.385869
0.380355
0.388916
0.378503
0.377661
0.370135
0.397495
0.386688
0.375444
0.378241
0.391698
0.394099
0.380608
0.38936
0.379286
0.380586
0.38615
0.389013
0.399892
0.38329
0.372099
0.39349
0.370776
0.372485
0.382324
0.380125
0.389364
0.374116
0.39273
0.392109
0.393094
0.383629
0.390299
0.39424
0.376666
0.382188
0.381035
0.379158
0.374305
0.374709
0.394102
0.375647
0.397825
0.390171
0.373506
0.392189
0.381154
0.375692
0.389726
0.389083
0.386779
0.385131
0.369565
0.392337
0.39132
0.376199
0.37554
0.383715
0.374075
0.376753
0.382982
0.388753
0.382927
0.375891
0.37943
0.38332
0.379094
0.385575
0.37556
0.377151
0.381958
0.37668
0.374399
0.379032
0.385092
0.382474
0.369927
0.378135
0.377889
0.391766
0.387413
0.389439
0.376058
0.379868
0.3733
0.390901
0.373994
0.379983
0.382239
0.386228
0.387196
0.378629
0.37752
0.386216
0.380842
0.383515
0.379954
0.401929
0.386649
0.387507
0.383108
0.380475
0.382468
0.388622
0.379881
0.383319
0.370131
0.381015
0.376178
0.377976
0.396094
0.390445
0.388453
0.37541
0.391366
0.379517
0.398225
0.402498
0.398876
0.380928
0.388907
0.390778
0.375133
0.371283
0.380312
0.37245
0.377175
0.384264
0.378181
0.381867
0.377706
0.378307
0.379878
0.378043
0.380827
0.381744
0.382417
0.373776
0.376837
0.374831
0.38937
0.397054
0.395748
0.369917
0.380637
0.374228
0.37035
0.368055
0.370968
0.374007
0.380391
0.372611
0.371428
0.376717
0.380268
0.371141
0.370576
0.376324
0.373681
0.37762
0.371118
0.37439
0.375977
0.369155
0.372819
0.374327
0.378737
0.374736
0.374578
0.377007
0.382698
0.375883
0.384392
0.406091
0.405759
0.376773
0.372047
0.378429
0.383818
0.383052
0.378044
0.378551
0.37697
0.392639
0.379609
0.377905
0.396989
0.382041
0.384669
0.388273
0.380297
0.382633
0.390631
0.378069
0.376561
0.374243
0.379042
0.381923
0.379927
0.372928
0.374229
0.383999
0.382494
0.388464
0.373904
0.383218
0.389368
0.387838
0.383475
0.387899
0.380287
0.392896
0.391488
0.389328
0.404675
0.378293
0.391317
0.383199
0.38604
0.392492
0.371103
0.390664
0.37289
0.377217
0.382439
0.379604
0.391388
0.380819
0.373453
0.380373
0.372637
0.38474
0.386449
0.386545
0.381141
0.385422
0.375427
0.376385
0.38597
0.379191
0.375529
0.385603
0.381438
0.373175
0.372814
0.388782
0.384704
0.380419
0.38508
0.373963
0.371571
0.385564
0.37165
0.378334
0.383607
0.385343
0.375773
0.383907
0.378738
0.398568
0.389408
0.390111
0.375595
0.380888
0.379605
0.373154
0.379971
0.372464
0.389461
0.380618
0.379722
0.380104
0.373815
0.388562
0.380516
0.380095
0.392978
0.369027
0.373067
0.37968
0.377921
0.374991
0.377034
0.377274
0.387644
0.390342
0.372346
0.386039
0.390988
0.382568
0.381442
0.380691
0.378966
0.3905
0.376375
0.380277
0.403896
0.37524
0.382533
0.372765
0.396931
0.393821
0.37184
0.383259
0.376923
0.385776
0.378415
0.372748
0.376489
0.384828
0.381632
0.378523
0.388614
0.389315
0.376706
0.387486
0.371337
0.371996
0.386105
0.379495
0.390051
0.374496
0.381362
0.37802
0.388472
0.383056
0.384324
0.382296
0.381361
0.386475
0.38749
0.388294
0.36989
0.373869
0.377288
0.378741
0.39623
0.391647
0.383221
0.39155
0.382933
0.376314
0.374275
0.400039
0.386279
0.39646
0.38443
0.38099
0.377613
0.390939
0.386241
0.391414
0.379814
0.383704
0.367037
0.374978
0.395724
0.379795
0.392475
0.373697
0.385187
0.376731
0.380149
0.388026
0.385981
0.374231
0.384014
0.388617
0.379394
0.379774
0.371813
0.374847
0.382441
0.389612
0.377575
0.374947
0.383287
0.388895
0.386876
0.383987
0.375888
0.382912
0.382258
0.384606
0.373638
0.389683
0.387028
0.387007
0.388761
0.38108
0.375418
0.372601
0.380604
0.389685
0.394358
0.389214
0.393259
0.377469
0.390713
0.38235
0.391651
0.373932
0.378331
0.390823
0.380397
0.379703
0.375085
0.375553
0.381211
0.38553
0.380839
0.388027
0.38656
0.385738
0.391651
0.388953
0.376304
0.383912
0.392503
0.373817
0.378563
0.38558
0.3775
0.377747
0.396184
0.387038
0.369802
0.385224
0.37407
0.39106
0.379897
0.39341
0.386546
0.386198
0.371258
0.37781
0.380185
0.392169
0.374961
0.381523
0.391861
0.377626
0.396368
0.37929
0.37425
0.370287
0.369198
0.375145
0.372827
0.376385
0.374493
0.378875
0.373301
0.378525
0.388429
0.376744
0.377312
0.383558
0.387008
0.376034
0.37671
0.374853
0.381641
0.380985
0.371377
0.3782
0.377001
0.401179
0.379867
0.378421
0.388771
0.390731
0.373755
0.385666
0.391433
0.376454
0.378993
0.375059
0.376957
0.372197
0.383378
0.381053
0.390238
0.391843
0.3914
0.386478
0.376817
0.387361
0.384397
0.37347
0.382946
0.372832
0.394331
0.378891
0.390147
0.379492
0.375703
0.397929
0.385454
0.389652
0.384418
0.390912
0.383303
0.390477
0.379374
0.378676
0.382979
0.389135
0.391783
0.403646
0.386361
0.373085
0.37568
0.376508
0.373156
0.38428
0.375621
0.378485
0.385015
0.38837
0.380608
0.375346
0.386233
0.385153
0.372264
0.385231
0.385006
0.371539
0.371926
0.378755
0.38698
0.379157
0.376075
0.375021
0.375484
0.399817
0.388359
0.379982
0.372845
0.388134
0.388898
0.38762
0.387364
0.376547
0.377082
0.375323
0.381583
0.377451
0.383024
0.368375
0.381164
0.374442
0.386062
0.375786
0.37693
0.389624
0.371464
0.39729
0.389618
0.373409
0.378156
0.376084
0.381378
0.385448
0.383333
0.375156
0.378425
0.36906
0.376896
0.375332
0.376524
0.373264
0.391896
0.382786
0.385679
0.375198
0.377521
0.372342
0.378668
0.389483
0.370522
0.38131
0.382753
0.377438
0.384834
0.387278
0.378974
0.389485
0.393625
0.382366
0.373257
0.381253
0.374095
0.386533
0.37796
0.380519
0.386432
0.37251
0.391466
0.380851
0.387245
0.37969
0.373629
0.380815
0.372515
0.378137
0.381345
0.377602
0.386934
0.40145
0.385766
0.390073
0.37586
0.371519
0.371692
0.376979
0.378686
0.372199
0.37344
0.379666
0.377619
0.395372
0.37231
0.400519
0.377711
0.385252
0.378483
0.382888
0.386142
0.367704
0.373196
0.373275
0.381447
0.382653
0.386677
0.383524
0.390315
0.380116
0.38
0.378594
0.368646
0.373103
0.380537
0.373397
0.376132
0.375553
0.387145
0.381063
0.377301
0.381467
0.378566
0.378046
0.389655
0.37479
0.384193
0.373772
0.381084
0.381018
0.378267
0.381224
0.383048
0.373959
0.376874
0.379593
0.380045
0.380005
0.391195
0.384732
0.37614
0.378931
0.37745
0.382122
0.382794
0.37115
0.378293
0.386195
0.388112
0.393683
0.382196
0.3869
0.371451
0.38891
0.393878
0.374926
0.390818
0.375729
0.383065
0.389893
0.384931
0.37556
0.382519
0.367564
0.375213
0.374772
0.37207
0.376313
0.381477
0.374971
0.374788
0.377315
0.368608
0.37981
0.382422
0.371805
0.391717
0.372522
0.372974
0.380754
0.392697
0.373495
0.38371
0.375168
0.376693
0.375178
0.387849
0.391692
0.373243
0.388717
0.380215
0.383704
0.385499
0.382037
0.37326
0.389383
0.384261
0.372959
0.377632
0.373638
0.388085
0.37419
0.37478
0.371493
0.373725
0.390098
0.369152
0.383856
0.383012
0.377102
0.386704
0.370581
0.3773
0.385881
0.385017
0.375081
0.376729
0.383924
0.37575
0.379537
0.385827
0.376708
0.39045
0.377639
0.390718
0.379914
0.373882
0.386708
0.382938
0.381849
0.375195
0.383023
0.375546
0.382314
0.377822
0.386093
0.3807
0.38696
0.376415
0.380301
0.386483
0.393652
0.384064
0.377232
0.388114
0.382609
0.379528
0.373066
0.381885
0.383623
0.381833
0.385177
0.381709
0.371934
0.379906
0.37371
0.386848
0.375939
0.387995
0.380412
0.381877
0.378475
0.378447
0.382397
0.374506
0.375254
0.376854
0.380843
0.384457
0.383922
0.374961
0.378018
0.379078
0.386003
0.370741
0.37788
0.38732
0.376906
0.375342
0.377783
0.379919
0.376901
0.389968
0.391049
0.390005
0.38537
0.377485
0.38727
0.392675
0.372532
0.384169
0.39118
0.380176
0.374251
0.384
0.377493
0.393229
0.389951
0.376955
0.372182
0.385176
0.386388
0.374586
0.385232
0.385444
0.387758
0.376979
0.378672
0.37963
0.392583
0.3836
0.387981
0.377488
0.37657
0.379638
0.374411
0.380041
0.379332
0.374906
0.376402
0.371061
0.386291
0.372828
0.382039
0.378433
0.387116
0.391485
0.369386
0.389995
0.389531
0.377948
0.378401
0.377594
0.381707
0.389448
0.379977
0.378928
0.387482
0.376278
0.377196
0.368327
0.391623
0.374385
0.385382
0.376404
0.374591
0.379856
0.381642
0.388679
0.373346
0.383221
0.380617
0.392185
0.394914
0.381936
0.374313
0.382576
0.388566
0.379098
0.37256
0.383583
0.379233
0.381533
0.377436
0.380824
0.372634
0.379769
0.392134
0.387187
0.38705
0.374906
0.385981
0.393439
0.38792
0.3815
0.373541
0.376268
0.379528
0.373231
0.370582
0.375557
0.388088
0.381097
0.373561
0.38743
0.37371
0.37883
0.385067
0.381484
0.37972
0.393094
0.386189
0.384436
0.375881
0.388705
0.381265
0.393482
0.412207
0.375112
0.390419
0.384573
0.391414
0.385829
0.37341
0.385959
0.377098
0.386162
0.394142
0.39243
0.376182
0.377366
0.375734
0.385107
0.379503
0.384485
0.371303
0.385901
0.378254
0.396507
0.39629
0.377769
0.385701
0.384864
0.385019
0.386561
0.397117
0.385083
0.389235
0.382053
0.387164
0.381266
0.371076
0.378846
0.377397
0.381252
0.374819
0.370937
0.380309
0.374803
0.380788
0.371061
0.383332
0.390924
0.388738
0.389972
0.375787
0.384476
0.365276
0.377408
0.377062
0.372073
0.375675
0.373309
0.381033
0.385725
0.38388
0.376158
0.383096
0.376409
0.381133
0.384324
0.375613
0.382618
0.389945
0.377353
0.384762
0.389921
0.384089
0.379827
0.379254
0.374158
0.383243
0.38714
0.372684
0.369859
0.375246
0.383655
0.377065
0.392598
0.380375
0.373614
0.374126
0.371876
0.391649
0.379222
0.374784
0.378607
0.380886
0.386783
0.378383
0.387443
0.367
0.389505
0.377908
0.375575
0.376985
0.377919
0.382353
0.379385
0.382772
0.389309
0.380757
0.388163
0.376189
0.389961
0.382013
0.376945
0.373556
0.381617
0.374812
0.373989
0.375094
0.378099
0.383576
0.372848
0.38743
0.371588
0.387438
0.390253
0.374788
0.38888
0.385274
0.373893
0.380127
0.377104
0.378898
0.379659
0.393066
0.381635
0.402285
0.386885
0.379327
0.386183
0.389592
0.387184
0.382541
0.386229
0.382188
0.384566
0.375902
0.372748
0.375071
0.386103
0.372195
0.379223
0.388144
0.377833
0.382433
0.39115
0.382052
0.404877
0.384564
0.378929
0.375893
0.377091
0.377605
0.375967
0.374224
0.364118
0.373027
0.383865
0.374029
0.378071
0.374769
0.368524
0.387782
0.372483
0.372936
0.373592
0.377652
0.383034
0.368638
0.379266
0.3903
0.381062
0.377811
0.380435
0.392891
0.373587
0.37396
0.394381
0.38556
0.387382
0.375579
0.373583
0.385766
0.381589
0.382202
0.371259
0.374034
0.374758
0.37748
0.385721
0.372858
0.375759
0.375517
0.37971
0.393872
0.374851
0.37391
0.379926
0.382608
0.373146
0.391434
0.378214
0.377302
0.377789
0.383671
0.389434
0.383113
0.389025
0.377008
0.382113
0.380066
0.388786
0.388376
0.375394
0.389411
0.371381
0.386304
0.385669
0.401141
0.378321
0.379695
0.381434
0.382868
0.38059
0.379414
0.38717
0.380768
0.382073
0.391377
0.38342
0.37502
0.373201
0.389226
0.368188
0.377126
0.382255
0.386575
0.383106
0.37484
0.385893
0.37997
0.378354
0.379716
0.386107
0.380854
0.374976
0.374174
0.378296
0.38929
0.389771
0.381314
0.373463
0.391967
0.38788
0.369083
0.368432
0.379146
0.379328
0.388126
0.375531
0.385677
0.380467
0.391366
0.384482
0.378583
0.376877
0.3778
0.390759
0.373207
0.373336
0.393546
0.383511
0.385373
0.383228
0.382742
0.3773
0.376972
0.373466
0.371317
0.374074
0.374103
0.37625
0.370922
0.377037
0.385164
0.372651
0.383956
0.378224
0.383298
0.370195
0.371215
0.379657
0.372008
0.369955
0.385437
0.378051
0.382531
0.382581
0.388318
0.393194
0.368257
0.382995
0.384095
0.378173
0.375786
0.37099
0.393294
0.378176
0.378675
0.387919
0.379896
0.373109
0.379012
0.393524
0.384517
0.375391
0.372244
0.383902
0.380367
0.384874
0.367896
0.371248
0.379212
0.382573
0.384921
0.382784
0.38594
0.378325
0.379861
0.390988
0.385439
0.383817
0.396452
0.374582
0.375221
0.391308
0.385758
0.379849
0.376311
0.376809
0.38427
0.374802
0.384864
0.385544
0.386328
0.382588
0.392541
0.373916
0.383056
0.382504
0.392979
0.38358
0.392712
0.390203
0.375471
0.377308
0.386415
0.38872
0.392854
0.388709
0.388886
0.38222
0.385448
0.379996
0.376776
0.374136
0.380036
0.375754
0.381432
0.387366
0.372573
0.379685
0.385661
0.377209
0.383315
0.385822
0.383662
0.378743
0.384614
0.376351
0.372252
0.378607
0.388958
0.377717
0.389065
0.375174
0.373812
0.381036
0.37371
0.386822
0.390105
0.376539
0.373269
0.374445
0.373671
0.37323
0.373459
0.37665
0.381152
0.381601
0.381408
0.385329
0.37742
0.375737
0.382007
0.368642
0.377174
0.377934
0.380645
0.386058
0.375444
0.376827
0.387282
0.392802
0.38485
0.382596
0.373858
0.38154
0.375157
0.380202
0.390704
0.376783
0.381919
0.378397
0.379905
0.376899
0.380039
0.377917
0.376676
0.386312
0.379318
0.393306
0.377422
0.384274
0.37349
0.381963
0.39222
0.380232
0.383997
0.378125
0.380819
0.371532
0.380343
0.385272
0.375515
0.384355
0.389743
0.382366
0.391084
0.393326
0.376918
0.393784
0.382045
0.378507
0.378636
0.384094
0.371783
0.383575
0.372052
0.38553
0.36972
0.381549
0.374583
0.378014
0.379955
0.378402
0.390398
0.381472
0.374074
0.377106
0.387595
0.380555
0.381754
0.393181
0.384109
0.384877
0.384387
0.385265
0.376998
0.374407
0.371811
0.3745
0.387767
0.403419
0.386632
0.40181
0.380893
0.390571
0.3858
0.37434
0.382523
0.378866
0.381994
0.384774
0.386326
0.37932
0.3805
0.383972
0.390069
0.383401
0.370054
0.381165
0.385901
0.391029
0.380664
0.37995
0.374151
0.378212
0.379475
0.392134
0.372845
0.369884
0.393743
0.381132
0.391936
0.375012
0.39201
0.38638
0.38286
0.388188
0.380094
0.379071
0.379007
0.388277
0.383763
0.386073
0.386136
0.372304
0.371379
0.384184
0.388831
0.378994
0.373997
0.387863
0.379965
0.377785
0.380342
0.382516
0.377643
0.369757
0.373456
0.370354
0.379006
0.378207
0.3772
0.375912
0.376399
0.382218
0.382539
0.375967
0.386933
0.367193
0.380158
0.375009
0.385231
0.383492
0.380868
0.375656
0.380462
0.383534
0.384838
0.385799
0.386247
0.394154
0.375335
0.371097
0.381262
0.379914
0.379161
0.375068
0.38178
0.384482
0.38533
0.37648
0.375655
0.374465
0.376973
0.396134
0.378629
0.383022
0.372427
0.385614
0.374856
0.383441
0.390512
0.370773
0.378768
0.371807
0.384164
0.389807
0.381994
0.37166
0.373851
0.378908
0.373698
0.375104
0.381615
0.382995
0.38872
0.390097
0.383963
0.389624
0.381269
0.385049
0.383815
0.371142
0.381492
0.377267
0.376161
0.377907
0.382451
0.381373
0.376956
0.383112
0.380502
0.388034
0.388196
0.377111
0.376536
0.375356
0.37248
0.373443
0.372689
0.387353
0.374796
0.390215
0.391028
0.382964
0.379651
0.369646
0.376336
0.374898
0.380183
0.373819
0.379589
0.38663
0.373158
0.386833
0.378974
0.370712
0.389067
0.385805
0.386929
0.390718
0.378209
0.390299
0.373442
0.370652
0.375476
0.381638
0.371779
0.369743
0.372831
0.390947
0.39308
0.379149
0.374729
0.375079
0.369853
0.38858
0.379895
0.375788
0.384042
0.376618
0.385713
0.373067
0.382658
0.387848
0.379889
0.37805
0.386479
0.385154
0.372769
0.38679
0.375297
0.368074
0.365116
0.37449
0.367883
0.371959
0.376565
0.375017
0.382273
0.378909
0.389216
0.391873
0.375161