/*--------------------------------*- C++ -*----------------------------------*\
| =========                 |                                                 |
| \\      /  F ield         | OpenFOAM: The Open Source CFD Toolbox           |
|  \\    /   O peration     | Version:  2506                                  |
|   \\  /    A nd           | Website:  www.openfoam.com                      |
|    \\/     M anipulation  |                                                 |
\*---------------------------------------------------------------------------*/
FoamFile
{
    version     2.0;
    format      ascii;
    arch        "LSB;label=32;scalar=64";
    class       volScalarField;
    location    "0.0100321";
    object      k;
}
// * * * * * * * * * * * * * * * * * * * * * * * * * * * * * * * * * * * * * //

dimensions      [0 2 -2 0 0 0 0];

internalField   nonuniform List<scalar> 
47425
(
0.372123
0.386396
0.378124
0.374376
0.410959
0.378968
0.401366
0.375321
0.377517
0.572067
0.376219
0.385853
0.390765
0.375094
0.384896
0.379374
0.376575
0.403344
0.726985
0.468298
0.377794
0.375614
0.379594
0.371373
0.382763
0.381062
0.377081
0.687989
0.377274
0.3904
0.399959
0.377365
0.393746
0.380875
0.37226
0.384657
0.377249
0.392805
0.395258
0.371617
0.387024
0.371014
0.377933
0.386391
0.793932
0.391525
0.378599
0.385273
0.389021
0.377899
0.578984
0.391296
0.385567
0.595638
0.389696
0.378423
0.375601
0.397826
0.421062
0.393202
0.600135
0.842125
0.659677
0.388589
0.379108
0.382974
0.380665
0.377723
0.648315
0.400612
0.378205
0.385825
0.38083
0.384382
0.65236
0.378278
0.677941
0.3792
0.687435
0.422296
0.661199
0.381301
0.383707
0.389842
0.377644
0.376332
0.375605
0.368235
0.391832
0.459992
0.379391
0.374859
0.382576
0.383866
0.388316
0.380124
0.372696
0.37207
0.388038
0.383142
0.370773
0.450797
0.380117
0.467674
0.376297
0.388567
0.379563
0.368748
0.369097
0.391921
0.530703
0.370269
0.379945
0.376061
0.38261
0.639296
0.382043
0.556838
0.393742
0.380684
0.370773
0.385439
0.379643
0.394503
0.39172
0.382088
0.373165
0.376388
0.375855
0.383298
0.384324
0.383613
0.496757
0.384548
0.382703
0.400653
0.384141
0.380147
0.387321
0.372009
0.383189
0.388596
0.377592
0.381797
0.380552
0.380005
0.393553
0.372513
0.377156
0.382517
0.381835
0.635423
0.38631
0.647768
0.389872
0.37983
0.395365
0.708487
0.390517
0.379552
0.379009
0.380242
0.382792
0.380002
0.524348
0.654838
0.378546
0.658091
0.386677
0.683743
0.660381
0.393033
0.384579
0.385065
0.388471
0.42516
0.646287
0.37858
0.381143
0.368819
0.630733
0.376726
0.381385
0.388727
0.375663
0.380374
0.379917
0.445945
0.385513
0.377698
0.393969
0.391924
0.413593
0.385338
0.37491
0.378522
0.387753
0.369329
0.378341
0.374947
0.377312
0.391556
0.374452
0.377011
0.39439
0.3798
0.385316
0.377772
0.379357
0.395447
0.383549
0.382194
0.393162
0.386768
0.378251
0.382968
0.390204
0.399459
0.39344
0.388494
0.450408
0.382226
0.380581
0.389722
0.399725
0.443205
0.377987
0.388372
0.386263
0.399804
0.388651
0.377518
0.386449
0.3746
0.377047
0.368917
0.430482
0.391186
0.425666
0.375662
0.372866
0.380297
0.377615
0.384594
0.379012
0.401312
0.369732
0.411582
0.371838
0.38939
0.374408
0.422594
0.380464
0.381855
0.389682
0.383219
0.382038
0.38616
0.370244
0.392343
0.400589
0.403185
0.393168
0.382247
0.387068
0.387561
0.375364
0.386702
0.383751
0.385023
0.395727
0.416086
0.415506
0.388222
0.408343
0.38389
0.410724
0.493175
0.407445
0.531714
0.589207
0.373523
0.579039
0.385395
0.379185
0.382035
0.378506
0.369934
0.385949
0.38385
0.567625
0.398356
0.37574
0.374052
0.377327
0.384013
0.379649
0.388682
0.371377
0.391476
0.388206
0.378533
0.377013
0.379986
0.67108
0.69433
0.621891
0.371741
0.376359
0.386125
0.370253
0.572306
0.375014
0.372887
0.464539
0.383196
0.377745
0.39252
0.37773
0.539668
0.456769
0.383815
0.376866
0.373785
0.386949
0.374669
0.388842
0.376963
0.379791
0.387189
0.381292
0.619419
0.387483
0.374324
0.395902
0.382106
0.616097
0.376696
0.370933
0.385216
0.394319
0.393088
0.374732
0.37359
0.378758
0.390754
0.392228
0.383509
0.379868
0.386556
0.390867
0.387777
0.374691
0.385534
0.386342
0.398813
0.38487
0.380396
0.398717
0.381317
0.415946
0.381803
0.390851
0.383482
0.382377
0.380429
0.389843
0.393866
0.373248
0.386739
0.392678
0.464001
0.367851
0.377174
0.386508
0.376791
0.379184
0.388941
0.391573
0.379113
0.391416
0.380184
0.372522
0.375042
0.378492
0.377296
0.384608
0.376911
0.393226
0.383911
0.383341
0.385435
0.381204
0.387295
0.381744
0.382419
0.371565
0.376415
0.409455
0.380054
0.489839
0.374289
0.543616
0.379835
0.394438
0.390453
0.376529
0.375716
0.370418
0.384618
0.384783
0.921569
0.601192
0.39347
0.393881
0.384563
0.385567
0.378742
0.375769
0.388986
0.377859
0.38555
0.379727
0.375192
0.380637
0.376231
0.401971
0.38228
0.378992
0.497363
0.372024
0.38545
0.580591
0.37282
0.384724
0.389697
0.544068
0.379822
0.381993
0.384473
0.384566
0.498083
0.387724
0.371629
0.376299
0.384194
0.385782
0.390102
0.368486
0.52701
0.501505
0.485965
0.381354
0.435657
0.383236
0.381414
0.380232
0.387652
0.383987
0.380726
0.38216
0.386863
0.391174
0.378506
0.384569
0.381995
0.383586
0.38056
0.376955
0.382069
0.382777
0.381584
0.379073
0.389234
0.386756
0.388087
0.382596
0.550296
0.373098
0.426714
0.392147
0.391521
0.415375
0.38821
0.386089
0.389697
0.398083
0.380442
0.392298
0.39208
0.374802
0.386696
0.379775
0.385204
0.455575
0.374638
0.399296
0.378106
0.408894
0.371201
0.385828
0.378654
0.384148
0.391217
0.382032
0.381853
0.373385
0.371764
0.386919
0.377209
0.37899
0.389992
0.382601
0.374133
0.376009
0.384203
0.382128
0.385867
0.394063
0.392952
0.379375
0.395454
0.613572
0.388719
0.388289
0.381207
0.375291
0.445318
0.448452
0.385675
0.382067
0.385652
0.388807
0.392769
0.457609
0.387381
0.595785
0.399426
0.40204
0.399828
0.450434
0.375586
0.374487
0.375713
0.38132
0.378112
0.380661
0.766237
0.37094
0.396688
0.383241
0.437367
0.396426
0.392646
0.426568
0.420895
0.387474
0.379419
0.323606
0.373506
0.377866
0.381179
0.37377
0.373836
0.408767
0.390849
0.394001
0.377998
0.378404
0.373249
0.482267
0.381199
0.373295
0.328956
0.375688
0.384371
0.406447
0.592872
0.380108
0.224528
0.242418
0.374501
0.406579
0.37364
0.380532
0.392962
0.384947
0.576444
0.398388
0.393189
0.376681
0.438192
0.406443
0.390195
0.378491
0.440054
0.447103
0.37696
0.378404
0.374643
0.382354
0.379369
0.390545
0.380316
0.390055
0.391012
0.386482
0.386186
0.446738
0.397566
0.376078
0.457622
0.379136
0.380321
0.381617
0.380766
0.376324
0.390411
0.379834
0.414908
0.38932
0.382076
0.383147
0.871386
0.392363
0.390696
0.606322
0.59626
0.370086
0.387843
0.547904
0.388084
0.445125
0.425653
0.388961
0.590587
0.388066
0.371102
0.39245
0.436705
0.394905
0.393789
0.379625
0.397408
0.374131
0.376101
0.38655
0.379295
0.389022
0.540275
0.645094
0.393853
0.402244
0.380913
0.387094
0.387624
0.390403
0.390354
0.399254
0.38387
0.383482
0.393288
0.381539
0.381968
0.430332
0.395168
0.658013
0.50517
0.379248
0.395624
0.382125
0.371622
0.614505
0.380776
0.641815
0.383478
0.3923
0.389848
0.368539
0.382353
0.383515
0.418522
0.39247
0.372664
0.400776
0.387783
0.379422
0.398604
0.37876
0.771033
0.38911
0.391069
0.393727
0.38036
0.374127
0.395405
0.37143
0.400602
0.378554
0.380225
0.392658
0.379471
0.371605
0.388888
0.374362
0.480945
0.537468
0.384497
0.45674
0.38687
0.382194
0.3793
0.36933
0.378093
0.390574
0.375528
0.374566
0.379744
0.611997
0.453847
0.371164
0.381353
0.379054
0.377996
0.377198
0.374208
0.380089
0.476787
0.379598
0.371359
0.380975
0.376733
0.371988
0.386734
0.379437
0.377724
0.383706
0.380668
0.393063
0.51413
0.374834
0.362274
0.449038
0.499059
0.280918
0.378698
0.396326
0.407069
0.3992
0.495397
0.308982
0.618203
0.379237
0.378813
0.393206
0.389271
0.515277
0.376399
0.37692
0.375255
0.369646
0.391765
0.387304
0.382198
0.387496
0.375426
0.416325
0.389431
0.388186
0.478926
0.468456
0.400009
0.472809
0.460458
0.559902
0.579432
0.389463
0.397852
0.379293
0.375381
0.372149
0.289003
0.385529
0.370953
0.379374
0.372868
0.334744
0.293237
0.375711
0.395986
0.374983
0.376155
0.388853
0.376344
0.376105
0.383359
0.377171
0.450407
0.374479
0.377139
0.380456
0.383751
0.384442
0.499457
0.446061
0.373455
0.405675
0.381754
0.373143
0.375834
0.393506
0.386309
0.590734
0.378533
0.3757
0.393749
0.42879
0.749489
0.382436
0.378617
0.437756
0.389468
0.37831
0.389078
0.378718
0.390275
0.613779
0.428181
0.683236
0.380272
0.422061
0.373161
0.401306
0.378537
0.379551
0.382917
0.383402
0.649216
0.461668
0.401391
0.477483
0.388543
0.377912
0.389402
0.407378
0.37607
0.381357
0.300644
0.37908
0.409472
0.378233
0.40059
0.651186
0.390987
0.390546
0.52426
0.393661
0.37879
0.430818
0.412902
0.372148
0.440077
0.45802
0.37246
0.383065
0.372365
0.378566
0.37852
0.382602
0.433101
1.79809
0.385258
0.381778
0.436575
0.47639
0.486886
0.54062
0.388354
0.383859
0.395389
0.385974
0.397859
0.378745
0.392436
0.391796
0.359454
0.380095
0.381531
0.376342
0.371113
0.388482
0.49221
0.389688
0.494293
0.373716
0.423846
0.384804
0.383179
0.389008
0.385867
0.394957
0.455168
0.380817
0.419305
0.49787
0.399071
0.398584
0.384462
0.44911
0.375818
0.394623
0.390091
0.40655
0.583945
0.421558
0.374034
0.384638
0.387222
0.380714
0.378548
0.625224
0.427332
0.421826
0.389234
0.406044
0.389374
0.529019
0.387451
0.621479
0.406832
0.394532
0.390704
0.571211
0.374942
0.379381
0.378758
0.39398
0.387916
0.382975
0.431103
0.441085
0.405055
0.373813
0.394226
0.581874
0.701768
0.498347
0.499361
0.592661
0.402182
0.38651
0.437263
0.375871
0.469148
0.378174
0.391823
0.675041
0.39269
0.383277
0.383329
0.413658
0.421281
0.393205
0.369245
0.396161
0.455383
0.378744
0.381458
0.379389
0.399887
0.374569
0.408404
0.380608
0.40157
0.390118
0.38364
0.387242
0.382909
0.374864
0.390866
0.413046
0.46578
0.387775
0.406756
0.38305
0.452521
0.386421
0.377047
0.368815
0.874005
0.477201
0.491203
0.300443
0.392709
0.393638
0.87169
0.323873
0.391323
0.420222
0.382021
0.382984
0.473572
0.375229
0.387794
0.390879
0.404775
0.378603
0.548499
0.762973
0.376281
0.811977
0.37597
0.588363
0.797749
0.370124
0.382922
0.380609
0.507745
0.384482
0.382768
0.397316
0.539978
0.378634
0.402934
0.389756
0.374943
0.371472
0.384837
0.536696
0.542537
0.391073
0.407498
0.387318
0.571026
0.379093
0.373212
0.48045
0.582235
0.382677
0.388786
0.718362
0.891783
0.601494
0.383673
0.41873
0.499241
0.596117
0.395335
0.477439
0.443559
0.385965
0.391565
0.51941
0.612837
0.405841
0.408932
0.375485
0.382519
0.398483
0.394913
0.470709
0.374169
0.375826
0.380174
0.383134
0.552635
0.991584
0.38861
0.572247
0.410349
0.368475
0.46599
0.376137
0.383874
0.384704
0.394112
0.396421
0.382167
0.603907
0.380167
0.699083
0.732149
0.576221
0.405874
0.383555
0.378517
0.387396
0.376698
0.530692
1.10803
0.388198
0.562461
0.527278
0.611747
0.467576
0.721244
0.542551
0.375991
0.380058
1.18183
0.375375
0.383867
0.377805
0.592423
0.508248
0.372679
0.390212
0.544547
0.424943
0.555109
0.559892
0.393435
0.484579
0.829742
0.384346
0.40283
0.577735
0.384458
0.759864
0.721775
0.376854
0.382445
0.38343
0.382974
0.400848
0.373073
0.383808
0.399403
0.385716
0.479909
0.409709
0.397784
0.476424
0.392966
0.719315
0.38428
0.386796
0.396288
0.380013
0.680982
0.36858
0.381441
0.371488
0.605361
0.370525
1.1552
0.38876
0.494104
0.398868
1.01721
0.55375
0.440528
0.412335
0.51295
0.414112
0.379037
0.393664
0.542321
0.597674
0.433923
0.57659
0.394445
0.45877
0.503155
0.392335
0.373899
0.511437
0.467534
0.372827
0.382977
0.378188
0.386863
0.538303
0.544101
0.377403
0.393086
0.382678
0.765986
0.384776
0.603037
0.405614
0.38165
0.386727
0.406674
0.405349
0.544474
0.38392
0.397145
0.424489
0.451973
0.370509
0.701559
0.462342
0.381323
0.709991
0.550898
0.386833
0.475099
0.387205
0.411032
0.688925
0.410383
0.851299
0.481241
0.383074
0.414667
0.397326
0.381208
0.386591
0.431229
0.442573
0.438418
0.375296
0.425133
0.377689
0.405231
0.418107
0.402158
0.396284
0.406099
0.383075
0.679327
0.421766
0.418994
0.472527
0.633256
0.37737
0.483391
0.313813
0.400425
0.402858
0.399417
0.46951
0.449964
0.561321
0.373585
0.63381
0.444412
0.382523
0.416921
0.39448
0.449153
0.384138
0.420431
0.512219
0.368858
0.607119
0.395403
0.751315
0.402407
0.390209
0.389509
0.424182
0.411733
0.412054
0.395317
0.383892
0.933438
0.391437
0.385031
0.726475
0.375384
0.37691
0.571989
0.39169
0.430007
0.962728
0.392291
0.44129
0.385667
0.727858
0.526259
0.435278
0.468751
0.440226
0.395278
0.459338
0.698015
0.871614
0.430955
0.38352
0.398387
0.380865
0.377485
0.391608
0.550839
0.384281
0.371103
0.393019
0.377947
0.39404
0.38953
0.402448
0.423943
0.389337
0.459864
0.382631
0.399598
0.397598
0.37996
0.383458
0.40102
0.397894
0.401206
0.372819
0.3851
0.382665
0.386793
0.394267
0.637991
0.37041
0.391516
0.375175
0.385903
0.49233
0.369997
0.3779
0.398185
0.916326
0.594062
0.385989
0.463279
0.502813
0.379352
0.37974
0.470678
0.366874
0.412153
0.392295
0.390043
0.429024
0.378237
0.413267
0.398609
0.379597
0.36946
0.372352
0.388392
0.491688
0.381793
0.400151
0.645091
0.38595
0.468924
0.424811
0.641842
0.380332
0.389098
0.392113
0.380268
0.382787
0.379433
0.378408
0.432073
0.448659
0.635166
0.386251
0.518053
0.384344
0.372045
0.403544
0.370191
0.589563
0.379842
0.530992
0.383723
0.604346
0.677282
0.379878
0.376262
0.412698
0.375227
0.387237
0.384231
0.386077
0.384858
0.37702
0.38024
0.388553
0.381703
0.398962
0.385858
0.398075
0.381371
0.387371
0.384548
0.382075
0.43541
0.379429
0.473122
0.378398
0.373408
0.389498
0.388004
0.374147
0.373804
0.387417
0.380561
0.383056
0.371259
0.386281
0.387051
0.375402
0.478319
0.457154
0.380653
0.396054
0.504993
0.369896
0.377733
0.379861
0.37525
0.388081
0.385709
0.395789
0.396019
0.382221
0.383137
0.429531
0.380388
0.384228
0.378716
0.624558
0.391211
0.674698
0.622516
0.664454
0.386569
0.385507
0.382159
0.373307
0.384781
0.553955
0.394711
0.372464
0.375562
0.379545
0.383097
0.42264
0.383038
0.381887
0.400005
0.382767
0.370669
0.381265
0.372744
0.380399
0.375236
0.385607
0.389982
0.393932
0.380065
0.383638
0.380565
0.382001
0.386162
0.372123
0.384829
0.378967
0.392503
0.395857
0.382119
0.37231
0.380521
0.383526
0.374531
0.380643
0.379309
0.38599
0.385312
0.378416
0.461455
0.381481
0.437881
0.382927
0.383336
0.35931
0.380071
0.384824
0.385284
0.378466
0.382993
0.387693
0.527557
0.403
0.488712
0.369156
0.379054
0.384732
0.380502
0.387232
0.404574
0.385455
0.377262
0.371283
0.443166
0.456374
0.583149
0.386115
0.444947
0.389439
0.400663
0.400748
0.542499
0.379763
0.38101
0.385218
0.615635
0.37971
0.380344
0.388688
0.385378
0.38664
0.665799
0.389235
0.386675
0.400211
0.381261
0.402557
0.731249
0.651747
0.384934
0.374539
0.375497
0.39034
0.39162
0.382503
0.649152
0.615028
0.381129
0.382602
0.472172
0.386331
0.378388
0.437659
0.382735
0.380746
0.379749
0.383737
0.403719
0.378376
0.380875
0.391472
0.407006
0.378189
0.38241
0.499186
0.377988
0.409746
0.466933
0.35729
0.481824
0.38121
0.392246
0.395382
0.386945
0.401001
0.395891
0.675092
0.482356
0.385589
0.386327
0.376383
0.388068
0.380583
0.378696
0.379989
0.374898
0.393745
0.386027
0.4961
0.443387
0.618491
0.605168
0.395861
0.388516
0.383519
0.384258
0.378931
0.388411
0.386776
0.374196
0.387449
0.359056
0.307006
0.377159
0.382512
0.41369
1.12967
0.399176
0.37995
0.381561
0.481143
0.655681
0.372675
0.4417
0.431558
0.535258
0.460028
0.425941
0.377671
0.377938
0.39732
0.689379
0.378437
0.389977
0.379527
0.386563
0.415461
0.288049
0.284898
0.388563
0.404395
0.384373
0.39142
0.395606
0.390777
0.475882
0.489293
0.282064
0.367778
0.323652
0.414687
0.383508
0.724238
0.385144
0.681817
0.390091
0.668757
0.386411
0.473734
0.386697
0.443138
0.39367
0.399291
0.379469
0.381894
0.38499
0.446423
0.420722
0.387808
0.38485
0.833272
0.293364
0.386047
0.485184
0.303523
0.482554
0.375493
0.379765
0.306853
0.527259
0.430309
0.397577
0.833575
0.379553
0.643182
0.941761
0.298291
0.403991
0.38723
0.405092
0.36481
0.381793
0.370198
0.482308
0.386443
0.380161
0.37366
0.378445
0.374835
0.379126
0.373708
0.448302
0.376765
0.373751
0.390631
0.387044
0.43521
0.386422
0.391843
0.382209
0.379365
0.390838
0.463263
0.370153
0.373945
0.469383
0.843202
0.388543
0.773929
0.399426
0.456783
0.483143
0.431561
0.404282
0.379117
0.395894
0.379581
0.373929
0.384127
0.374376
0.372016
0.387558
0.387622
0.371258
0.366755
0.392731
0.382489
0.387175
0.59021
0.382759
0.378361
0.376842
0.378388
0.444025
0.51476
0.389513
0.385949
0.380398
0.469007
0.476102
0.383282
0.389598
0.666065
0.400801
0.388447
0.381553
0.422375
0.382137
0.370466
0.38762
0.491626
0.385513
0.378442
0.446838
0.380923
0.392
0.382162
0.396767
0.383279
0.398106
0.3856
0.376755
0.386611
0.399536
0.370492
0.382337
0.689153
0.374748
0.443466
0.392124
0.386879
0.470342
0.404496
0.37713
0.396869
0.570223
0.440035
0.38776
0.37812
0.395034
0.427901
0.386067
0.385756
0.662491
0.4638
0.41372
0.464492
0.384609
0.382971
0.497024
0.419649
0.736588
0.380138
0.392205
0.489995
0.383825
0.44714
0.400914
0.461622
0.479598
0.380179
0.384772
0.728686
0.382331
0.391747
0.376823
0.375072
0.392853
0.42416
0.610957
0.390803
0.373866
0.326607
0.508924
0.591477
0.431849
0.548786
0.40049
0.724154
0.397004
0.392934
0.614425
0.395247
0.419972
0.320202
0.50742
0.569994
0.382659
0.380635
0.308303
0.383248
0.38255
0.592625
0.384387
0.407908
0.379193
0.398693
0.378989
0.382494
0.716102
0.307748
0.469462
0.351567
0.398285
0.384183
0.384868
0.389271
0.38738
0.387519
0.379578
0.387856
0.387051
0.284053
0.274968
0.379215
0.40195
0.374197
0.401347
0.424996
0.387141
0.380675
0.394169
0.286672
0.413536
0.397545
0.378874
0.378382
0.435599
0.387337
0.381922
0.629999
0.394965
0.474364
0.429791
0.393677
0.380256
0.380581
0.835234
0.378222
0.370286
0.404394
0.393174
0.42936
0.378944
0.397119
0.382894
0.50614
0.376676
0.392034
0.39115
0.378935
0.425996
0.38327
0.496801
0.430029
0.376374
0.485332
0.421347
0.381574
0.723533
0.380949
0.380746
0.381753
0.408132
0.583278
0.495049
0.399923
0.610476
0.440578
0.388208
0.45913
0.552319
0.390586
0.503724
0.424823
0.375664
0.546415
0.633938
0.391293
0.688493
0.412127
0.390333
0.509561
0.403138
0.385998
0.38903
0.591701
0.335288
0.372502
0.497133
0.392082
0.38971
0.388431
0.387128
0.423258
0.450578
0.581161
0.387239
0.392697
0.50708
0.381274
0.386617
0.483049
0.381107
0.394086
0.544579
0.397753
0.707263
0.650927
0.592988
0.391825
0.389643
0.429931
0.373079
0.383343
0.448169
0.381152
0.37306
0.393473
0.376234
0.43679
0.531666
0.384762
0.474186
0.383238
0.478616
0.397922
0.683641
0.378854
0.421645
0.388002
0.3786
0.397569
0.386773
0.386032
0.37942
0.375716
0.524894
0.373944
0.390621
0.389108
0.389247
0.381286
0.399308
0.388818
0.476881
0.394124
0.390395
0.389001
0.420001
0.353472
0.560696
0.491041
0.488317
0.607263
0.401808
0.416091
0.215541
0.347642
0.55248
0.415043
0.449707
0.409275
0.58969
0.432338
0.877812
0.410571
0.39046
0.442917
0.701381
0.396841
0.299444
0.410459
0.307292
0.427451
0.430958
0.52843
0.391268
0.382872
0.419637
0.284366
0.382481
0.585706
0.393549
0.392161
0.376418
0.382814
0.454401
0.37576
0.580798
0.455625
0.385115
0.392524
0.386634
0.459839
0.507271
0.38103
0.387948
0.409138
0.626072
0.402084
0.374043
0.453008
0.49829
0.380212
0.387689
0.387472
0.384847
0.544912
0.389161
0.462338
0.599719
0.377321
0.394893
0.389117
0.384908
0.286608
0.393841
0.506727
0.380069
0.386192
0.708233
1.03338
0.376667
0.380466
0.378363
0.383244
0.452727
0.40303
0.610247
0.39271
0.380378
0.443206
0.383792
0.389647
0.382776
0.387955
0.389248
0.457797
0.453744
0.446685
0.432012
0.428192
0.383182
0.381052
0.581519
0.663202
0.432624
0.430725
0.396
0.596069
0.448204
0.59878
0.471173
0.396451
0.391896
0.386849
0.404043
0.4094
0.490806
0.381832
0.408258
0.747991
0.396576
0.623532
0.393883
0.378804
0.37713
0.38126
0.37957
0.37107
0.442943
0.373509
0.370208
0.37043
0.381677
0.430835
0.488084
0.38619
0.508569
0.410687
0.396921
0.374233
0.379689
0.439432
0.401598
0.433491
0.389011
0.376489
0.406626
0.377568
0.372665
0.405846
0.392789
0.442658
0.383609
0.45973
0.397415
0.425611
0.385269
0.436652
0.392238
0.380519
0.37283
0.384657
0.387394
0.613527
0.371882
0.404095
0.313388
0.398726
0.387652
0.396821
0.393766
0.436809
0.39532
0.38334
0.379979
0.385816
0.426561
0.411855
0.375481
0.708366
0.394942
0.416884
0.384465
0.374952
0.478119
0.384686
0.392238
0.486306
0.383279
0.385711
0.405158
0.550546
0.377091
0.509943
0.375505
0.383555
0.442312
0.402983
0.388059
0.462493
0.381242
0.408119
0.425667
0.428237
0.460927
0.728504
0.385135
0.398016
0.392846
0.392933
0.397733
0.392637
0.385221
0.379903
0.39187
0.531186
0.389037
0.391112
0.505014
0.404154
0.617675
0.385658
0.391203
0.421573
0.373755
0.383889
0.391317
0.38024
0.401819
0.390674
0.388152
0.402449
0.348478
0.399087
0.387446
0.522018
0.391754
0.989811
0.604759
0.386832
0.384058
0.466359
0.391172
0.309744
0.42742
0.343981
0.448803
0.275589
0.407995
0.409128
0.420793
0.567849
0.556644
0.393984
0.361888
0.295106
0.822495
0.615499
0.528197
1.17939
0.470874
0.316384
0.642371
0.382713
0.397798
0.586693
0.425059
0.51032
0.409741
0.510257
0.53296
0.385325
0.390503
0.380503
0.377233
0.378618
0.378458
0.578681
0.397953
0.383975
0.522959
0.373105
0.372789
0.389036
0.382927
0.385377
0.386897
0.394734
0.382302
0.431978
0.711554
0.37501
0.384979
0.387365
0.37725
0.608286
0.50812
0.398327
0.382924
0.525725
0.376331
0.394867
0.384184
0.40476
0.377085
0.376267
0.375827
0.374753
0.410749
0.377493
0.424745
0.384452
0.388617
0.38477
0.393672
0.383563
0.382206
0.375592
0.408379
0.374411
0.404655
0.548455
0.433079
0.400976
0.419946
0.380072
0.396373
0.388802
0.382967
0.381665
0.385124
0.379253
0.395997
0.409518
0.385757
0.41405
0.460973
0.386423
0.393643
0.429918
0.40212
0.479677
0.395671
0.536327
0.764089
0.395917
0.395939
0.507564
0.511115
0.414805
0.380876
0.37809
0.3832
0.379279
0.380853
0.376953
0.394281
0.392802
0.376364
0.386375
0.384649
0.378249
0.400131
0.447014
0.41026
0.384385
0.384456
0.378048
0.586921
0.380239
0.373803
0.396896
0.694155
0.895877
0.396367
0.403098
0.385108
0.396409
0.398453
0.538444
0.426724
0.379541
0.385725
0.384171
0.37721
0.403106
0.40093
0.382558
0.376826
0.424531
0.402455
0.451571
0.420412
0.487719
0.478127
0.394816
0.396116
0.37516
0.37679
0.392483
0.380421
0.376242
0.57295
0.389092
0.392958
0.623115
0.394544
0.393232
0.298551
0.425422
0.37949
0.375996
0.383734
0.391267
0.590831
0.381696
0.444265
0.479921
0.4985
0.702578
0.677733
0.375946
0.390896
0.498215
0.378762
0.522379
0.501768
0.612875
0.381967
0.374331
0.46093
0.386807
0.54677
0.424966
0.380468
0.638199
0.636266
0.390775
0.378996
0.68476
0.386987
0.376449
0.368838
0.381191
0.386877
0.379496
0.50763
0.386267
0.679
0.376152
0.393687
0.371215
0.724288
0.378081
0.68764
0.393827
0.399243
0.377417
0.450858
0.378054
0.404572
0.372362
0.4264
0.460287
0.46042
0.588732
0.374962
0.381182
0.605378
0.410441
0.391145
0.412168
0.387724
0.381145
0.396067
0.392282
0.561066
0.429319
0.387794
0.370659
0.428105
0.386071
0.40185
0.391446
0.378415
0.392995
0.37863
0.378441
0.377923
0.497276
0.374852
0.380178
0.383232
0.377582
0.374347
0.38093
0.382129
0.380345
0.38715
0.396826
0.390353
0.375561
0.311631
0.393615
0.404801
0.393987
0.346604
0.697861
0.382531
0.562188
0.406631
0.31488
0.390883
0.397884
0.391026
0.384817
0.377134
0.391992
0.39863
0.382942
0.379739
0.37895
0.645371
0.377459
0.387896
0.402564
0.997841
0.273685
0.390398
0.641805
0.384295
0.573471
0.48617
0.975707
0.26969
0.386243
0.384759
0.384577
0.38381
0.547203
0.405562
0.417034
0.381643
0.381903
0.560468
0.391726
0.386239
0.375761
0.385162
0.389164
0.39164
0.568923
0.38197
0.385469
0.376592
0.381059
0.393153
0.373613
0.389564
0.866017
0.897481
0.50346
0.457259
0.601421
0.379175
0.381389
0.372119
0.378773
0.376866
0.411298
0.380216
0.436551
0.394767
0.382813
0.382971
0.384119
0.387259
0.376535
0.381699
0.380886
0.381421
0.494229
0.388289
0.405783
0.605573
0.385338
0.55567
0.68035
0.388454
0.400401
0.396076
0.47394
0.389297
0.404768
0.564717
0.383118
0.41821
0.381418
0.407073
0.378893
0.379797
0.425362
0.517211
0.390797
0.39031
0.61397
0.412934
0.531488
0.527644
0.395132
0.964442
0.399877
0.416862
0.400818
0.388539
0.435972
0.396589
0.378195
0.377982
0.374964
0.544375
0.265779
0.38186
0.397129
0.444705
0.26807
0.481251
0.379968
0.378073
0.423544
0.380149
0.422603
0.3819
0.52719
0.386786
0.385989
0.380212
0.702641
0.383512
0.411963
0.392523
0.382209
0.383812
0.394827
0.375664
0.376575
0.480159
0.396277
0.65106
0.374581
0.56345
0.514324
0.424352
0.401373
0.395882
0.450769
0.394539
0.387676
0.378401
0.386827
0.609138
0.39594
0.47152
0.424767
0.395004
0.383889
0.382861
0.38103
0.375529
0.382119
0.416663
0.40646
0.399073
0.381966
0.407078
0.377484
0.43351
0.378931
0.387531
0.382104
0.476534
0.713671
0.391984
0.384814
0.38057
0.469338
0.373136
0.385356
0.377027
0.376859
0.384984
0.38075
0.37401
0.383714
0.386452
0.459024
0.483581
0.374008
0.567318
0.378237
0.380959
0.371041
0.391915
0.54404
0.395403
0.615793
0.377766
0.370438
0.680437
0.7229
0.380716
0.377548
0.532248
0.392887
0.405473
0.394753
0.403153
0.392448
0.435368
0.379969
0.391269
0.389023
0.380736
0.471727
0.379623
0.387605
0.385438
0.373861
0.420984
0.453529
0.375331
0.383096
0.383031
0.387761
0.385785
0.493602
0.394585
0.39393
0.411639
0.38692
0.447052
0.415396
0.471753
0.414257
0.388584
0.380339
0.383184
0.406862
0.377191
0.43335
0.405332
0.377495
1.01038
0.374514
0.387705
0.382691
0.394003
0.407011
0.54327
0.386226
0.443822
0.379175
1.00809
0.413781
0.397314
0.378858
0.505457
0.38651
0.501832
0.393053
0.43196
0.374114
0.400085
0.418475
0.556924
0.458177
0.386507
0.373463
0.380159
0.444067
0.392306
0.821764
0.472466
0.391337
0.436704
0.389738
0.463261
0.455638
0.416687
0.478358
0.477782
0.62157
0.39602
0.396279
0.713034
0.483103
0.39852
0.462304
0.384549
0.838967
0.416791
0.385968
0.377824
0.381525
0.382283
0.380351
0.381857
0.459902
0.380168
0.425862
0.385202
0.439273
0.398042
0.503525
0.375751
0.375422
0.376524
0.467231
0.461408
0.488791
0.386994
0.384707
0.466632
0.405598
0.400379
0.374162
0.376786
0.378392
0.378685
0.37922
0.401308
0.379871
0.500886
0.440918
0.628627
0.669102
0.473265
0.521985
0.420114
0.421526
0.37529
0.542964
0.388693
0.396338
0.378498
0.465973
0.402247
0.383548
0.43655
0.641343
0.420614
0.382977
0.374122
0.532752
0.707198
0.408512
0.63302
0.706758
0.548827
0.571972
0.523075
0.595361
0.427152
0.561138
0.683143
0.384025
0.391285
0.391463
0.447578
0.57599
0.385466
0.38374
0.422009
0.397036
0.400966
0.579541
0.476513
0.641497
0.380875
0.380528
0.377228
0.377366
0.386461
0.765985
0.378537
0.397481
0.492897
0.379086
0.631026
0.970894
0.3815
0.423308
0.41427
0.660333
0.395244
0.471777
0.648956
0.734989
0.444201
0.507673
0.490283
0.436137
0.379497
0.394421
0.389411
0.570014
0.625346
0.414025
0.387746
0.502838
0.457435
0.526304
0.381815
0.392949
0.707186
0.483196
0.297828
0.377425
0.337292
0.381424
0.273119
0.416885
0.437814
0.537748
0.277282
0.443148
0.456548
0.260353
0.451121
0.408162
0.444755
0.429907
0.418462
0.390271
0.506872
0.391088
0.383652
0.382871
0.384705
0.584738
0.615419
0.565516
0.413973
0.43002
0.461799
0.410413
0.296312
0.424436
0.402056
0.381589
0.467612
0.387447
0.293577
0.384775
0.430247
0.42489
0.606068
0.468076
0.705926
0.646515
0.61098
0.39108
0.423004
0.545259
0.350821
0.501764
0.409684
0.412205
0.379864
0.670364
0.499695
0.388971
0.980505
0.569451
0.387795
0.444509
0.563558
0.634891
0.432872
0.391512
0.462926
0.622737
0.402043
0.376082
0.394744
0.387425
0.389913
0.485758
0.556683
0.404104
0.532313
0.71471
0.52631
0.460351
0.538291
0.387903
0.665991
0.542293
0.43694
0.59327
0.507483
0.407164
0.45353
0.389502
0.386032
0.38505
0.392683
0.50139
0.490789
0.377203
0.393351
0.400896
0.379992
0.378435
0.531198
0.442488
0.389292
0.386137
0.56521
0.812163
0.271033
0.411212
0.375423
0.393537
0.474168
0.426162
0.377968
0.312867
0.397513
0.309475
0.344933
0.528594
0.394719
0.387807
0.386265
0.415844
0.636575
0.43922
0.39244
0.441063
0.386769
0.607748
0.502827
0.452913
0.522294
0.401611
0.385269
0.374775
0.380416
0.391282
0.426545
0.380266
0.378726
0.379296
0.383975
0.510333
0.430687
0.602681
0.38397
0.469123
0.406713
0.427751
0.402723
0.344212
0.389917
0.397889
0.388513
0.373169
0.389751
0.385666
0.454052
0.384294
0.391997
0.396094
0.559667
0.384079
0.420108
0.429562
0.609786
0.597679
0.418052
0.70356
0.31697
0.395239
0.405779
0.504138
0.39364
0.478763
0.442371
0.37624
0.42733
0.469261
0.427109
0.452896
0.494258
0.430864
0.456235
0.522924
0.391365
0.38948
0.411617
0.379911
0.382398
0.419641
0.376843
0.387062
0.508067
0.385753
0.333731
0.403452
0.819877
0.379275
0.377183
0.728884
0.381239
0.37888
0.445613
0.375626
0.510803
0.432379
0.597678
0.376596
0.518591
0.455352
0.540756
0.38727
0.44268
0.373013
0.434624
0.386381
0.38917
0.387944
0.441173
0.453295
0.396765
0.387261
0.393335
0.379842
0.470816
0.380296
0.376413
0.383033
0.446413
0.484989
0.383617
0.393003
0.384061
0.384673
0.392182
0.413687
0.383615
0.438903
0.389067
0.532368
0.382655
0.407995
0.383682
0.475102
0.38644
0.44248
0.39031
0.385702
0.377425
0.396434
0.390161
0.44944
0.433328
0.605828
0.539474
0.615131
0.420174
0.401143
0.394912
0.384228
0.378516
0.710858
0.568576
0.413401
0.405737
0.393933
0.391491
0.373909
0.383266
0.499217
0.470164
0.629744
0.500443
0.411563
0.382577
0.417836
0.38196
0.567542
0.383216
0.3899
0.388803
0.391762
0.70543
0.426344
0.376673
0.395558
0.424412
0.375245
0.303115
0.384325
0.316639
0.409593
0.709009
0.442987
0.648108
0.373337
0.391343
0.402355
0.392678
0.409375
0.383836
0.381549
0.370864
0.378374
0.398558
0.386743
0.512137
0.4167
0.668665
0.440412
0.379525
0.475417
0.389437
0.381024
0.343121
0.763328
0.727546
0.288963
0.337439
0.391478
0.61451
0.446453
0.432675
0.409823
0.405279
0.276377
0.391389
0.379713
0.369157
0.415979
0.444993
0.562887
0.504079
0.439628
0.376016
0.423007
0.57164
0.395912
0.376611
0.571335
0.576689
0.570263
0.49306
0.371338
0.37066
0.42214
0.368996
0.671586
0.381012
0.383247
0.378496
0.579995
0.377634
0.404186
0.465832
0.462315
0.381659
0.379108
0.39327
0.375734
0.38012
0.387063
0.410574
0.51434
0.453221
0.40088
0.516165
0.397417
0.487467
0.4074
0.707692
0.453784
0.439319
0.561104
0.357918
0.443864
0.407892
0.530302
0.428544
0.372658
0.385162
0.374576
0.392104
0.680813
0.394348
0.38297
0.384415
0.401684
0.369408
0.482726
0.394981
0.389337
0.449443
0.393977
0.376125