/*--------------------------------*- C++ -*----------------------------------*\
| =========                 |                                                 |
| \\      /  F ield         | OpenFOAM: The Open Source CFD Toolbox           |
|  \\    /   O peration     | Version:  2506                                  |
|   \\  /    A nd           | Website:  www.openfoam.com                      |
|    \\/     M anipulation  |                                                 |
\*---------------------------------------------------------------------------*/
FoamFile
{
    version     2.0;
    format      ascii;
    arch        "LSB;label=32;scalar=64";
    class       volScalarField;
    location    "0.0100321";
    object      nut;
}
// * * * * * * * * * * * * * * * * * * * * * * * * * * * * * * * * * * * * * //

dimensions      [0 2 -1 0 0 0 0];

internalField   nonuniform List<scalar> 
47425
(
0.00700976
0.00545625
0.00652755
0.00244785
0.00380655
0.00566154
0.00602553
0.00389666
0.00734864
0.00100503
0.00271912
0.00744279
0.00644449
0.00567301
0.00484725
0.00246748
0.00665212
0.00314192
0.000348457
0.00281193
0.00524778
0.00756565
0.00371664
0.00660569
0.00748202
0.00746338
0.00596636
0.000398996
0.00669182
0.00695177
0.00739117
0.00756213
0.00718001
0.00642756
0.00730089
0.00596326
0.00750837
0.00532799
0.0059248
0.00562881
0.00520818
0.00729639
0.00738043
0.00263712
0.000513893
0.00354027
0.00426741
0.00484856
0.00554807
0.00741585
0.000485496
0.00613535
0.0073936
0.000777609
0.00335368
0.00323852
0.0075299
0.00652407
0.00211787
0.0063567
0.000842633
0.000562585
0.00102509
0.00383441
0.00715866
0.00733959
0.00605496
0.00687816
0.000967114
0.00441106
0.00585156
0.00728248
0.00709868
0.00501988
0.00147332
0.00654174
0.00105338
0.00506436
0.000196404
0.0027118
0.00140384
0.00653598
0.00738949
0.00688694
0.00754492
0.00528564
0.00722746
0.00740099
0.00632524
0.0012771
0.00753132
0.0047449
0.00755634
0.0034921
0.00180665
0.00200632
0.00744558
0.00748777
0.00573849
0.00307198
0.00641075
0.00109588
0.00730573
0.00095231
0.00749757
0.00714719
0.00749033
0.00536435
0.00755445
0.00758915
0.000705425
0.00648201
0.00691237
0.00258883
0.00697782
0.000264982
0.0070827
0.000663521
0.00466095
0.00664335
0.0062149
0.00729636
0.00660107
0.00445757
0.00392164
0.00661912
0.0048709
0.00743594
0.00376126
0.0074568
0.00659201
0.00370612
0.000928496
0.0030535
0.00729526
0.00555114
0.00697077
0.00647917
0.00595553
0.00428638
0.00527383
0.00286747
0.00594989
0.00649483
0.00699322
0.00732423
0.00514215
0.00636695
0.00254251
0.0051393
0.0066391
0.0004273
0.00697732
0.000315221
0.00370287
0.00452316
0.00477697
0.000227106
0.00402688
0.00512333
0.00696637
0.00753452
0.00740153
0.00740181
0.00115164
0.000375773
0.00752066
0.00113313
0.00380057
0.000764625
0.00149801
0.00431994
0.00515939
0.00400819
0.00511858
0.00137621
0.000287633
0.00648344
0.00715708
0.00752478
0.000245496
0.00754303
0.00703714
0.00748748
0.00743912
0.00703035
0.00708914
0.00114974
0.00275616
0.00714324
0.00731214
0.00660691
0.00460957
0.00478674
0.00750012
0.00722948
0.00578338
0.00561199
0.00717681
0.00589169
0.00569473
0.00328094
0.00756756
0.00724197
0.00351185
0.00249854
0.00729307
0.0072711
0.00258072
0.0067749
0.00662009
0.00667175
0.00727066
0.00600762
0.00647389
0.0067358
0.00620836
0.00409029
0.00426724
0.0038969
0.00214413
0.00492091
0.00712781
0.00545358
0.0023892
0.00191977
0.00749881
0.0033001
0.00666102
0.0046364
0.00659249
0.00534212
0.00352883
0.00751384
0.00239162
0.00433012
0.00372961
0.00322274
0.00269963
0.0021648
0.00592058
0.00713397
0.0075576
0.00501583
0.00739976
0.00389529
0.00670357
0.00478369
0.00751977
0.00575574
0.00759329
0.00320416
0.00654012
0.00729704
0.00463315
0.00756814
0.00757179
0.00320564
0.00497539
0.00691778
0.00301348
0.00729427
0.00622053
0.00291845
0.00646429
0.00192648
0.00752896
0.00647547
0.00692228
0.00539017
0.00588482
0.0046775
0.00387022
0.00717069
0.00329481
0.00219349
0.00396717
0.000475491
0.00414784
0.000607254
0.000966161
0.00720839
0.000686323
0.00304232
0.00536527
0.00593754
0.00368588
0.00553208
0.00163428
0.00693379
0.000567823
0.00598701
0.00736722
0.00712343
0.0070202
0.00385306
0.00397755
0.00716077
0.00634132
0.00557859
0.0041154
0.00743165
0.00409808
0.00711235
0.000538739
0.000781952
0.000417667
0.00754679
0.00745172
0.00738369
0.00370709
0.000560836
0.00483141
0.00324371
0.00149877
0.00478726
0.00378197
0.00312535
0.00539922
0.00196059
0.00178188
0.00762278
0.00693857
0.00746953
0.00157976
0.0074885
0.00584236
0.00691584
0.00732761
0.00574775
0.00633374
0.000635301
0.00665004
0.00567412
0.00301908
0.00755507
0.000631718
0.00738985
0.00746053
0.00707835
0.00736578
0.00730666
0.00749765
0.00736572
0.00730491
0.00681926
0.00659002
0.00722402
0.00587367
0.0043341
0.0074407
0.00736467
0.00622567
0.00742402
0.00744236
0.00344086
0.00520706
0.0075466
0.00720534
0.00398372
0.00179116
0.00675407
0.00457735
0.00487252
0.00736783
0.00734024
0.00289002
0.00693617
0.00581713
0.00741331
0.00290064
0.000422026
0.00562
0.00749163
0.00192823
0.00750667
0.007298
0.00400278
0.00499333
0.00750513
0.00548615
0.00748483
0.0075453
0.00492688
0.00421975
0.00441035
0.0045292
0.00728874
0.00701964
0.00474005
0.00706606
0.0071419
0.00507118
0.00692336
0.00610221
0.00729869
0.00659822
0.00433893
0.00216265
0.00742661
0.000902816
0.0075085
0.00223121
0.00259555
0.00360364
0.00361966
0.00744323
0.00275792
0.00748374
0.00405384
0.00721867
0.000746106
0.00075138
0.00731468
0.00439747
0.00560756
0.00526511
0.00513032
0.00495522
0.0061238
0.00421586
0.00564036
0.0074566
0.00415136
0.00654304
0.00734109
0.00419583
0.00638034
0.00699105
0.000922059
0.000269559
0.00732129
0.000438753
0.000320577
0.00277438
0.000448935
0.000619619
0.00734629
0.0059151
0.00615951
0.00633127
0.000547803
0.00397593
0.00736882
0.0072467
0.0066538
0.00622208
0.00468705
0.00513222
0.000862113
0.000381282
0.00131202
0.00538261
0.00120936
0.00658976
0.00698287
0.0072016
0.00644953
0.00714795
0.00442395
0.00484698
0.00169615
0.00568944
0.00749222
0.00576987
0.00710288
0.00462581
0.00714795
0.00661828
0.00616841
0.00562266
0.0056285
0.00240468
0.00300905
0.00659025
0.00439949
0.00713384
0.00093342
0.0030761
0.00229098
0.00738301
0.00274081
0.00456867
0.00544505
0.00750628
0.00702032
0.0067089
0.00650837
0.00384481
0.00349333
0.00621828
0.00630609
0.00715737
0.00248777
0.00091682
0.00746136
0.00209412
0.00711311
0.00188242
0.00738755
0.00705611
0.00751201
0.00594943
0.00693092
0.00346231
0.00659837
0.00753429
0.00755544
0.00699424
0.00521471
0.0029794
0.00535166
0.00756923
0.00694203
0.00732931
0.00725414
0.00689415
0.00517398
0.00587598
0.00342491
0.00478789
0.00138473
0.000541076
0.00606329
0.00577586
0.00671844
0.00736295
0.00168417
0.00143502
0.00473411
0.00706873
0.00453644
0.00618188
0.00737172
0.00152142
0.00746592
0.00167362
0.00329879
0.00325894
0.00643398
0.00262437
0.00762106
0.00592554
0.00588292
0.00747617
0.00754709
0.00724658
0.000816089
0.0069356
0.00257407
0.00742978
0.00171869
0.00705287
0.00663416
0.0025247
0.0028443
0.00527997
0.00756996
0.00102562
0.0073021
0.00712118
0.00728196
0.00724812
0.00748646
0.00298063
0.00597274
0.00702485
0.00721623
0.00585333
0.00750933
0.00126906
0.00737169
0.00627948
0.000974347
0.00553395
0.00745564
0.00102476
0.00137463
0.00758339
0.000331706
0.000345187
0.00627502
0.00716025
0.00735694
0.00751374
0.0044394
0.00306892
0.00161866
0.00754163
0.00290377
0.00719278
0.00186196
0.00252758
0.00445116
0.00614594
0.0019416
0.00173589
0.00721402
0.00466441
0.0051418
0.00418074
0.00313841
0.00306265
0.00746976
0.00424242
0.00289628
0.00605613
0.00552234
0.00314012
0.00454572
0.00739948
0.00232556
0.00405671
0.00597518
0.00304282
0.001605
0.00685849
0.00496292
0.00688357
0.00195536
0.0056368
0.00708536
0.00746367
0.000243915
0.0045466
0.00607027
0.000409165
0.000727702
0.00755249
0.0046035
0.000114266
0.00217921
0.000942679
0.00199798
0.00125432
0.000534055
0.00700554
0.00743661
0.0058316
0.00424303
0.00150139
0.00209783
0.00745526
0.00324628
0.00617158
0.00536537
0.00716478
0.00475125
0.00599946
0.00234549
0.000432312
0.00323053
0.00394457
0.00434671
0.00701354
0.00348032
0.00694992
0.0058611
0.00509317
0.00597965
0.00735446
0.00207412
0.00496931
0.00722592
0.00154945
0.00171806
0.00095757
0.00118977
0.00421576
0.00738184
0.00504249
0.00752177
0.000825605
0.00567072
0.000629417
0.00472654
0.00608515
0.00649381
0.00544545
0.00506629
0.0059957
0.00269614
0.00516071
0.00730716
0.00191483
0.00626519
0.00741051
0.00505244
0.00416404
0.000638949
0.00649913
0.00189142
0.00508568
0.00741462
0.00755212
0.00264158
0.00562154
0.00453087
0.00738053
0.00612383
0.00514854
0.00516854
0.00506732
0.00509283
0.00651392
0.00104907
0.000592595
0.00606923
0.000887289
0.00601739
0.00346409
0.00515382
0.00749596
0.00724023
0.00684358
0.00623779
0.00534836
0.00751675
0.000488897
0.00187926
0.00425815
0.00617926
0.00746246
0.00427162
0.00739986
0.00274788
0.00705907
0.00111225
0.00435075
0.00749134
0.00518263
0.00748829
0.00670912
0.00598042
0.0074554
0.00437937
0.00745446
0.00738018
0.00521685
0.000956756
0.00759963
0.000848164
0.00213496
0.00235777
0.000740796
0.00473947
0.00668096
0.00266037
0.00481839
0.00079246
0.000490451
0.000670406
0.00587959
0.00697176
0.00483436
0.00290121
0.000840277
0.00282611
0.00414142
0.00705303
0.00627927
0.00609029
0.00183312
0.00657397
0.00446869
0.00180559
0.0022812
0.00572053
0.00249608
0.00108664
0.000741399
0.00645727
0.000312099
0.00141928
0.000577254
0.000717481
0.00445122
0.00317438
0.00752363
0.00746577
0.00527007
0.000699946
0.00201772
0.00541369
0.00508287
0.0075345
0.00125197
0.000780154
0.00756811
0.00229902
0.0044288
0.0075518
0.00227815
0.00756353
0.00753472
0.00584961
0.00523392
0.00171385
0.00738073
0.00756479
0.00694204
0.00538495
0.00548536
0.00107942
0.00150641
0.00758149
0.00152639
0.00729
0.00751499
0.00744834
0.00189324
0.00470173
0.00109383
0.00445635
0.00729056
0.00711666
0.0014088
0.000729901
0.00549586
0.00477839
0.00159298
0.00578448
0.00615722
0.00301823
0.00322245
0.00124801
0.00194835
0.00255139
0.000930943
0.00725551
0.00126833
0.00723382
0.00459341
0.0073951
0.00230428
0.00296041
0.0073851
0.00190745
0.00131964
0.0045893
0.00184802
0.00610215
0.00731438
0.00543182
0.00386294
0.00543744
0.00423645
0.000794509
0.00594045
0.00352827
0.00183627
0.00179318
0.00046504
0.0017715
0.00425072
0.00052084
0.00725872
0.00750049
0.00352881
0.00292944
0.00463733
0.00160636
0.0012525
0.00423113
0.0070989
0.00657258
0.00339961
0.00372778
0.00423971
0.00214319
0.00126639
0.00502156
0.00684753
0.00236986
0.00151732
0.00129105
0.000484875
0.00389102
0.00543874
0.00164036
0.00405263
0.00520653
0.00742349
0.00381177
0.00215154
0.00151745
0.00370062
0.00573027
0.00409942
0.00740817
0.00353299
0.000785586
0.00459887
0.00236188
0.00730315
0.00238281
0.00227749
0.00380144
0.00536141
0.00562558
0.00155267
0.00128438
0.00453301
0.00163221
0.000671431
0.00674118
0.0072632
0.00694124
0.00116012
0.00684729
0.00266851
0.00726872
0.00177614
0.00056876
0.0040224
0.00477733
0.00437906
0.00716762
0.00524998
0.00331769
0.000680844
0.00431561
0.00104262
0.00721199
0.00286757
0.00418673
0.00260158
0.00416673
0.00132089
0.00169964
0.00167362
0.00616506
0.000535117
0.00474612
0.0056794
0.00609698
0.00655261
0.00682647
0.0053693
0.00150285
0.0022866
0.00319542
0.00715998
0.00656323
0.000670692
0.000713942
0.000714796
0.00161326
0.000630338
0.00209024
0.00404869
0.00129216
0.00579623
0.00114498
0.00216218
0.00143905
0.00115166
0.00496613
0.00679996
0.0063009
0.00740444
0.00181738
0.001987
0.00452135
0.00531363
0.00145087
0.0071759
0.00504317
0.00742032
0.00735718
0.00315234
0.00227934
0.00309967
0.00422473
0.00647548
0.0020109
0.00751719
0.00551925
0.00466848
0.00688779
0.00275082
0.00122952
0.0062335
0.00267727
0.00571101
0.00145216
0.00207593
0.00310755
0.00399198
0.000200473
0.000259312
0.00128749
0.000713796
0.00356657
0.00419317
0.000543849
0.00114382
0.00675629
0.00128963
0.00355055
0.00430543
0.000418343
0.00276509
0.00696641
0.00331227
0.00205155
0.0073082
0.000644837
0.000311586
0.00341171
0.000590342
0.00270992
0.000778885
0.000422004
0.00689336
0.00472972
0.00289769
0.00110638
0.00391254
0.00699618
0.00257603
0.000453418
0.00730777
0.00305583
0.00615912
0.002341
0.00748314
0.00699613
0.00147228
0.00109794
0.00377546
0.00227903
0.00636486
0.000916445
0.00738148
0.00753359
0.00150448
0.00116478
0.00523021
0.00701655
0.000610083
0.00134366
0.00113709
0.00389424
0.00334757
0.00164539
0.000987738
0.00559505
0.000760511
0.00153371
0.00679702
0.004781
0.00122622
0.000347576
0.0030735
0.0022332
0.00647557
0.007154
0.00220123
0.0052827
0.00241163
0.00606547
0.00735878
0.00737927
0.00609649
0.0022319
0.000654025
0.00573696
0.000407973
0.00464398
0.00566794
0.00158788
0.00731407
0.00476804
0.00637458
0.00571596
0.00196708
0.00712
0.00138819
0.00765052
0.000295119
0.000677412
0.00140803
0.00199052
0.00690494
0.00568132
0.00360748
0.00733283
0.000629475
0.000620958
0.00355641
0.00205451
0.000672351
0.000653197
0.00188886
0.00100837
0.000473073
0.00409589
0.00742224
0.000498501
0.00522758
0.00723203
0.00550404
0.000674053
0.000321158
0.00536575
0.0058401
0.00151528
0.00197041
0.00130172
0.000536474
0.0035956
0.000850901
0.000932311
0.00353851
0.00526073
0.00060522
0.00632573
0.000750263
0.000184827
0.00750967
0.00609275
0.00504115
0.00702371
0.00212241
0.00438094
0.00716603
0.00276527
0.00421912
0.000930078
0.00179857
0.00568693
0.0011531
0.00663257
0.000301535
0.00641981
0.00425317
0.00429912
0.00743266
0.000821193
0.00495285
0.00321739
0.00256084
0.00219902
0.00456027
0.00208652
0.00212727
0.000719405
0.00681906
0.0006979
0.000645871
0.0015545
0.00445134
0.000963596
0.00210682
0.00485478
0.00598298
0.000985811
0.000836704
0.00218336
0.000523249
0.00164752
0.00103939
0.0008738
0.00298075
0.00268981
0.000575938
0.00151627
0.0074565
0.0027154
0.00447688
0.00149876
0.00313544
0.000610407
0.00681087
0.0047619
0.00570988
0.000888744
0.00567177
0.000432578
0.00252923
0.00603348
0.00711029
0.00262612
0.00233967
0.000840482
0.00230018
0.0033458
0.00131079
0.000938841
0.00502982
0.000809517
0.00129113
0.00468852
0.000444906
0.00112881
0.00158579
0.00188887
0.0055901
0.00196501
0.000542336
0.00216097
0.00108922
0.00279372
0.00678356
0.00209067
0.00494349
0.0038844
0.00623604
0.00122559
0.00182852
0.00144815
0.00608057
0.00184755
0.00528049
0.00558724
0.00142615
0.00196776
0.00247423
0.00456012
0.00703149
0.000304246
0.00113553
0.00183297
0.00144786
0.00213404
0.00724054
0.000923759
0.00063956
0.00173718
0.00301137
0.00508481
0.002309
0.00221184
0.000901722
0.00696257
0.00123045
0.00151512
0.00720408
0.0016663
0.0035041
0.00256541
0.00294932
0.00159176
0.00202529
0.00742313
0.000490317
0.00262399
0.000580957
0.00271678
0.0063184
0.00252105
0.00314269
0.00168408
0.00443435
0.00602418
0.00470557
0.000395629
0.00563796
0.00586702
0.000549889
0.00754938
0.00529901
0.000589564
0.00611064
0.0025192
0.00148085
0.00272035
0.00102328
0.00549426
0.000172896
0.00122303
0.000703495
0.002179
0.00128293
0.0042559
0.000882235
0.00167961
0.00126333
0.00230765
0.00428624
0.00579804
0.004412
0.0045097
0.0029548
0.000418695
0.00330565
0.00697962
0.00674797
0.00685104
0.0043328
0.00144761
0.00716739
0.0072058
0.00311252
0.000816677
0.00741994
0.00295276
0.00482519
0.00572098
0.00729138
0.0017477
0.00319773
0.00736006
0.00729756
0.0035863
0.00407099
0.00597446
0.00397367
0.000536276
0.00422
0.00503624
0.00724063
0.00764288
0.00105547
0.00645201
0.00716253
0.000620559
0.00133594
0.000753573
0.0072257
0.000563204
0.000420463
0.00742825
0.000187507
0.000745691
0.000214423
0.00340594
0.00566051
0.00448822
0.00173439
0.0076026
0.00429731
0.0029791
0.00401893
0.00344258
0.00503794
0.00359609
0.00110638
0.00471827
0.00448425
0.000662799
0.00458334
0.000190918
0.00229033
0.00111783
0.00749562
0.00191873
0.00187603
0.00736084
0.00550074
0.00201035
0.0075894
0.00196878
0.00167543
0.000311957
0.00638372
0.00149668
0.00704668
0.00324911
0.00532441
0.00685624
0.00128136
0.00673757
0.002307
0.00719955
0.00107039
0.000187566
0.00497362
0.00755235
0.000314355
0.00504353
0.000187638
0.00633728
0.00389739
0.00573289
0.00565669
0.00695258
0.0070496
0.00612949
0.00275665
0.00639467
0.00221958
0.00269878
0.00586867
0.00751186
0.00260061
0.00085997
0.00430967
0.00108621
0.00719941
0.00594372
0.00316727
0.00453313
0.00569784
0.00707495
0.00246237
0.00307368
0.00729392
0.00520519
0.00622277
0.0054003
0.00396516
0.00116196
0.00126509
0.00546738
0.00415898
0.00220451
0.00454996
0.00720642
0.00617918
0.00742875
0.00219423
0.0022804
0.00195142
0.00370521
0.00534524
0.00585284
0.00127528
0.00712397
0.00738634
0.00655312
0.00145904
0.00242747
0.00110822
0.00105568
0.00102085
0.0047213
0.00633809
0.0066407
0.0063094
0.00726834
0.00106613
0.00538547
0.00747655
0.00474869
0.00360304
0.00572368
0.00273463
0.00617954
0.00241213
0.00419267
0.00355797
0.00734288
0.00554199
0.0044423
0.0040447
0.00597527
0.00320494
0.00454403
0.0052486
0.00543683
0.00544629
0.00488693
0.0025117
0.00217031
0.00692164
0.00313055
0.00339823
0.00140326
0.00231048
0.00744658
0.00730448
0.00320807
0.00668307
0.00709451
0.00258307
0.00743536
0.00745543
0.00561265
0.00490375
0.00323654
0.00547296
0.00250083
0.00736653
0.00593582
0.000520092
0.0047525
0.00437621
0.00671667
0.00661316
0.00416583
0.0043927
0.000235351
0.00361249
0.0012837
0.00742767
0.00676131
0.0051924
0.00748629
0.00731639
0.00362013
0.0044075
0.00726063
0.00753029
0.00364702
0.000852768
0.00133664
0.00312013
0.00187929
0.00380752
0.00587863
0.00360328
0.00217685
0.00216641
0.0050997
0.0051557
0.000753189
0.00647648
0.0048839
0.00416113
0.00431138
0.00746349
0.000290381
0.00610966
0.0027443
0.00703448
0.0030608
0.00380031
0.000255058
0.00021067
0.00591669
0.00733904
0.0074958
0.00361738
0.00391568
0.0068362
0.000198269
0.00112374
0.00658973
0.00220173
0.00139656
0.00666201
0.00739621
0.00230952
0.00752519
0.00647453
0.00720419
0.00561789
0.00450536
0.00441141
0.00506623
0.00625762
0.00279389
0.00560897
0.00720068
0.00112079
0.00555265
0.00439288
0.00202342
0.00132475
0.00118073
0.00359373
0.00198164
0.00618905
0.00180028
0.00311014
0.00715825
0.000450138
0.00132361
0.00131885
0.00453246
0.0035544
0.00407674
0.00369283
0.00278378
0.00752064
0.00744779
0.00553688
0.00549452
0.00089369
0.00142183
0.000781397
0.00087028
0.0038072
0.00217656
0.00751104
0.00754098
0.00462651
0.00663182
0.00568948
0.0071607
0.00768382
0.00147623
0.000540083
0.00748549
0.00755427
0.00365085
0.00120952
0.00434752
0.00756779
0.00659916
0.00115434
0.000793242
0.00536165
0.00173684
0.0032916
0.00231892
0.000675764
0.00266437
0.00722426
0.00756487
0.00583611
0.000802294
0.00723468
0.00401232
0.00473259
0.00757177
0.000563227
0.000285384
0.000178257
0.00180419
0.00265236
0.00708795
0.00713332
0.00375001
0.00566578
0.000376103
0.000617411
0.000684411
0.000328133
0.00116411
0.00201008
0.00739461
0.000754161
0.00699147
0.000235023
0.00399929
0.000650436
0.004649
0.00183707
0.00733923
0.00261711
0.00131004
0.0020833
0.00739271
0.00553068
0.00423151
0.000885437
0.00137539
0.00488955
0.0058311
0.000374703
0.000376135
0.00566879
0.00129611
0.000652036
0.00108821
0.00647805
0.00741187
0.000742871
0.000514747
0.00201957
0.00740152
0.000960509
0.00730769
0.000726256
0.000679057
0.000566424
0.00300343
0.00696408
0.00214742
0.0074933
0.00569621
0.00461706
0.00208834
0.00644658
0.00509608
0.00668157
0.00414873
0.00575011
0.007432
0.00746431
0.00414925
0.00737786
0.00738884
0.00474417
0.00695042
0.00192505
0.00410876
0.00242873
0.0041247
0.00739489
0.00692878
0.000922655
0.00636372
0.00403564
0.00217007
0.000354636
0.00619908
0.00187384
0.00434303
0.000964298
0.00189327
0.00122915
0.00379475
0.00743683
0.00646365
0.00425583
0.00726106
0.00424351
0.00382457
0.00471349
0.00674499
0.00600605
0.00727768
0.00586372
0.00344284
0.00670127
0.00256887
0.000588956
0.00443915
0.00475949
0.00534153
0.00344568
0.00122816
0.00187055
0.00474032
0.00582518
0.0036362
0.00101146
0.000842715
0.00553989
0.00351297
0.000278238
0.00161422
0.00206611
0.00423303
0.00171318
0.00329228
0.00470373
0.00433292
0.000994128
0.00482717
0.00448932
0.00164686
0.0067364
0.00207019
0.00350528
0.00334431
0.00388465
0.00126375
0.00536403
0.00687904
0.00748944
0.00265448
0.00517372
0.0045319
0.0026989
0.00666437
0.000999189
0.00306406
0.00439897
0.000330691
0.00237101
0.00746191
0.00376562
0.000595101
0.00274606
0.00247408
0.0074993
0.00290745
0.00128818
0.00664474
0.00750938
0.000566957
0.00185295
0.00158395
0.00191021
0.00729929
0.00621009
0.00100351
0.000602866
0.000656156
0.00745746
0.00610087
0.000431966
0.00744179
0.00207373
0.00442884
0.00168515
0.000896978
0.00731691
0.00440363
0.000782313
0.0040844
0.00627077
0.00637245
0.00391004
0.0057262
0.00114903
0.000258241
0.0048882
0.00388608
0.000642718
0.000554664
0.000530413
0.00243752
0.000784726
0.00250589
0.000430335
0.00179815
0.00138093
0.000755969
0.00515436
0.00348821
0.000954083
0.000711051
0.000293841
0.00748334
0.00741846
0.000748895
0.00639402
0.00435694
0.000520581
0.00649992
0.00413463
0.00630821
0.00589145
0.005298
0.0072841
0.000374067
0.000752399
0.00156271
0.00144053
0.00239041
0.00550867
0.00463934
0.00616988
0.00342001
0.00634151
0.00710522
0.00597156
0.00628263
0.000828594
0.00077104
0.00704738
0.00229234
0.00719929
0.00404208
0.00283413
0.00339195
0.0039756
0.00610519
0.0007501
0.00128931
0.00544903
0.000811277
0.00299404
0.0014412
0.00645672
0.00453068
0.000737656
0.00283475
0.00110394
0.00302707
0.00291907
0.00309585
0.00721552
0.000612556
0.0074965
0.00717053
0.00288409
0.0036092
0.00141654
0.00376802
0.00422833
0.00383296
0.00066134
0.00483046
0.0023187
0.00251732
0.00748324
0.00292672
0.00704439
0.00158803
0.000148993
0.00433136
0.000447179
0.00397954
0.00599214
0.0023984
0.00580442
0.00647824
0.00643888
0.00372246
0.00111048
0.00115949
0.00171698
0.000566582
0.00245389
0.00602187
0.000254526
0.000968236
0.00718493
0.00158016
0.00153601
0.00496111
0.000718606
0.00037951
0.00266992
0.00109322
0.00145825
0.00405626
0.000771306
0.00215926
0.00616093
0.00310927
0.000795794
0.0009481
0.00752352
0.000937507
0.00581253
0.0012388
0.00655055
0.00154646
0.00388565
0.000997374
0.000758406
0.00596566
0.00549044
0.000171086
0.00753407
0.00534997
0.00099454
0.00667488
0.00297673
0.00275737
0.00361849
0.000362774
0.00136646
0.000191211
0.00129227
0.0032072
0.00129852
0.00741221
0.00680406
0.0011938
0.00755472
0.00415775
0.00174436
0.00651115
0.00143194
0.000720963
0.00729031
0.0020345
0.00715015
0.000797552
0.0051419
0.000456924
0.00323609
0.00247468
0.00719646
0.0027143
0.00264645
0.00722647
0.00663892
0.00389214
0.00756705
0.00100011
0.00561469
0.00267422
0.00659313
0.00588078
0.00374161
0.00289477
0.00241615
0.00186229
0.00345055
0.0058612
0.00437304
0.00190772
0.00104793
0.00062161
0.000693223
0.00135956
0.000994164
0.00238465
0.00300394
0.000328866
0.000966393
0.00104969
0.00215735
0.00361522
0.0018841
0.000817489
0.00329549
0.00124083
0.0021171
0.00681874
0.00310139
0.00138556
0.00419272
0.000782125
0.00335279
0.000798831
0.00213261
0.00104789
0.00137274
0.00215447
0.000754522
0.00196777
0.000814104
0.00304976
0.00156393
0.0053336
0.0018144
0.00652421
0.00665013
0.000982854
0.00423978
0.000688235
0.00136783
0.0062481
0.00238733
0.00625617
0.00130831
0.000999474
0.00706817
0.00648293
0.00186714
0.000754131
0.00491735
0.00294121
0.0012552
0.00100361
0.00700915
0.00732338
0.00404601
0.00601016
0.000684757
0.00726631
0.000916818
0.000272781
0.00631348
0.00359481
0.00653372
0.00583112
0.000598153
0.00243027
0.000637597
0.00496797
0.00631784
0.000366955
0.000700073
0.00694707
0.00261119
0.00694984
0.00728201
0.00105763
0.00334312
0.00057735
0.00531314
0.00726615
0.00213397
0.00692197
0.0054692
0.00677927
0.00650596
0.00279142
0.00196546
0.00133128
0.00174738
0.00124505
0.00365894
0.00735564
0.00228702
0.00118033
0.000695202
0.000932664
0.0013542
0.00190667
0.000797394
0.000959269
0.000966673
0.000863542
0.00570975
0.00217457
0.00413433
0.00146136
0.00422809
0.00184986
0.00354504
0.00183044
0.000428819
0.00158598
0.0011867
0.00184427
0.00686309
0.00360373
0.00680913
0.00673502
0.0063835
0.00211724
0.00421888
0.00337169
0.00719659
0.00336862
0.0015791
0.000754167
0.0057399
0.000560009
0.00694669
0.00489527
0.00752882
0.00506187
0.00104862
0.00270617
0.00124237
0.0017524
0.00518637
0.00467076
0.00474292
0.00688896
0.00301201
0.00471209
0.00229378
0.00667206
0.0008753
0.00373831
0.00155193
0.00296623
0.00124119
0.00680241
0.00475871
0.00439796
0.00230986
0.00210363
0.000766989
0.00748363
0.00612921
0.000783497
0.00249087
0.00234436
0.00339629
0.0024751
0.00251384
0.00340464
0.00701878
0.00693876
0.00622276
0.00225042
0.00189626
0.00642725
0.000207586
0.00692951
0.0027284
0.00714168
0.00736701
0.00170659
0.00466564
0.00629363
0.000972968
0.00721192
0.00255007
0.00182842
0.00304294
0.00748781
0.00103833
0.00736167
0.00720278
0.0011842
0.00332352
0.00289798
0.000833701
0.00740852
0.00256723
0.00152386
0.00178525
0.000919716
0.000734735
0.00519902
0.00497287
0.00296647
0.00600328
0.00234196
0.00127759
0.00679306
0.00747985
0.00247373
0.00102407
0.00303443
0.0044605
0.00188013
0.00354813
0.00159959
0.00675239
0.00212224
0.00149298
0.00442015
0.00691614
0.0056343
0.00671248
0.00406093
0.00449759
0.00232815
0.00429825
0.000466276
0.00507637
0.00744362
0.000667098
0.00292462
0.000554737
0.000765229
0.00713957
0.00479582
0.00109112
0.00208746
0.000741718
0.0014703
0.00115591
0.00152717
0.000698915
0.00312678
0.0021973
0.00219176
0.000537053
0.000878106
0.00303492
0.000801767
0.00067257
0.00106809
0.000199702
0.000832902
0.00216602
0.00130994
0.00101066
0.000638597
0.00740024
0.00389016
0.000777104
0.000900299
0.00100141
0.00158894
0.00172639
0.00054035
0.00186675
0.00375977
0.00510623
0.00749689
0.00355873
0.00735331
0.000819283
0.00298442
0.00399631
0.000682183
0.00517489
0.00239517
0.00633852
0.0065544
0.00328866
0.00677821
0.00178555
0.00745773
0.00234808
0.000459008
0.00650982
0.00710086
0.0052364
0.00679508
0.0011117
0.00189162
0.0062859
0.00689905
0.000542418
0.00734114
0.00598091
0.00667767
0.00217491
0.0041375
0.00487354
0.00701201
0.00653869
0.000308137
0.00592539
0.00218167
0.00679753
0.00717387
0.00731461
0.00696309
0.00525743
0.00397531
0.00739212
0.00466024
0.00418031
0.0028964
0.000909547
0.00130019
0.00475754
0.00199699
0.00467266
0.00275793
0.0034828
0.00401332
0.00695476
0.00236407
0.00445676
0.00648115
0.00217387
0.00409606
0.00372439
0.00110893
0.00516866
0.00293585
0.00130647
0.00475923
0.00110093
0.00410943
0.000919705
0.000315009
0.00297828
0.0066838
0.00126727
0.000457353
0.00283164
0.00699805
0.00744116
0.00705563
0.00616646
0.00506221
0.00747319
0.00750734
0.00495224
0.00363715
0.00718238
0.00724262
0.00744675
0.00659929
0.00276208
0.00180231
0.00326372
0.00698532
0.00472924
0.000772352
0.00677221
0.00708746
0.00402075
0.00046469
0.000394848
0.00385807
0.00507181
0.00682376
0.00369263
0.00544387
0.000514153
0.00196509
0.00582985
0.00412792
0.00695789
0.00450854
0.00232203
0.00476723
0.00340193
0.00511897
0.00133768
0.00196124
0.00129541
0.00106779
0.000288573
0.0014198
0.00194237
0.00502678
0.00475704
0.00389735
0.00331926
0.00715959
0.00548032
0.000377657
0.00725567
0.00190535
0.000726604
0.00350388
0.00305567
0.000595743
0.00188888
0.00554682
0.00401929
0.00735281
0.00202911
0.000807991
0.00403156
0.0016934
0.00151052
0.00254468
0.000540271
0.000669788
0.00411878
0.00534821
0.000994667
0.00601034
0.000661693
0.000680785
0.00079027
0.00554659
0.00733461
0.000449262
0.00686146
0.000437088
0.00225905
0.0037135
0.000784301
0.00106141
0.00631687
0.00747838
0.00104509
0.00717544
0.00722645
0.00632036
0.00728615
0.00448766
0.00671522
0.00252247
0.00651654
0.000295973
0.00354686
0.00619296
0.0051956
0.000258195
0.00457793
0.000417922
0.00614422
0.00440565
0.00466481
0.00111777
0.00663348
0.00392399
0.00668073
0.000666433
0.00203783
0.00198785
0.00110704
0.00329303
0.00691616
0.000946333
0.00362812
0.00343596
0.00309349
0.00672574
0.00356516
0.00548125
0.00750588
0.000380457
0.00151372
0.00559088
0.00666747
0.0017741
0.00627799
0.00320298
0.00435832
0.00671415
0.00131524
0.0061832
0.00672344
0.004742
0.00153417
0.00575646
0.00611158
0.00640855
0.0038905
0.00756934
0.0059026
0.0069689
0.00289784
0.00650223
0.00128251
0.00258288
0.00490062
0.000781355
0.00679274
0.00344174
0.00103941
0.00105614
0.000854526
0.00463135
0.00256911
0.00222086
0.000532493
0.00402863
0.00259649
0.00402963
0.00697689
0.00381088
0.00184156
0.00410449
0.00674474
0.0071515
0.00715246
0.000291216
0.00713897
0.00670016
0.00300527
0.000386255
0.00068446
0.00528092
0.000208519
0.000476567
0.000864626
0.000928811
0.0007532
0.000711149
0.00632221
0.000812532
0.0040972
0.00733151
0.00153667
0.000460977
0.00242081
0.00735793
0.0071161
0.000704224
0.00651392
0.000449793
0.00738269
0.00294179
0.00674999
0.00279173
0.000539609
0.00707706
0.00323207
0.00331766
0.00716348
0.00370492
0.00733956
0.00185666
0.000488632
0.000385528
0.000700438
0.00162091
0.00152532
0.0074448
0.00720525
0.00681163
0.00394834
0.00737868
0.00187153
0.00751934
0.000998313
0.00427357
0.0072119
0.00705075
0.00494251
0.0070922
0.0043564
0.00339565
0.00753422
0.00352484
0.000766746
0.00672382
0.0013933
0.000791144
0.0061743
0.000198898
0.000428552
0.0025234
0.00295618
0.00534137
0.00131861
0.00551596
0.00220407
0.00102809
0.00695903
0.00181453
0.00696409
0.00256405
0.00543643
0.0029971
0.00233232
0.000536236
0.0033949
0.00442419
0.000701799
0.00172321
0.00214306
0.000776855
0.00538961
0.00129858
0.00558945
0.00193517
0.00282274
0.00601682
0.00115935
0.00379707
0.00403261
0.00729659
0.000765236
0.000782028
0.000642881
0.00664561
0.00472437
0.000951431
0.000697185
0.0017357
0.00522227
0.00267791
0.00128709
0.000868776
0.00216354
0.00712551
0.00126118
0.00441933
0.00683772
0.00416586
0.000626653
0.0065899
0.00209033
0.00318911
0.00689383
0.00299152
0.00284193
0.00736409
0.00547703
0.00193647
0.0023021
0.000619343
0.00597106
0.00154751
0.00256202
0.00360413
0.0032017
0.00194215
0.00137458
0.00370073
0.00669107
0.0070593
0.00679766
0.000530784
0.00585276
0.000976268
0.00336467
0.00606923
0.00654371
0.00442305
0.00754372
0.0026248
0.00734532