/*--------------------------------*- C++ -*----------------------------------*\
| =========                 |                                                 |
| \\      /  F ield         | OpenFOAM: The Open Source CFD Toolbox           |
|  \\    /   O peration     | Version:  2506                                  |
|   \\  /    A nd           | Website:  www.openfoam.com                      |
|    \\/     M anipulation  |                                                 |
\*---------------------------------------------------------------------------*/
FoamFile
{
    version     2.0;
    format      ascii;
    arch        "LSB;label=32;scalar=64";
    class       volScalarField;
    location    "0.0100321";
    object      omega;
}
// * * * * * * * * * * * * * * * * * * * * * * * * * * * * * * * * * * * * * //

dimensions      [0 0 -1 0 0 0 0];

internalField   nonuniform List<scalar> 
47425
(
53.0864
70.8171
57.9275
152.94
72.4568
66.9373
64.6075
96.3188
51.3723
244.204
138.361
51.8425
60.6355
66.1191
79.4051
94.5904
56.6097
60.1793
787.961
135.049
71.9912
49.6473
102.134
56.2202
51.1578
51.0576
63.2011
636.642
56.3784
56.1584
54.1131
49.902
54.8392
59.2565
50.9883
64.5044
50.2439
73.7247
66.7125
66.0206
74.3109
50.8491
51.2074
146.52
1544.93
110.592
88.7188
79.4613
70.1183
50.9583
465.38
63.7772
52.1487
460.228
116.2
116.851
49.8813
60.9782
68.1698
61.8564
623.543
1496.89
643.528
53.6666
52.958
52.1791
62.8682
54.9163
581.696
55.3293
64.6332
52.9799
53.648
76.572
442.781
52.4541
643.588
74.8762
1211.52
91.6487
470.994
58.3388
51.926
56.606
50.0528
71.199
51.9692
49.7549
57.3806
158.728
50.3751
79.0025
50.6299
109.924
148.476
189.463
50.056
49.6903
67.6202
81.3383
57.8361
91.2725
52.03
102.446
50.1892
54.3664
50.6737
68.7404
48.8582
51.6423
228.715
57.1225
54.966
145.263
54.8323
838.357
53.9403
201.049
84.4766
57.303
59.6587
52.8261
57.5123
59.4265
99.8866
57.7249
76.611
50.6175
99.9282
51.4025
51.7847
103.508
128.345
125.937
52.4591
62.9077
55.1074
58.6722
65.0356
86.7884
72.6586
135.519
63.4619
58.7847
54.4172
51.8832
60.2516
58.5073
148.34
74.4298
57.5131
450.329
55.3665
643.762
53.8468
83.9745
57.7008
782.839
96.9776
74.0831
54.4055
50.4666
51.718
51.3391
260.295
720.904
50.3341
449.107
101.742
605.405
440.839
90.6634
74.5397
51.6691
75.8942
72.3272
652.227
58.3919
53.2539
49.0139
860.102
49.9437
54.196
51.9169
50.4983
54.1046
53.5914
83.3368
139.873
52.8748
53.8787
59.3202
71.1223
80.5011
49.9873
52.3581
67.0461
65.8107
52.7172
63.6399
66.2564
119.343
49.4812
52.0591
55.4815
152.009
52.8332
51.9553
90.552
55.9154
57.9372
57.2854
54.0751
64.3796
58.4272
56.8555
62.8514
97.6605
55.2977
97.4468
120.225
77.6737
53.3937
71.4618
167.305
105.42
50.4063
117.685
57.9885
64.6
58.9536
70.6681
109.512
49.8547
157.653
85.1978
115.423
121.383
96.8806
173.532
62.978
53.3079
49.9649
76.676
51.2195
63.2893
55.1544
78.5596
49.448
67.6524
49.3078
83.5758
58.1739
52.3301
84.1073
50.6359
50.4555
120.463
74.4151
56.7152
128.003
55.2743
63.2048
130.976
59.8778
94.3152
49.8561
59.718
55.4371
71.4304
67.2454
88.9548
107.36
54.1401
79.8055
175.013
82.4633
142.463
98.2307
181.78
591.951
51.8177
595.997
126.678
70.674
64.3422
102.691
66.8706
93.1804
55.3593
501.604
54.7999
51.0015
52.5101
53.7487
99.6646
95.4478
54.2793
58.5647
59.3716
94.3302
50.9353
91.9975
53.4262
587.261
887.944
601.792
49.2582
50.5063
52.2944
99.8771
572.902
77.62
114.957
111.965
77.7501
99.8805
125.592
69.96
248.005
103.836
50.3511
54.3147
50.0412
87.2175
50.0326
66.5556
54.5071
51.8301
67.3636
60.2002
396.159
54.592
65.9703
131.133
50.5761
409.115
50.9747
49.7194
54.4217
53.5339
53.7985
49.98
50.72
51.8498
57.3015
59.5185
53.088
64.6731
89.1893
52.531
52.6536
60.1849
51.9306
51.9112
59.8001
73.9132
50.4062
55.3364
95.7188
64.1354
56.5294
85.3879
78.703
51.8982
51.8279
134.893
56.7844
64.1637
52.1683
135.376
520.333
65.4539
50.346
200.447
50.1941
51.9573
97.1677
78.4192
50.5139
71.3462
50.794
49.3714
76.1215
89.6955
85.5478
84.9174
51.7114
56.0179
80.993
52.3771
53.9681
75.1706
55.9403
62.5583
52.3956
56.3129
86.7529
69.6186
51.1747
276.597
49.8487
174.793
74.8516
109.455
107.87
50.5868
136.231
49.4963
94.8774
53.3039
1235.17
264.465
53.7918
57.4255
68.5794
73.2307
73.8243
75.833
63.5204
89.6279
68.3556
50.9249
90.3782
58.1743
51.25
66.7764
59.9153
54.2111
136.4
1110.56
52.6478
267.486
868.341
93.0339
868.049
562.155
51.7025
64.5793
62.4194
60.7407
546.122
94.2199
50.4326
51.9269
57.7406
58.9416
78.27
71.7985
243.821
565.714
130.141
70.8493
77.2937
58.1563
54.6214
52.7984
60.1054
53.7199
86.0602
78.845
134.296
68.7543
50.5199
66.6513
53.7803
82.9229
53.2404
56.9567
61.9397
68.0776
67.795
110.236
129.355
58.6861
88.2119
53.6312
285.979
121.289
73.8236
53.1148
142.848
82.9523
54.3212
51.4355
55.5099
59.3366
58.4542
56.2503
112.237
60.2742
54.4295
53.0607
154.839
95.0325
50.2105
59.0112
53.1562
62.4366
50.2468
54.68
50.4064
64.5688
56.4451
110.34
57.8708
49.5581
49.2048
55.3197
72.3357
127.204
53.2498
50.5469
53.8938
51.3021
52.9633
55.4279
74.5784
67.0634
56.7189
79.2365
103.571
374.453
64.1103
67.2262
56.7404
50.9702
95.6906
96.607
81.4673
54.0502
85.012
62.8946
53.2805
104.702
51.8866
355.985
56.9318
58.3692
62.1432
95.4991
49.2827
63.1988
63.8652
51.0047
50.1004
52.5298
938.913
53.4835
154.109
51.5818
83.7216
56.2077
59.1855
75.1726
72.5534
73.3857
50.1217
315.524
51.1504
53.0623
52.3456
51.5679
49.935
65.7439
63.0448
56.0868
52.3816
64.6476
49.7047
155.636
51.7112
59.4468
337.617
67.8879
51.5545
178.139
431.296
50.1238
676.89
702.28
59.6813
56.7828
50.7874
50.6448
88.517
93.9843
284.623
52.8252
135.407
52.3693
86.1685
64.1292
87.6614
61.5838
198.96
82.4665
52.2538
81.1258
72.8622
66.4631
120.879
127.519
50.9141
91.9417
135.005
63.8167
69.9316
99.5797
58.4645
50.825
105.488
93.4589
63.65
125.415
106.782
54.8698
78.6655
55.1797
63.8783
69.0675
53.9248
51.3349
1353.91
56.5614
64.3622
799.939
819.374
49.0018
79.8109
1401.44
178.085
86.3945
148.656
121.38
541.87
55.3941
49.9021
67.297
102.923
115.703
115.552
50.9205
122.42
60.6216
70.0979
53.9514
79.8304
55.9495
167.088
545.747
121.916
60.7051
87.6325
52.0523
111.376
56.1737
66.6007
73.5887
64.1962
52.1428
189.617
76.779
52.8608
77.5131
194.823
678.764
170.052
89.9595
53.5943
75.781
49.4062
744.308
67.1477
363.655
81.133
64.4685
60.0338
67.6784
63.6263
63.965
68.4419
76.0497
50.9999
209.301
61.8949
51.2005
62.8692
90.9599
865.493
59.871
206.76
61.1274
51.2987
49.5393
149.685
66.0727
63.6049
51.2909
62.0895
60.7299
73.4194
73.3337
76.36
57.4711
119.894
192.624
63.3519
95.1499
64.292
110.33
73.5959
49.2705
52.2212
57.0715
60.202
70.0339
50.5196
304.459
241.504
87.1655
61.715
50.7947
88.4901
50.9736
136.181
53.8441
136.712
87.2488
49.5718
73.51
50.3096
55.4451
64.6667
50.8942
86.2508
51.4734
51.5798
55.8027
154.947
49.3226
257.923
100.224
190.277
379.211
79.903
59.3217
61.0716
61.049
135.62
342.981
303.914
64.5006
54.3353
63.5302
123.96
148.254
133.186
91.0124
53.2048
58.8677
64.3262
118.794
58.1381
86.7136
207.925
64.3707
68.0761
155.518
114.181
107.904
57.7355
542.474
324.431
218.757
243.637
87.4956
125.332
50.4136
50.2803
70.6156
412.894
190.752
68.5213
74.6376
49.4881
262.531
375.871
49.6439
172.241
84.6692
49.81
170.688
49.7577
49.9162
65.5357
72.0627
90.2057
50.7374
49.8546
54.8046
71.2636
70.0851
130.08
90.5903
49.2588
265.774
52.3668
49.6532
50.4588
207.848
82.1633
258.18
84.9424
51.5324
55.3278
71.6466
982.025
69.5861
79.2353
82.4044
67.3299
61.4417
122.014
117.525
130.216
315.025
78.3479
586.281
52.4115
68.4275
51.5856
64.0733
51.1876
164.716
129.346
51.9156
340.359
106.482
62.5583
141.724
63.6732
51.6669
71.689
67.9924
69.163
90.018
378.402
63.8134
66.2302
205.979
223.396
636.017
220.71
91.8776
188.698
54.2329
50.5021
83.5672
76.8876
80.2505
84.3255
94.112
88.0285
52.6389
56.6544
111.356
101.54
90.2423
73.5747
1419.85
76.7208
55.7542
83.3522
172.727
131.747
225.232
95.87
70.5788
99.3752
95.2405
56.0835
51.0198
54.5945
98.9158
236.88
102.711
66.5816
91.8037
50.0951
109.959
131.114
84.7356
143.455
51.1718
71.8058
132.763
100.799
72.5569
68.5915
107.516
96.5036
84.0098
66.0461
148.747
59.1989
54.8772
55.3881
88.7123
54.8857
147.881
53.6671
228.894
312.887
79.9314
78.2935
87.8358
54.0238
72.5172
114.1
437.581
99.02
404.584
53.7897
62.6009
55.6004
172.533
73.6391
231.242
239.363
235.735
63.374
278.311
78.9996
66.7995
62.1222
57.3287
56.8253
71.3268
74.6847
80.848
65.2781
52.2087
60.0658
240.445
632.377
137.976
161.489
523.888
192.41
95.4656
77.2172
64.8476
104.395
174.904
189.928
387.478
55.2173
56.3647
60.8372
55.8662
67.7164
103.718
81.667
57.1865
102.621
52.78
75.6385
51.1283
54.3532
118.822
62.5028
122.79
56.9228
53.7384
163.539
51.5141
69.377
80.2968
56.7476
66.431
108.42
62.2083
63.0641
60.1914
133.538
186.143
121.333
92.389
1696.15
850.751
145.644
420.909
110.108
57.9941
1602.82
283.15
57.9198
70.9798
107.595
88.9537
290.514
135.702
55.6662
118.009
61.0766
51.8052
199.826
823.565
110.291
1375.43
138.738
249.77
1306.6
53.6928
80.9609
131.349
156.247
98.269
54.7111
58.0275
740.513
51.8125
131.858
63.2811
160.163
49.6412
55.0071
173.746
180.052
87.7599
61.7862
60.8526
268.817
51.3573
49.5397
109.831
214.772
73.1667
55.4099
953.592
663.697
257.072
98.5234
71.586
140.797
323.013
70.658
110.839
86.8758
56.7844
81.9003
157.852
985.719
61.9686
61.3554
57.9849
53.4692
58.1588
74.7559
133.182
61.6883
51.0718
51.5193
62.8451
247.608
1516.13
55.2003
247.985
73.2377
65.0103
124.86
51.4265
80.5098
60.3498
59.2199
201.528
53.6751
435.033
49.6917
748.184
873.133
240.57
203.903
55.5479
66.6249
107.387
51.3714
198.974
1784.39
109.154
273.769
188.435
388.971
128.926
715.256
419.38
91.7971
51.2053
2331.06
71.8066
53.0787
68.6414
394.81
1132.18
69.4552
56.0938
359.37
73.9499
353.309
655.965
109.421
128.35
889.984
108.618
56.6927
568.273
52.6473
1012.8
985.944
50.1826
62.7704
76.0599
54.5259
128.05
85.1583
53.5594
127.83
91.4208
116.342
62.7023
53.7463
125.368
54.5464
700.061
59.8584
90.9432
85.2021
51.1274
673.17
74.4177
118.556
145.065
198.098
81.2506
553.649
182.751
133.285
58.4931
1457.53
200.009
112.075
72.6641
148.88
65.9584
78.0749
59.9579
288.141
389.211
87.2704
607.572
151.308
98.6333
172.146
131.623
139.006
530.018
98.7694
50.0003
141.039
84.4758
149.858
154.793
615.221
55.4118
55.817
67.0204
861.874
67.8406
347.902
62.1605
63.2554
54.3898
70.4598
61.2393
184.057
166.909
58.2163
69.46
90.8722
73.6625
866.64
113.905
81.3312
693.086
250.774
123.606
110.297
69.2662
62.575
803.866
64.881
781.564
110.621
56.4709
64.2474
61.1008
98.1381
61.993
75.1021
87.9153
78.4226
61.7206
70.0628
71.5254
72.4786
66.7589
204.374
160.164
89.0544
54.4799
690.999
251.98
69.6286
326.363
296.74
52.1191
117.321
490.67
230.503
57.3175
78.551
112.105
113.539
240.362
53.6561
515.102
94.5211
53.0981
67.283
112.577
111.57
130.246
67.5724
198.4
49.6904
323.461
112.713
906.75
148.119
61.7576
123.031
100.813
63.8693
67.5925
65.6217
81.5824
1166.54
69.4289
65.6263
776.953
49.7238
71.1283
369.185
57.7694
130.247
650.119
144.206
81.9098
70.1946
854.851
160.198
252.956
113.268
79.7682
60.274
104.134
415.582
689.936
74.6496
89.4768
58.5632
86.3248
83.705
132.533
290.21
97.2631
53.1695
58.2426
55.1663
55.8594
89.2788
56.1499
58.8336
125.088
96.8885
51.5679
135.33
82.4005
66.4153
52.5905
135.556
60.343
54.5112
51.0882
107.381
93.9979
53.8461
99.2198
579.528
87.7748
55.6155
51.8152
50.4918
165.694
57.3461
52.7607
525.74
685.902
256.866
53.4189
563.416
158.782
51.0688
800.203
111.127
786.285
99.8453
69.3038
86.5616
72.5623
49.751
87.8045
86.2191
94.4524
107.321
73.9095
108.004
142.096
80.918
67.1223
358.641
84.207
1257.33
75.1223
574.186
50.7405
123.211
189.287
51.661
69.5883
188.739
49.86
208.318
156.528
1050.23
60.5056
346.134
54.5425
114.507
75.7913
53.9933
460.106
56.3766
220.197
53.2982
564.605
589.423
76.3786
49.8205
282.763
74.3977
273.959
60.6302
99.0605
67.1315
66.6503
54.6905
55.117
62.2732
144.727
60.3406
179.347
89.0748
66.0067
51.1921
146.918
217.257
88.0414
136.267
52.5596
62.824
122.976
85.593
65.6647
52.8348
157.335
123.813
52.5171
71.3247
62.0754
71.6721
94.675
111.838
151.372
69.6225
95.2288
123.466
81.2965
52.4162
61.4743
50.5132
176.864
169.141
202.822
106.882
71.5068
65.4617
72.4587
53.3955
52.0187
57.7916
428.061
130.511
608.81
435.447
563.914
55.2894
60.824
57.548
59.1668
52.9394
260.179
73.2918
49.8176
79.0874
105.34
66.932
108.701
61.9849
158.32
65.2988
104.66
50.4801
68.7956
83.9079
94.0487
62.7982
120.317
85.823
75.0547
69.9056
70.4403
77.874
152.089
177.929
53.7623
86.4197
111.519
100.737
171.331
51.3147
50.9701
118.613
57.3878
52.7917
78.7432
51.0142
51.773
68.6507
77.1688
134.704
69.7028
82.3286
51.982
64.58
452.804
79.9729
87.9356
54.697
57.2292
91.9368
88.2586
787.019
111.558
146.734
49.7002
56.0623
74.0952
50.8264
52.9266
111.757
87.4543
51.96
49.3052
121.515
101.569
436.281
123.75
117.898
102.281
68.1558
111.218
169.775
175.296
74.7123
74.717
817.372
58.629
77.8771
93.4093
89.3862
51.8042
868.874
63.7082
98.7146
56.8928
124.563
60.2
890.005
904.737
65.0591
51.0338
50.0943
94.2207
100.013
55.9526
1058.64
547.305
57.8368
144.363
259.919
57.9901
51.1597
91.0535
50.8604
58.8068
52.7123
68.3063
76.9495
85.7723
75.1792
53.05
62.279
67.4258
53.1075
168.661
68.0734
75.5924
113.692
269.704
160.958
106.076
135.42
63.8841
134.516
128.934
55.3056
538.915
163.022
132.561
75.1283
105.892
95.1907
93.4057
136.036
50.5262
50.3368
71.1131
70.2566
131.785
81.2527
310.148
434.734
54.4835
133.058
51.0607
50.9559
81.9042
58.5678
67.9809
52.2569
50.4241
204.559
375.53
50.3854
50.6352
74.3456
933.984
59.6946
50.2061
57.8196
132.15
826.584
69.5075
249.021
131.109
206.775
286.362
75.1132
52.2782
49.9597
68.0796
859.26
52.3087
87.6459
80.1944
51.0533
472.298
828.324
825.14
215.367
152.467
54.229
54.8721
58.3027
68.9715
515.776
391.421
379.696
492.344
274.333
65.0856
51.8632
763.379
55.0876
802.917
97.5401
795.197
83.117
124.113
52.689
85.8604
172.132
173.345
51.3302
69.0501
90.9817
87.8312
70.6712
79.3135
65.9996
961.545
551.74
68.1005
170.351
465.499
161.639
57.9639
51.2374
413.063
317.363
213.069
53.7156
867.847
51.9388
745.909
1386.87
507.473
134.51
55.6039
60.0267
48.6848
67.0257
80.1805
134.754
59.9455
74.5988
55.9241
91.2195
65.1874
51.0126
50.066
100.748
51.067
50.5832
82.3392
55.6865
85.7876
94.0485
158.224
92.6633
51.301
56.408
106.686
58.1661
92.6605
118.574
1238.78
57.0281
413.017
64.3941
97.942
120.643
74.8028
61.7227
50.9783
60.1269
89.1908
51.4978
90.521
97.8869
78.9258
57.4587
64.5386
51.0132
62.5464
114.072
57.0771
101.863
256.219
86.2236
79.4961
70.5494
109.815
82.3798
164.984
53.0238
66.2553
104.614
152.075
166.209
69.1859
110.903
863.054
248.294
188.009
90.1372
71.8415
116.071
78.7601
54.0795
124.494
79.8632
84.2983
87.2196
56.5469
165.307
109.025
118.639
98.6648
202.831
71.8862
54.7685
51.6209
57.8452
71.6104
84.3657
255.346
56.2317
88.0695
127.975
87.9477
745.393
60.1034
50.5406
105.393
278.542
160.242
156.729
50.4207
135.869
72.2433
58.1012
51.3699
482.054
98.4356
63.5025
243.162
52.6913
61.6691
144.022
695.002
799.337
50.9742
64.2867
953.993
51.577
92.4731
69.3573
273.935
320.846
51.9589
87.376
928.553
93.6077
61.6227
59.1332
95.9254
57.0426
73.3713
375.105
54.6651
96.2064
508.166
148.959
499.378
82.0212
341.739
56.6183
952.611
109.19
108.635
476.732
76.6822
100.719
335.613
263.516
299.47
51.1349
51.3092
411.677
59.9384
87.8024
354.958
59.1372
61.092
60.111
67.6731
71.5344
52.5108
710.32
389.789
115.913
209.132
166.618
69.7415
82.9574
63.0922
113.269
61.1083
53.4224
64.9505
61.6065
342.814
356.619
53.8093
58.7891
51.9769
65.8721
81.1079
107.665
95.753
64.5629
382.178
65.0602
64.1936
235.985
126.378
302.247
59.9897
84.2969
417.332
139.33
108.443
141.983
134.864
122.828
52.7447
881.102
50.4531
51.64
61.9063
88.9842
74.7927
100.569
93.9186
99.8951
157.684
77.9792
112.782
103.456
50.6379
71.7674
54.4078
185.945
1008.01
86.8951
288.423
77.006
63.679
301.674
65.6309
58.7731
59.2887
69.3597
502.596
137.696
58.6593
298.629
179.542
64.4664
1677.78
303.802
53.7262
136.838
69.3603
75.7218
219.291
368.32
146.557
629.787
63.8903
54.3319
147.799
58.2766
53.1615
104.155
251.434
353.642
49.5117
132.521
55.5312
146.255
59.2974
145.773
108.929
90.7955
233.255
64.9113
71.5238
650.512
50.6066
53.3279
127.079
57.0957
132.389
175.199
56.7142
896.486
476.361
743.867
303.208
121.49
73.314
50.3331
56.3403
88.3129
50.4521
89.7265
149.457
57.783
76.504
501.766
52.7773
128.991
53.5986
123.394
61.5165
667.793
117.072
76.8304
53.9157
139.483
150.228
53.5217
58.1468
97.4834
49.6516
191.596
66.601
108.306
59.0172
54.6885
101.904
57.9926
131.403
119.978
53.8534
60.2297
53.5568
67.2031
246.744
213.38
136.34
242.63
610.828
116.232
68.5874
655.406
268.552
315.763
65.2519
124.393
110.379
261.827
131.191
707.441
61.8469
57.2628
111.516
506.207
59.9439
379.757
71.9788
384.677
75.9991
76.5921
384.944
181.607
232.982
66.2298
349.299
125.413
269.913
54.6898
216.138
57.6955
57.5649
93.3203
88.6272
305.86
99.6386
61.6371
164.42
61.8003
134.119
190.556
53.9078
59.8415
63.5973
757.722
66.5067
127.173
100.902
129.703
54.2451
52.9386
95.7666
64.0327
262.77
53.5569
106.733
345.529
59.7644
55.9424
59.5552
56.9487
479.155
140.102
172.988
76.5038
61.1273
1166.14
1476.1
54.2195
145.706
54.442
52.6288
273.8
67.8709
409.859
63.3497
52.3494
91.3929
55.4456
58.8617
56.4628
59.6308
139.445
115.719
139.159
136.914
74.557
74.8314
52.0937
166.615
443.921
747.635
78.3478
254.66
191.157
490.258
88.8016
370.4
109.742
69.434
130.11
89.7174
276.484
67.5001
142.332
107.709
61.2695
945.506
110.701
358.374
110.317
55.1945
104.65
55.9925
56.3576
58.1295
90.0562
88.5329
109.799
51.4729
113.304
210.416
128.754
66.1439
158.253
59.1198
60.0084
49.7067
75.0097
80.8995
148.401
75.8969
100.289
72.592
65.3109
79.6068
54.0961
64.0397
59.4899
78.7787
57.4948
99.5261
58.4973
69.6776
129.885
79.2799
57.6616
79.9626
84.7734
93.7586
130.245
281.966
49.6927
62.9637
340.739
160.075
157.859
55.9184
159.091
83.5982
116.112
54.6164
54.7619
62.0008
80.7111
63.4219
58.4202
660.267
56.9942
132.653
53.834
50.8961
148.483
82.4508
62.323
125.276
53.1452
87.0846
61.1831
180.925
50.3607
141.823
51.0081
53.251
83.5283
69.0981
133.907
101.546
51.46
116.82
71.7562
77.6767
101.533
632.045
55.4993
70.512
132.429
65.453
58.155
129.598
56.708
50.7902
110.047
180.635
128.207
87.6835
228.526
113.906
342.327
53.6989
184.335
68.8995
84.557
55.5063
60.0791
56.6467
62.3223
86.863
166.721
61.447
457.673
64.7992
52.0507
378.331
133.95
1784.29
277.227
54.1814
80.0819
102.545
124.29
417.603
70.5687
279.379
89.3058
394.31
68.0447
186.195
67.6682
230.997
196.75
129.817
265.861
438.774
770.064
1239.89
352.783
544.496
183.677
313.046
352.682
51.7163
102.257
249.992
74.9423
355.254
63.7378
295.563
518.007
128.4
103.864
74.5175
50.3186
106.391
51.4677
223.972
133.343
86.323
173.383
72.0991
155.642
61.3764
58.4229
117.184
57.0795
221.072
51.2626
74.2316
682.642
57.6068
54.2159
73.9755
55.5182
358.498
122.436
63.3684
55.5038
178.236
51.2633
66.0212
57.5327
61.4496
91.1382
77.2062
53.5975
57.3132
295.444
63.7078
69.0742
56.5576
54.1712
52.6029
56.5371
72.9564
96.1449
50.8098
67.977
89.5653
61.8299
193.521
78.7147
60.4559
66.5033
81.3396
143.721
111.635
95.424
54.8783
120.911
85.0961
61.0998
60.4923
80.7231
70.6956
98.1735
74.7627
134.081
73.006
66.5065
116.576
96.2837
550.89
1001.82
132.935
59.2386
150.38
161.694
71.1889
54.426
50.8106
54.3112
61.5068
75.2346
50.4407
52.5195
53.9076
103.478
53.7948
53.1091
50.7938
60.6324
114.308
61.1297
117.775
55.0377
79.9383
257.814
56.1469
52.7415
62.2376
804.149
1612.96
102.737
79.4782
56.4363
61.2002
66.5438
293.157
71.3859
65.1031
93.4429
55.2137
83.6657
59.9494
61.0691
112.453
73.6136
69.3406
205.204
132.933
69.767
1690.11
127.428
203.265
61.6575
78.8642
96.6784
118.244
53.1345
68.6532
316.379
53.6259
206.239
508.016
112.602
128.689
501.141
73.6107
68.4158
93.5478
52.1888
125.189
279.896
94.6768
88.3291
109.203
172.435
892.073
573.696
91.2762
55.2801
130.318
63.0184
169.804
148.838
473.586
52.4884
51.0362
493.71
56.3739
215.276
76.2903
102.455
579.672
599.455
54.7989
50.6788
655.215
53.9321
52.0933
58.3572
52.3171
86.2092
56.5128
201.243
59.2748
546.042
106.052
56.1218
71.4479
659.653
82.5878
543.694
64.0971
61.148
80.9073
89.3532
56.9919
63.2862
55.7367
459.111
101.847
102.462
349.784
113.866
55.1147
473.401
71.2987
113.839
70.9094
57.6478
106.908
64.6611
52.2633
252.099
74.2885
69.3618
55.5921
83.2695
61.4959
63.3753
57.2653
56.3608
160.365
61.2353
56.2868
79.697
255.683
65.1185
62.2062
59.8001
97.0523
49.4558
64.536
54.8335
131.251
59.5412
144.227
151.131
76.6354
398.834
57.9464
62.6834
259.02
259.984
593.165
82.596
218.826
62.0747
444.068
97.0263
136.789
97.0376
55.1559
98.9623
212.859
97.1205
56.7763
53.0992
52.9817
469.7
52.8731
57.8936
63.0118
2122.85
399.855
53.5637
1339.42
378.587
310.603
129.396
1295.41
379.231
61.0931
195.626
93.8634
52.3508
187.493
879.79
71.0186
51.8682
53.6675
492.713
60.1367
858.702
50.8976
130.928
57.654
130.016
319.141
53.973
119.187
113.512
53.1946
106.116
50.904
129.1
1508.19
1594.05
412.434
95.3163
277.459
50.9315
52.9321
54.6299
95.9322
51.075
62.7373
50.5651
78.8931
92.3741
53.0807
54.3163
77.7174
54.6035
86.4327
112.409
50.5541
108.21
131.629
57.7482
61.7881
765.44
62.41
736.198
538.488
133.424
135.446
69.7465
118.43
59.0074
60.7748
254.713
55.0533
67.6502
54.7692
61.3148
69.6952
126.721
77.6428
183.504
115.113
55.1533
423.981
65.1234
237.673
190.633
72.0147
742.688
67.5403
63.7621
60.617
64.5755
76.9013
57.7006
93.7842
51.8026
244.49
201.168
413.419
57.4605
63.0833
84.5048
384.504
115.524
72.7592
141.182
70.669
214.15
70.4857
53.5962
148.657
87.5214
56.45
91.2686
1121.26
58.1969
62.7932
123.082
55.4422
128.3
138.929
51.0129
68.7553
131.593
172.137
716.913
62.7328
208.063
146.922
99.9694
59.0788
189.241
91.2781
106.611
57.9393
53.6032
56.906
418.991
67.6501
107.441
77.0878
65.0829
58.6653
86.5603
50.5096
143.07
52.022
66.0001
168.903
107.296
69.3191
169.016
96.7873
82.9891
72.2916
126.448
50.4496
106.876
297.546
110.558
58.7374
51.9108
99.9536
52.2902
51.7002
82.8596
50.4159
109.465
88.389
50.4031
53.1158
105.524
88.2157
139.962
50.3698
685.274
50.492
96.6277
76.5991
54.7867
640.448
150.933
583.255
51.4485
62.8599
517.892
664.555
94.2961
94.6543
169.354
130.645
60.1111
59.7709
69.3338
150.38
81.4064
134.776
54.259
136.917
98.7155
106.881
52.0762
91.7234
51.1564
61.5677
357.938
96.8045
76.4995
53.03
109.032
87.2694
84.4692
138.295
53.4944
54.7377
63.1838
87.7912
84.8301
69.0798
107.332
62.3901
58.0176
53.4508
60.7573
63.225
53.3834
88.2428
66.5197
60.8144
1979.03
75.1252
62.3162
76.4886
51.8469
87.1265
183.96
56.9538
82.2336
80.1344
863.064
66.8877
62.0405
94.7971
1369.87
97.1466
144.041
125.469
74.9347
49.8487
64.0372
69.2426
736.98
95.9959
74.389
62.8377
52.5993
129.971
54.7616
688.39
160.837
114.404
77.7021
66.9987
104.407
92.5518
68.0557
213.342
116.681
331.925
56.542
139.519
444.637
119.536
58.8195
98.0617
60.054
489.073
65.1414
57.4588
84.5919
50.3966
57.0987
81.1305
52.0757
90.7778
51.1198
131.901
51.5014
79.6676
61.6715
143.056
84.8889
125.13
69.2859
491.659
102.045
122.417
76.4277
52.9547
106.323
61.2779
59.1234
65.471
62.4255
58.5201
121.414
51.1075
62.7549
51.385
215.97
87.9069
243.2
516.169
154.402
159.015
70.7995
70.7916
53.7619
191.986
90.0006
55.3053
52.2297
108.662
71.8674
54.5273
77.4248
956.955
74.7467
63.3442
65.7761
389.42
787.639
63.9363
476.92
516.008
188.782
230.385
158.779
352.23
74.4663
215.466
688.349
68.2496
54.6613
58.0405
96.0663
314.411
56.1374
53.2454
69.6102
153.062
157.165
735.172
111.044
791.529
114.263
55.7463
86.9229
58.9216
61.267
753.901
51.9181
165.527
388.501
55.3473
314.057
2005.17
56.4262
78.6549
71.9481
414.237
156.057
117.645
659.481
1075.83
93.9783
344.81
125.743
202.325
82.0872
54.0992
154.798
446.433
547.715
65.4438
111.821
134.707
99.2222
208.859
54.7738
61.3323
773.442
168.804
431.366
50.5104
231.99
62.2255
413.342
65.0754
91.1987
180.551
363.601
84.1152
98.5049
394.053
93.352
447.989
85.4092
76.1631
215.28
53.7413
161.138
53.7707
52.9416
51.3449
74.8906
358.316
420.613
176.062
63.5867
76.3807
169.907
62.8274
440.709
71.7849
60.3893
71.2853
111.478
155.366
537.749
52.9826
73.8049
69.7471
267.988
106.42
579.783
750.542
366.454
106.979
68.2365
306.734
386.679
136.967
60.3428
64.4999
50.2438
706.395
180.062
276.813
1694.91
239.578
90.2211
84.9975
626.499
368.847
77.0585
91.7702
101.947
362.459
61.3112
50.9859
92.1499
68.7142
533.419
318.845
211.912
67.4816
165.564
373.891
171.974
97.3364
693.502
245.232
623.548
197.373
206.734
469.201
150.622
61.7159
99.38
64.6583
54.1175
71.7514
64.5223
139.836
115.461
82.3465
179.457
181.155
140.117
55.2981
186.85
90.3154
62.8095
129.668
493.225
1008.1
526.73
67.426
108.379
67.3444
104.23
325.871
146.953
355.985
69.7869
420.832
264.914
170.9
55.006
51.3784
65.2075
66.5348
523.761
84.9246
61.4966
169.892
66.1061
717.991
287.843
94.6883
330.393
62.7683
52.2772
49.87
50.7742
102.626
70.5844
89.9486
129.277
67.6319
52.292
166.513
441.682
451.237
51.3268
106.084
60.3471
72.1815
62.129
505.257
56.7035
58.6194
55.7878
86.5172
53.5279
54.462
93.8197
55.5056
61.7494
58.6703
225.019
51.4323
66.012
86.1684
354.562
324.181
68.0118
600.557
563.859
59.1189
58.8674
152.818
61.1191
104.028
81.7467
83.2428
76.3773
144.962
71.4884
88.6082
858.892
337.196
96.4862
496.716
54.5597
54.6625
64.5663
51.1793
51.8914
69.7263
53.7157
69.0019
176.602
70.3094
400.143
58.3845
442.821
69.4666
49.8128
711.809
102.72
80.4975
486.223
93.6348
581.619
74.2283
299.684
50.6768
168.443
93.7773
190.581
52.4772
84.1163
72.0588
433.457
53.979
51.282
52.9076
81.2963
105.992
58.5485
61.1605
93.9151
52.8927
120.694
53.2965
62.0983
132.315
89.1713
131.543
60.2256
55.3811
56.3999
51.4652
59.7951
62.9213
50.5796
82.4621
51.867
218.305
117.831
59.6121
108.966
114.998
62.8513
82.4664
60.1476
126.95
155.369
56.0519
53.3461
90.2892
74.2489
288.981
371.941
437.818
66.2673
57.4758
55.9588
59.8961
75.202
731.999
226.938
64.222
61.0136
62.2735
54.036
50.0858
72.5352
139.558
146.791
428.992
151.618
63.1669
74.8317
72.1797
50.2633
266.482
74.298
58.3829
117.683
57.6817
834.132
73.6234
53.0033
66.2103
73.6435
137.122
489.66
52.2634
365.482
61.2965
656.439
93.4337
486.002
67.8974
52.8958
60.5273
107.196
60.1867
54.2621
104.726
49.1918
50.3192
58.4715
66.9116
187.114
64.5343
697.713
81.231
56.1404
126.128
173.209
52.7204
286.297
858.651
723.013
527.785
312.565
55.7356
385.899
351.387
75.5403
62.0467
59.4818
665.261
94.166
95.3435
49.399
68.0947
102.3
489.067
148.215
81.9607
50.1369
69.1042
222.935
54.7112
56.0822
430.102
342.613
257.955
628.686
71.9425
49.428
69.4861
71.2607
1000.6
52.4165
51.6951
51.0213
296.816
50.5741
59.5398
99.4436
99.2012
51.6968
83.8467
54.2247
135.373
62.8042
133.432
60.3584
188.942
93.7827
117.014
150.276
116.522
171.605
59.5289
598.08
91.4499
248.177
273.289
232.386
84.8243
64.4471
186.457
76.0511
49.5623
54.7084
50.4288
90.4306
551.789
119.803
51.6842
83.9386
59.9285
49.4184
120.594
58.2377
138.302
91.4558
57.3543
103.116
58.1829
66.9911
113.453
344.489
64.9497
99.4046
79.6806
109.105
468.74
178.127
350.43
725.276
136.538
57.8127
58.9837
50.2628
109.572
712.664
79.4783
749.06
113.99
55.148
120.636
389.681
57.1131
56.905
59.3936
69.8593
52.4269
158.278
58.1841
79.2602
122.644
50.7133
101.55
53.1061
120.721
54.909
59.1631
488.357
70.124
118.991
60.6303
56.3447
51.5264
93.2726
124.077
102.094
91.1912
67.9293
60.7322
67.4258
58.7759
232.144
59.014
59.8424
116.688
184.139
234.373
53.8084
87.3648
110.266
160.124
65.7978
135.831
54.0535
131.278
84.5484
56.1457
134.613
79.0969
51.8901
191.417
74.8601
53.1538
56.0146
132.704
91.743
94.3787
58.6981
117.435
85.0344
54.0497
94.4671
303.34
62.0175
64.0176
85.18
529.389
66.0274
75.6011
152.326
61.8719
144.84
56.6851
588.33
85.7222
73.4783
81.9501
55.0828
113.277
54.9615
373.359
50.486
68.4959
489.764
63.352
110.08
200.648
79.1055
54.4987
337.597
53.7079
51.6843
82.3668
118.266
60.7313
272.261
52.2644
387.899
112.218
50.9403
80.9289
121.957
604.878
181.317
75.6732
52.2089
120.193
295.829
469.999
112.431
127.063
869.741
198.871
101.387
132.9
82.506
102.717
65.3971
513.148
838.495
155.021
170.425
103.322
797.45
425.703
438.528
301.154
163.428
59.9865
56.6353
153.498
77.6234
477.541
338.769
64.0558
547.4
110.88
52.3804
57.1589
55.8262
110.512
85.9386
92.4798
78.997
141.277
184.893
787.45
59.9056
120.497
616.283
533.041
183.11
184.395
68.6846
684.262
50.2435
66.5777
355.45
149.613
54.0079
280.69
359.007
65.1286
108.952
59.2208
97.9912
53.6624
83.9377
175.236
86.8679
483.175
49.7376
59.1757
87.8013
432.353
173.578
124.017
165.72
119.953
123.908
64.6974
337.676
104.608
69.8759
163.011
761.439
213.973
56.543
235.961
161.237
81.2374
67.8769
125.894
55.7686
69.2765
78.6842
80.2564
73.7661
66.4669
81.2527
53.3568
50.9646
50.6138
104.255
55.6316
162.561
432.711
595.182
78.9888
74.0974
57.6738
57.6749
102.992
536.197
59.9188
147.013
71.1356
102.433
56.5943
71.5118
53.5865
218.468
50.4029
54.8984
219.712
55.3217
65.2806
70.4681
55.6064
316.233
74.0158
496.114
290.734
244.618
510.863
169.734
310.121
69.0339
76.5139
139.156
62.7983
297.542
74.0008
82.2731
112.985
70.202
67.0771
56.1837
58.3658
55.713
51.9683
87.4483
268.393
50.8677
743.265
115.291
274.383
121.581
183.99
1734.07
58.922
269.654
1423.04
72.1179
272.056
77.085
70.9964
631.511
880.153
239.487
157.138
62.5009
219.787
99.5905
422.015
55.5692
61.5233
196.512
924.853
60.7914
70.0597
58.1085
107.693
374.395
59.3976
498.433
287.892
532.186
630.707
60.6475
139.592
66.1948
490.782
373.163
266.599
166.007
74.6375
336.598
121.606
224.731
63.26
64.0484
58.0228
64.4658
60.7842
1505.25
62.1858
93.7193
70.7249
60.3423
71.1194
832.484
72.1742
189.564
289.612
70.5866
89.5734
128.756
50.1631
58.686
830.14
464.197
200.989
180.58
128.137
65.3664
356.648
58.7655
129.054
103.076
58.3482
355.582
102.689
133.588
360.13
69.2036
79.9186
81.7257
72.9279
58.5566
128.628
67.4371
315.763
59.9652
158.427
68.7685
189.283
65.9497
67.7703
379.391
124.995
224.311
51.7299
1633.62
53.2232
53.7567
55.2216
63.1671
70.4094
443.916
78.9245
52.6984
556.151
74.1592
54.0769
65.8359
663.511
50.9649
82.7857
768.561
96.9642
678.657
344.373
78.3315
82.0042
159.85
165.987
624.067
72.7626
249.161
73.1041
59.3918
167.704
70.7238
74.328
58.2437
391.488
351.695
315.095
160.288
95.2914
106.668