/*--------------------------------*- C++ -*----------------------------------*\
| =========                 |                                                 |
| \\      /  F ield         | OpenFOAM: The Open Source CFD Toolbox           |
|  \\    /   O peration     | Version:  2506                                  |
|   \\  /    A nd           | Website:  www.openfoam.com                      |
|    \\/     M anipulation  |                                                 |
\*---------------------------------------------------------------------------*/
FoamFile
{
    version     2.0;
    format      ascii;
    arch        "LSB;label=32;scalar=64";
    class       volScalarField;
    location    "0.0100321";
    object      p;
}
// * * * * * * * * * * * * * * * * * * * * * * * * * * * * * * * * * * * * * //

dimensions      [0 2 -2 0 0 0 0];

internalField   nonuniform List<scalar> 
47425
(
25.7737
27.5397
0.865926
37.415
26.6756
1.55252
27.5894
0.517626
71.1732
23.4366
0.132003
59.5062
29.9454
0.341873
35.1477
57.0746
1.56199
64.9635
-60.0325
15.8227
43.5552
55.7502
1.16525
19.1564
56.5992
17.5244
1.61917
5.85505
1.72006
5.03488
53.5649
56.253
65.9613
7.3519
0.881746
0.795841
56.1022
68.3527
43.298
25.3672
25.488
31.5481
32.4619
71.4714
22.3911
23.4419
2.1926
64.9797
20.8389
8.20297
90.4615
34.0086
4.56959
20.423
19.4688
44.5323
29.236
0.89676
22.928
1.51981
18.2674
20.1464
-1.19456
57.9732
67.668
39.7963
60.8624
32.3471
10.2044
59.8198
39.4992
14.9891
37.9431
45.8838
7.83438
73.9162
-0.425429
7.34916
-45.7861
26.5862
2.99672
46.843
59.3737
60.8607
26.3304
27.5541
36.1271
23.7126
32.5487
23.2142
53.9392
38.1421
9.41412
28.8128
32.9601
29.0953
7.18822
32.5389
26.9458
57.7961
62.5539
65.1781
46.0365
85.1742
47.4612
34.4743
27.9209
27.2747
24.6813
56.8747
6.16014
56.7859
33.7962
32.4349
34.6602
77.8096
35.0244
91.8741
45.3915
33.6322
31.4931
67.1991
62.9993
33.8521
56.5716
34.2093
25.5471
69.6239
16.3504
13.0692
58.0993
31.537
95.7489
45.3444
31.1834
33.6551
38.6029
34.155
54.4787
35.646
61.7101
29.7138
41.3987
34.0753
48.9403
69.8134
27.2755
63.001
42.506
63.9558
34.1363
84.8278
66.5343
39.7825
59.6334
21.9875
44.8735
-69.593
25.9418
4.04443
34.8201
17.3607
14.8032
48.3297
4.6345
-33.8189
63.9045
5.25168
17.2553
2.48763
5.34154
14.9571
62.4418
56.9234
24.8439
50.8363
75.6189
0.328872
2.66651
7.39528
69.6392
21.3292
2.28402
4.85714
5.98827
63.7171
47.3412
90.7478
6.98792
25.9507
62.7063
5.66708
29.6338
65.6691
9.40823
35.6169
63.2146
17.5952
35.1503
31.9493
7.92932
35.1768
27.4281
35.4578
47.5413
37.6225
1.91644
35.7782
57.3378
67.5645
27.4552
35.5288
59.3086
18.3985
34.8167
34.5555
35.3894
25.6728
59.3806
61.3546
25.4116
33.618
33.6204
38.8186
39.616
26.3186
8.35406
33.7858
34.1433
31.5154
38.2737
5.87942
33.1922
68.9469
3.21057
53.7674
24.2113
9.01292
25.3263
2.39039
4.87625
7.88805
8.8662
32.0378
44.91
72.4016
27.8735
71.1797
14.7372
1.33541
20.2025
27.5765
1.23209
68.1479
4.05597
2.73848
54.212
5.04019
42.7199
67.1798
7.8115
69.0845
47.5134
51.0543
31.357
31.5229
2.76693
31.6151
3.75783
48.3612
51.1587
25.4695
24.3062
51.6322
26.5017
53.5643
26.1623
68.3357
25.5334
75.8009
22.3339
26.4252
20.0221
13.2504
11.4232
35.4418
9.33403
0.272002
28.5204
34.468
98.4892
56.865
69.6999
1.92106
0.634757
42.6112
32.688
46.5372
56.0881
31.6644
28.6605
18.598
5.15949
2.3092
-41.5588
-56.3014
80.3963
8.07218
15.1621
49.3259
50.6372
93.0628
-0.113688
0.511415
30.2337
30.4089
12.0448
11.4288
3.33772
2.07967
30.3635
54.8425
54.5609
-1.15697
28.9757
0.330519
51.065
22.6365
9.26564
2.87514
33.327
-23.3294
47.1519
2.03368
64.7062
-0.227493
-26.019
57.9015
12.7222
16.1408
47.4366
48.5118
22.5987
54.5554
10.1994
-0.578874
2.92715
54.3705
-0.611426
7.63802
50.1697
45.8679
54.3706
53.2044
51.8289
34.68
8.39687
57.9446
48.3498
66.0807
47.9013
33.58
12.8279
-0.220085
45.7864
32.4898
2.54313
65.5565
56.8068
47.0652
2.05239
21.5485
34.6576
47.9089
73.2087
48.0732
31.7242
59.4832
69.4511
55.8478
64.5446
48.0028
18.5501
66.2585
19.2886
67.8188
1.69771
49.2293
60.7981
2.53408
44.4853
45.4695
1.59263
43.2217
11.0944
44.8942
56.9452
2.97981
27.5931
5.87824
22.9706
7.31455
22.7426
5.30607
38.9044
4.95346
5.85825
4.27579
0.871529
0.657253
45.7943
-73.2654
101.303
18.1213
45.4596
44.6481
42.8345
16.7926
0.775517
8.31258
3.05629
14.0161
25.8451
41.5454
2.07298
0.622242
33.1362
36.4092
37.2158
59.3369
-45.3628
32.4074
69.295
-37.877
27.2466
-52.1735
20.1396
16.8127
40.1709
41.0961
38.4698
-50.1378
23.557
17.2057
8.92514
38.2141
40.3407
24.5134
25.1875
26.3373
-40.9247
23.8132
65.797
62.403
33.1303
18.4611
38.3992
31.2528
38.395
63.9952
65.5075
67.6741
43.9154
68.9101
15.3864
53.372
3.03725
36.7925
14.0986
10.6454
62.5226
62.2907
63.378
46.3392
57.5116
24.601
37.5984
26.8146
61.9264
29.8864
61.4574
34.2847
33.5964
51.1884
16.2088
49.6598
62.6843
62.1441
48.4023
11.4233
34.2352
50.2129
26.0892
49.2678
66.3942
15.7964
51.4074
62.2934
53.811
23.4305
7.67911
19.0318
2.17559
38.771
1.01654
2.07871
14.4235
21.3125
37.1825
1.63653
0.81648
63.2851
-1.29836
25.12
24.8545
18.0868
2.55086
5.82116
57.6547
47.2388
68.3336
70.7739
90.4492
4.57682
-0.180716
55.6542
69.9813
22.1131
19.171
9.15593
20.592
22.3565
31.8495
59.3274
17.7389
67.903
-52.1577
67.1014
52.806
1.79827
23.1066
6.60436
25.3184
8.22588
26.6819
1.20817
14.4893
-37.9658
4.70577
3.26916
3.96427
22.2524
13.6028
1.40005
22.6188
26.3162
6.3098
4.95118
-26.3029
7.85807
33.5084
2.5914
9.25741
8.55148
28.9759
31.6215
55.8828
25.8643
20.6149
0.608407
17.7608
58.8303
22.0366
-27.345
3.60061
5.01391
-28.248
8.71456
56.4644
-26.7258
-27.0882
2.42292
64.4396
0.44566
55.1969
60.1541
1.61953
9.31983
51.8706
1.39424
10.9559
24.1519
29.2284
62.3696
45.2256
-8.92155
29.235
40.2431
12.391
32.4325
46.717
11.839
12.8837
56.9309
46.0243
66.5222
33.1997
62.2184
21.9687
45.3234
42.628
19.8684
51.6399
10.9488
42.7543
50.8525
9.66882
66.6801
33.9274
70.2973
58.67
34.9306
26.7326
-85.805
43.5781
31.2346
10.3762
7.24279
5.14004
29.5129
6.56897
0.716332
46.8415
29.2495
68.9755
11.8365
1.83326
1.49725
62.0819
18.3772
70.7836
69.9679
10.7543
4.46282
17.3201
0.315347
14.338
19.0945
36.4727
26.1365
-10.5664
40.8082
48.3877
1.65564
55.749
59.2655
64.0008
62.7616
67.0497
62.2641
60.5508
37.0511
63.5026
46.0661
24.0323
1.14088
-28.4041
19.8142
-1.23806
56.6825
40.3295
2.03169
-44.735
2.57714
7.39622
10.6407
30.6615
30.7774
14.1804
62.6065
47.4475
68.2598
5.34989
10.8612
32.874
29.1744
72.3092
28.9552
33.1582
-31.3013
31.7218
32.596
30.2331
67.5912
22.177
43.8771
32.422
29.4346
65.2045
49.2377
29.7723
4.75309
33.1638
0.353956
13.4186
75.1374
74.9786
48.2986
61.5889
2.18576
-0.97116
43.5044
30.2234
31.7495
2.57041
20.6341
1.65635
19.9463
79.0009
32.4012
1.07603
63.0398
16.1755
17.0996
26.3534
0.487427
35.2416
25.4811
23.9229
5.96304
1.18985
17.3608
55.691
3.20696
34.6097
15.4175
12.0211
17.4986
59.0066
82.6082
18.5811
-28.0856
33.7706
16.9454
-27.0049
32.6287
33.7108
49.0341
35.9268
88.078
-30.7175
102.199
30.3246
36.6654
28.2762
5.77819
99.8024
46.1026
33.9911
18.7334
6.02107
31.3836
29.7872
18.9574
17.9979
-22.8548
69.2713
63.4737
68.1611
89.0147
85.3663
32.2485
14.106
28.8361
92.9225
90.7512
66.9047
12.4105
56.0159
7.68421
44.3741
-25.7282
45.3388
41.1932
44.8719
7.49286
-27.3927
-27.6641
1.76696
41.2078
14.6151
8.74103
42.9033
7.43783
55.9057
-0.219249
13.4975
75.9855
4.0015
-1.58152
-0.997156
8.54982
6.94926
95.8589
24.0594
2.45452
47.9449
13.5788
54.1226
53.5198
31.2457
7.92457
-42.1772
30.0549
42.9476
40.2241
68.9668
-28.7941
3.66516
1.21069
23.9165
20.3853
63.3772
37.7307
1.30586
68.2346
-28.7129
25.8402
-22.9334
67.2818
69.831
1.0255
30.8778
54.8599
30.4793
0.377634
56.5573
-37.4009
20.05
29.85
-34.208
29.9736
31.3268
-0.667899
30.0052
1.19159
29.6177
-33.2057
-0.0648412
28.6204
20.7745
21.2268
5.31911
17.9927
27.9499
49.4597
54.3843
51.4823
23.9166
33.4161
22.9641
25.7687
88.0931
35.9025
54.7347
23.5611
29.4741
20.2303
21.2755
30.7896
-81.0033
30.6095
34.1124
29.0462
31.8201
29.8765
29.8655
25.1362
69.3705
73.0108
21.414
32.5482
54.008
59.5683
70.8687
-26.3461
30.4272
30.8403
24.472
8.85932
26.1516
74.6605
65.3901
33.0255
3.96416
48.7064
67.8739
64.6554
63.0905
58.3369
70.1243
18.6268
30.6754
58.4908
60.6653
54.1301
45.2694
35.6922
79.0206
33.246
30.3082
34.0047
30.4556
-19.4389
33.0924
31.9979
67.9158
54.0821
67.7532
28.1221
-20.6675
23.059
17.8384
47.5366
32.3604
47.0024
1.44178
27.6456
7.5783
29.3258
31.4612
31.4951
27.2877
27.6049
51.2405
8.11906
40.5289
30.8768
14.9921
42.9736
26.0395
25.3005
33.1977
53.364
96.7753
-53.3922
78.411
21.9764
0.751264
5.42472
19.4474
57.7071
10.5967
93.1351
11.7211
9.67378
-31.3491
50.2797
39.2215
4.44973
70.7169
65.8232
60.5441
14.9176
48.5249
27.9957
48.64
57.1644
54.668
64.4963
13.983
32.5917
31.6186
67.24
50.6805
18.0172
47.9085
12.3085
12.505
44.2576
31.8632
9.73402
31.7611
34.8441
53.1912
21.9068
15.9005
12.2566
12.2697
-74.0896
3.04323
30.5743
-24.2791
35.475
34.6886
16.5338
-24.4196
35.0328
44.5113
17.8053
31.9034
20.2186
40.9208
35.0365
19.8
51.7785
36.4319
79.464
-53.7088
30.7805
24.0219
18.9495
97.6774
-80.0925
24.9472
54.6146
37.7276
13.9347
54.0106
33.9719
54.6177
26.7335
32.3529
25.1923
36.7389
33.8397
30.7177
44.7256
29.337
28.7207
56.1868
54.8973
31.2067
11.5119
46.8566
29.0894
31.4571
24.1602
63.2941
45.4829
-12.2905
-15.0701
22.1409
51.8639
33.4997
31.2438
16.6711
51.3418
54.697
21.7766
33.2359
32.3488
29.5761
22.9732
40.1332
52.7446
61.6587
53.938
49.0286
50.5915
16.6558
59.411
67.3954
52.4532
30.4941
-21.7232
23.5852
50.3308
77.5892
27.7336
56.2802
-4.52925
43.0221
51.6582
33.0443
34.1898
57.2431
46.9246
3.51629
53.7579
11.8817
-55.4825
16.1905
52.9093
31.3151
53.2941
27.3781
23.0502
28.1697
20.8989
31.7697
-33.3666
6.33895
102.671
22.7435
-48.4594
22.7719
-0.219142
27.0421
19.2743
30.9557
56.4486
-0.957876
4.46033
17.7305
-0.22952
41.0054
12.6459
18.8717
18.0254
90.9419
9.11491
20.8765
-66.3041
30.4616
59.9687
27.5607
54.8285
-64.4518
13.6653
49.2551
8.32428
9.68928
38.0464
11.3312
38.4935
37.6413
14.6993
44.2139
79.9289
48.9732
63.3844
11.7355
31.6624
57.4342
34.4114
34.6011
31.821
52.2381
-15.4216
18.9319
27.9858
18.8793
26.5777
19.5443
-21.2249
19.6353
53.75
38.3181
-81.7259
95.7016
-29.5128
25.561
81.2721
41.5069
67.3019
31.8942
18.6165
-66.8393
22.629
92.8979
68.9061
29.8187
-6.37022
31.8139
38.9619
14.6927
27.5179
30.581
30.0747
63.7547
68.9716
13.1973
11.6923
36.3116
46.1853
65.2504
-72.2155
63.5092
6.10097
28.4332
59.3731
67.0933
27.1162
36.6903
94.4133
29.2375
44.2634
73.1153
72.0446
49.8681
-35.7442
21.8992
29.4798
-73.693
105.433
69.5163
14.409
67.2684
64.0802
-25.7345
41.8462
-80.7646
23.2127
34.8869
61.5519
33.2424
66.6119
63.8977
57.4803
24.029
28.9479
1.82744
67.3941
3.93519
32.75
58.3587
32.6564
36.1279
27.5965
54.8273
-14.6461
16.7556
40.5405
19.6207
-24.9887
3.06306
87.4019
-17.3994
34.6098
67.9107
31.3017
32.2134
25.3214
25.1921
45.7466
3.29477
26.3109
44.0225
43.8161
11.9025
24.8325
32.1671
66.2284
-8.56206
27.4186
51.2368
14.3001
-3.64682
-1.00096
3.29959
31.2501
26.3818
63.5707
34.3899
30.4709
31.4449
-51.78
1.41024
31.8005
-8.50655
16.2878
29.807
98.6147
35.9243
26.1363
-0.0427957
2.18692
38.2163
0.304195
-92.8431
-23.6414
22.8115
-18.4312
64.81
39.5354
26.4079
11.8782
-8.33119
32.0884
9.39566
64.8773
22.7048
12.2238
41.0226
91.5797
65.2496
60.2756
35.1996
9.42295
51.7578
61.4578
62.238
61.078
11.6529
51.017
51.6655
56.4521
29.6639
25.1499
49.5924
51.795
33.5177
67.5693
8.61787
15.9104
57.3177
52.6321
66.6644
-45.0823
57.3318
59.9391
22.426
3.75838
15.1555
56.582
57.1399
-37.2469
7.07149
99.4373
54.4562
-42.0974
53.6104
26.0623
-38.3722
38.5867
-44.3576
22.7316
20.9
59.417
63.0364
50.8424
23.7413
18.1079
23.7125
47.4138
46.5908
16.9552
28.2563
18.3043
30.6998
103.132
63.0908
4.36286
25.4872
-19.015
17.7307
56.345
1.71954
55.0748
26.8674
65.8326
16.797
18.3823
25.4225
12.4387
34.3988
33.3692
21.3597
40.4213
21.7086
24.8457
-0.861603
33.4972
4.40919
22.821
-5.24117
-34.2638
32.0955
0.740333
2.22309
6.12504
1.6644
58.7895
34.8209
19.1795
32.7019
38.5634
34.4939
30.9833
23.2746
32.5664
62.9611
25.0042
61.7108
16.501
60.0822
9.93034
52.8156
20.651
33.2374
22.9625
51.5967
12.2279
50.7469
49.5677
7.01314
26.4734
69.3792
26.0742
34.0153
25.0817
26.259
26.5778
14.98
31.3781
26.0133
15.5053
27.4276
10.1729
7.53359
8.38226
5.78376
23.5514
71.5309
63.85
17.59
15.584
82.9974
26.8404
17.8854
23.1206
1.57008
34.5368
-0.612014
10.9117
6.08926
51.1337
3.5947
33.9333
1.79255
15.692
6.79753
33.7825
14.8716
14.6133
33.8577
35.3184
-29.1241
35.0326
0.480435
29.3108
14.6256
11.3169
5.04962
8.82797
4.90331
6.72932
11.0881
33.6775
29.5706
0.608705
60.2419
31.4207
34.8553
36.0418
9.79728
22.7083
32.9478
31.188
3.69733
22.8553
16.2905
33.7482
0.719192
23.6022
14.9009
10.4725
22.8594
33.1968
0.539498
-18.392
14.345
26.5052
30.9843
-3.54075
-12.9436
0.455955
34.0837
2.1296
14.8236
16.8853
31.1105
95.9983
34.2098
25.1619
16.8835
0.803232
25.3866
14.1709
9.39147
31.669
8.60342
15.2655
1.0417
30.9814
28.0886
8.18993
49.9012
30.7677
27.5671
21.5976
30.7495
30.2595
3.12697
2.0448
2.06708
-8.05502
2.18455
28.537
2.77922
5.40447
28.2986
-89.19
0.550409
25.2249
62.9279
0.567293
31.8678
57.8475
70.327
0.628233
45.1831
2.34209
22.5695
9.49145
1.73614
-6.58536
7.87393
1.50394
16.7226
13.0088
0.139101
31.8591
23.8692
1.52942
16.4077
41.5764
-0.769749
31.8813
-0.524412
32.0959
56.8137
35.0037
1.22052
67.9132
26.3015
66.1107
23.3759
20.9148
-22.3298
25.305
13.5393
68.9913
28.3425
68.8334
34.7363
53.9631
14.647
24.2071
69.9224
28.5436
66.2486
12.0643
25.1793
-31.3731
15.4201
12.5285
64.4116
64.6692
81.9646
85.164
104.941
-34.9593
66.2365
68.0998
52.597
60.8285
68.0188
8.02842
1.51837
9.31004
-0.672477
-32.7505
-34.5736
12.0721
27.664
34.3881
-18.2791
35.3675
16.7795
33.9345
13.8975
-8.08548
15.3169
11.2539
31.0759
21.3373
19.8969
23.8909
5.83349
11.9206
67.1471
-8.05285
4.00154
70.6947
10.7204
4.39391
-26.0792
-29.1919
-34.5131
36.2074
6.58658
55.3599
46.2602
43.1316
31.4799
-36.6283
-31.6277
-25.6321
102.106
-26.5441
74.896
57.6496
7.65381
64.9939
-8.87687
66.5676
-5.57587
60.8109
21.4011
30.965
23.1894
73.8071
70.3154
31.9846
64.2928
63.1884
71.4432
41.6802
71.0037
62.1163
-16.2127
-21.5428
31.6912
24.829
-21.2845
25.195
21.1942
55.301
-20.2833
22.7295
22.2575
54.2493
-58.2791
44.262
3.47204
-87.544
-19.8305
29.5437
55.2055
46.8778
49.52
59.6761
26.5897
18.0131
34.6184
35.8922
24.7141
3.13374
3.07102
20.5377
7.10575
23.0791
6.12722
5.15133
11.2089
30.7516
26.2894
16.4954
3.9855
3.91703
27.1433
32.0088
20.5918
14.6172
52.9271
17.9764
-88.7987
33.5465
-38.7264
34.6439
25.3404
29.1572
73.8712
42.0868
46.1878
32.7566
0.933121
1.68492
29.8063
0.518558
0.674655
35.9001
3.60582
28.0086
26.2842
44.5888
32.0996
30.154
89.5959
1.36109
53.9586
1.30815
0.742181
80.7132
4.10456
64.2998
3.07151
31.1738
24.6016
-36.1073
31.9113
27.1104
55.7511
33.2117
11.8685
6.01779
25.0276
58.1272
4.16625
54.8802
95.9664
27.8077
32.9226
32.8387
34.4115
17.5379
12.9185
30.2334
60.2355
64.6565
43.5724
61.6083
51.2088
43.9415
40.946
31.9922
18.1931
44.215
31.7027
57.7264
62.4255
103.728
42.8384
31.2517
34.5976
-0.963125
19.9481
39.9951
56.4287
31.9166
72.2116
33.4461
53.1385
15.9269
88.9367
70.4228
32.1666
31.8853
45.1967
7.90516
-54.2802
-18.9775
32.6152
31.3157
-56.3295
30.0644
31.6397
32.5351
21.0863
-50.0516
30.5942
49.561
-59.3555
53.6071
33.1684
31.2641
51.3492
33.2765
48.3615
21.5696
51.8419
51.8557
-18.1844
50.5303
101.157
26.7613
96.6426
69.7387
-21.4259
69.8871
73.1424
-2.78744
31.137
34.7406
-21.9592
25.3051
22.6882
25.6042
26.6388
-21.3702
33.8981
42.6173
100.4
32.5683
40.8843
33.5781
28.7761
46.2752
44.221
16.0587
-19.9345
20.0007
-29.8859
15.3403
29.7178
31.1421
29.4295
28.4389
23.3995
32.0712
30.5956
33.9531
-29.0708
-30.5071
32.6966
46.5777
31.7805
30.9165
25.6961
49.3351
49.6139
29.9537
-30.7566
48.1435
32.7511
-31.6483
37.5759
21.7214
33.2686
32.0664
11.2456
37.4084
94.3778
32.0508
35.6237
37.5753
33.5395
-68.0423
15.0694
17.0035
33.3308
10.4582
49.093
13.1935
22.8914
57.9313
67.1476
53.0573
62.931
58.5127
15.1013
33.5892
31.4798
32.5596
-84.5259
32.9577
16.0575
32.3023
-0.370816
10.769
1.46096
13.6408
33.892
32.6577
1.39718
27.7615
50.8195
82.576
32.1682
31.3267
20.6898
11.7085
32.3056
20.3018
74.0869
60.098
36.4851
76.5846
63.4821
-14.0897
54.4766
45.3804
89.7599
73.5686
51.7387
53.831
103.917
-15.2307
24.3717
94.6732
44.4047
64.8517
32.9264
61.8066
24.1261
53.0306
101.1
58.4874
67.7626
82.9468
47.9174
49.3653
22.3603
35.2926
55.6841
4.64178
63.3812
19.8068
-2.84053
-10.4063
28.171
71.1005
77.2006
53.9038
42.589
52.9636
51.3923
52.7913
33.1851
27.1997
82.4564
15.8929
49.5582
21.7436
39.9398
50.2834
29.5113
-19.6867
26.6371
29.1313
49.9433
40.657
28.8991
49.4348
33.5545
28.39
19.7535
-1.98105
40.0272
17.0007
32.3557
49.1655
12.3888
59.0182
17.2598
31.7386
64.0079
44.5439
57.1544
75.2126
-31.7616
99.0722
82.4986
21.5566
-5.41886
-32.7963
23.1757
-31.0442
-31.7326
26.9895
25.0757
19.8237
-32.7342
102.2
34.4412
-5.22952
42.8316
36.2498
17.8304
-5.68591
31.4503
-24.2368
29.0046
-23.0714
29.126
79.3808
12.0269
28.5861
-31.5142
65.5854
-30.8668
26.2646
-26.786
63.8034
48.4746
23.6358
34.0631
85.8403
44.1576
-1.42725
19.2226
60.5461
26.3793
35.6438
24.3007
20.1488
35.7657
33.7126
55.5145
24.8888
33.0453
28.2769
26.6176
83.9215
33.9284
43.8117
25.8144
42.2498
13.719
48.001
46.5716
18.7631
26.662
44.5815
40.4369
39.476
106.153
41.8187
10.8972
34.2509
37.3074
-68.6948
-75.3027
47.4039
50.3831
47.3478
49.373
27.0068
31.9457
100.96
30.8248
50.0142
21.1463
34.0086
33.3865
48.3066
30.9995
47.5427
27.3916
-37.1605
17.7386
75.3022
20.1479
54.1658
49.546
-2.07763
-14.6768
69.5297
-20.3999
52.5021
-5.75699
76.5881
5.54472
64.8422
28.7031
38.5585
5.01739
37.9633
30.663
13.6457
38.5297
53.0289
-40.498
71.0908
20.1024
69.2076
33.8416
51.2461
33.9637
33.8997
6.82585
34.2401
42.9273
37.5486
55.3125
32.0186
-19.3154
74.0533
59.0375
80.4569
66.3187
44.0992
54.0408
61.0152
69.6182
32.3699
69.606
28.4832
30.6943
28.4242
17.3547
5.45616
25.9995
28.7078
28.106
34.2239
75.8557
41.5308
69.0577
16.2246
48.3127
55.6742
18.9106
14.5618
10.3281
18.9172
102.472
8.51413
31.9992
-23.9507
67.6767
71.6974
56.2057
69.0837
26.9186
19.0555
40.2891
34.4841
34.2456
30.2897
74.8763
4.58851
2.82394
33.023
23.3812
36.8133
48.4352
21.5974
65.9848
63.388
27.4285
71.181
27.545
45.6763
17.6365
55.4395
97.3968
34.6496
34.8138
76.8377
48.6698
36.5935
72.8803
45.2159
30.4061
78.0585
21.655
80.4695
-42.2712
42.9269
66.9839
32.974
32.2382
41.2732
20.0173
33.2166
6.63169
68.6615
15.3525
45.3955
23.6551
27.6415
33.3816
18.1508
64.9628
67.6611
62.3036
41.9438
33.8436
32.186
33.579
32.4385
59.944
28.5298
27.6821
103.145
27.7785
33.1313
102.251
64.2432
-77.763
94.5219
33.0228
38.974
71.862
67.428
-28.557
74.5837
-26.6749
41.511
-27.8146
25.9615
16.3688
77.0622
42.3207
103.412
15.7328
-28.6636
-21.6557
-75.1676
-87.167
15.2674
2.33166
22.5011
-21.1091
101.395
46.7467
56.959
88.8652
62.8122
12.8407
47.2404
10.8197
90.7024
18.5636
57.6847
2.34472
19.3548
18.0122
15.052
102.314
20.5563
16.2651
59.283
21.1409
19.7625
52.6343
33.1169
16.6124
32.9622
18.3835
45.0752
70.3652
4.94561
37.4221
38.8723
32.519
34.2782
5.66509
14.6594
26.6294
34.2087
83.3318
53.1227
36.3438
33.3965
41.9195
40.7033
18.7307
52.8185
51.0759
-47.2302
17.7742
48.3615
35.2231
39.7696
48.6902
31.2828
47.6685
49.0852
55.9896
29.7926
55.4036
50.7224
90.9886
68.8765
47.9041
66.3467
57.5015
35.3756
58.5429
22.3855
35.9356
29.6211
42.5803
-2.34421
54.866
51.5287
28.0509
68.7876
4.26916
47.37
71.2147
30.2332
73.3095
26.0663
7.78624
-33.6849
35.1546
2.9067
29.5496
72.1967
32.5621
35.1099
50.0546
38.6763
36.8436
2.88253
47.4643
53.6269
68.2764
44.2053
39.0016
56.6624
48.8565
0.307767
17.758
75.0755
-1.4362
47.3514
31.9186
79.1475
52.1547
53.2632
31.0643
3.32043
-84.6737
71.4178
69.1739
32.5588
28.8186
32.2081
22.9527
73.7936
24.7896
30.2443
36.6414
8.76813
54.9671
29.2796
10.732
12.0323
73.6367
11.1238
33.73
61.544
22.9399
24.8767
10.9756
31.5818
58.0768
0.260096
16.7972
51.5739
47.8902
26.0917
60.9426
44.5799
-12.5292
11.6056
16.643
-20.1172
27.1109
57.139
16.5312
45.2542
57.3464
105.486
16.9231
33.5822
26.5997
14.4118
-27.0775
-9.50361
15.7645
55.9691
91.3695
1.87029
53.4049
52.4597
2.56002
68.0312
43.4716
23.8591
50.1291
56.2403
28.0775
46.4106
5.04754
1.07695
53.5022
58.9219
-14.9425
54.6686
50.3681
39.2587
52.453
56.8843
34.1133
16.1252
33.377
57.7937
56.4349
54.466
56.7573
49.2816
0.813001
84.3324
0.802512
36.7526
36.1205
77.7479
63.2404
30.5481
41.5802
99.4496
24.1051
20.0108
-4.40839
40.8927
34.748
4.38516
28.0508
56.4771
29.355
32.7394
0.675794
32.5225
58.018
50.5106
47.452
3.07189
4.32698
26.9233
33.3259
30.5603
37.3117
33.5353
4.04675
31.9768
34.1118
58.1226
14.9253
55.7087
34.0595
33.5887
52.5535
59.4154
64.1354
37.6222
33.6534
31.0314
42.1262
34.1633
37.6941
-25.0889
38.5832
31.5487
-27.7691
-25.8602
-20.5556
54.2717
-5.56416
55.5387
-22.1598
27.0099
-30.2556
23.3669
39.6175
39.2591
33.9703
23.9704
40.1677
36.3744
53.8209
35.0599
53.6948
34.1139
29.8971
-90.3101
-31.3806
63.9017
68.3892
4.43251
9.58564
15.0926
-22.8457
-31.1596
32.3091
-32.0534
32.7228
32.8035
9.66693
-59.8084
28.2763
35.6511
52.4147
90.736
34.3245
-57.6427
32.7303
41.5246
33.8122
35.3539
6.68705
37.8337
32.102
32.6841
39.9745
47.022
34.2385
18.2599
-47.2967
-50.1482
18.0015
67.6054
13.3437
50.0019
16.1163
54.6838
42.887
41.3349
64.5177
49.9744
67.3613
24.8259
41.8303
41.8132
33.2927
39.1814
32.4112
44.4278
58.7051
46.0792
80.3602
38.1892
58.9366
-7.89653
33.8848
7.18991
75.2111
55.5496
54.1703
41.3877
13.839
31.0524
47.7554
10.5894
44.6997
40.8919
34.2893
52.7123
50.3966
33.1306
30.1166
9.27438
69.2932
35.4236
0.271018
38.7981
8.49153
3.46994
67.5124
-15.6988
33.8161
70.0272
32.7205
61.8594
47.8266
53.6492
34.4779
61.5322
-29.7426
34.3081
-28.7424
33.9535
30.223
62.1483
-30.7495
30.5174
30.3347
35.996
60.4248
-30.4814
52.2851
33.6363
24.6778
16.6707
36.957
64.2126
-97.112
34.0656
44.137
29.971
37.4287
63.0255
48.006
32.825
59.2881
28.1477
59.9006
-33.4079
63.1542
-0.381443
27.2528
32.6591
45.1018
35.1351
27.6527
57.8416
35.0851
32.6738
34.2148
98.1677
1.39977
78.389
33.5338
3.85172
34.6616
3.67506
59.8536
52.512
70.9102
38.277
3.57136
69.7367
31.6552
6.33385
15.5091
25.1002
39.3501
4.56223
52.8964
20.1151
-29.5163
5.34768
32.5316
12.689
25.7583
7.46261
6.6827
27.9046
8.40642
30.6845
27.1219
1.11409
15.3102
62.9281
24.3504
11.3381
73.4061
92.1384
55.9246
62.4257
-0.343239
66.2922
85.0807
0.997638
81.9907
35.4919
3.32858
48.9442
74.3051
16.4046
1.19393
95.4781
67.5977
64.5053
32.4981
30.4474
3.3559
35.838
0.0659527
16.6939
38.4481
14.9549
93.352
18.1048
14.8131
10.9484
55.8679
22.091
29.8392
33.5386
29.6645
33.376
11.679
46.0076
20.8928
62.9931
57.8483
35.57
11.3067
85.6205
29.7846
85.0075
66.8751
48.8093
58.7177
8.07459
33.879
37.5285
31.1857
30.9512
58.9425
-82.9941
30.4427
28.4041
14.0297
52.9669
19.3191
93.3994
34.8087
87.1291
21.9913
-6.79209
30.077
30.4233
20.1446
10.9313
16.3916
74.9266
52.5029
74.895
28.5757
28.6336
42.2016
8.57987
65.1288
68.0445
51.4793
34.8842
25.7617
50.0394
-31.396
26.7344
73.4163
76.3528
64.6229
24.5949
86.7193
41.1116
34.1636
85.0825
72.3244
38.9588
37.4389
4.48413
83.8853
47.542
83.7872
33.8982
5.6295
66.8601
34.5824
0.502779
3.90184
1.89489
34.4663
53.9197
23.5343
35.3125
22.4037
56.1641
80.6364
29.1898
77.5243
1.16489
0.664092
29.979
99.3724
28.4755
92.2734
57.2827
42.4665
65.7475
45.3561
57.7046
-0.529027
-0.408424
1.31644
-0.497796
47.021
30.8027
52.8751
14.7887
34.85
24.7335
54.3321
27.1667
90.853
41.2796
39.9357
2.64987
84.9104
0.271123
61.2136
36.0779
47.4961
32.3066
39.0401
75.1081
80.0563
30.6685
2.12403
33.2733
12.7479
-15.8969
31.4957
95.8493
71.284
99.1463
100.739
90.1263
-12.4851
38.7546
90.2529
-0.436376
-0.315519
42.4585
1.43144
23.1401
5.7174
36.1843
38.4625
35.4682
1.88911
57.6723
16.0358
82.1256
8.92605
60.1328
37.988
50.1831
40.7225
32.6561
-63.6253
32.2622
19.6151
30.3378
56.5545
-28.0947
-84.697
58.1738
31.7025
30.7917
54.8151
57.6585
31.604
66.2841
-51.9847
20.5349
15.8108
79.2005
15.7774
44.2704
64.8797
42.1085
6.12678
-0.525487
45.0324
33.3058
94.6634
40.3063
10.8324
34.5057
29.7871
-11.1029
30.7785
-28.3822
27.7938
-29.0498
6.10306
-28.1935
48.1204
25.5354
95.749
-29.3963
63.1141
20.1661
-31.6167
29.3871
19.3215
75.3657
73.1402
21.9791
50.0665
56.7404
53.932
44.794
51.0255
32.9889
-34.4623
-174.17
5.25483
60.1712
63.5421
16.297
66.5545
-22.1333
32.2658
45.7962
39.6255
10.3749
69.0822
-21.7504
54.0689
74.3702
75.3271
105.306
74.1042
22.5942
-3.03424
91.3575
69.0756
77.2352
6.51184
-32.3831
90.7436
66.6104
35.9716
59.7417
56.6794
9.65131
-26.7102
-76.7351
64.271
46.1072
79.1075
2.08843
89.4382
71.2425
60.9649
80.6008
-43.1299
46.6366
40.567
64.7488
32.858
6.80894
-44.9765
86.9407
31.9781
11.5487
-26.3162
88.4336
85.2127
84.5374
7.45227
-45.4199
86.9584
24.8294
-1.01941
87.669
38.6951
32.9967
62.9675
30.5113
36.3144
32.5039
85.0995
27.6933
20.0114
35.422
35.3122
38.3967
33.698
50.2323
18.9188
32.782
34.9387
2.70318
-20.219
-30.5963
29.5487
37.6538
30.5565
22.9199
22.1746
36.0748
-21.1947
42.0989
-20.3098
-24.3349
84.9066
61.2018
65.5115
-1.81003
50.3716
-11.7283
25.2425
32.8552
-11.9618
0.142172
0.422116
13.3124
24.3507
12.2081
39.526
56.1948
56.4288
53.4606
59.4008
82.0841
4.53712
0.303622
0.410634
54.4422
14.4221
-27.5614
-2.84669
53.0484
80.4147
62.6877
72.2587
44.0655
-31.3654
34.6061
54.087
45.3405
32.1278
58.2231
49.2971
32.5661
56.7649
31.9612
32.3896
39.8539
54.1603
77.0452
21.2531
99.1845
-37.224
59.4028
-48.0145
-23.7317
32.1108
45.4605
80.8839
35.4877
22.83
32.1896
56.1018
21.8464
-33.9166
60.6104
88.7724
105.832
-8.22455
16.545
-1.18163
53.4632
37.7241
29.8372
50.8867
45.1335
24.0944
42.1442
50.619
10.9773
32.7688
-36.8576
33.4693
-61.8823
2.47699
50.7132
-53.8629
29.8171
0.051699
104.067
45.2083
93.7355
37.7925
-43.506
56.8174
45.9177
76.9021
99.2072
54.7618
77.5334
0.690053
14.4885
70.0684
51.3266
33.785
52.6623
16.0932
40.8759
32.2038
72.8728
42.5238
26.7595
43.779
49.6368
34.6286
35.6483
19.6043
1.04352
50.961
1.41938
54.4736
1.16195
31.4968
51.1641
26.1465
50.2075
-7.32155
0.870453
71.4784
30.9645
79.6803
2.58848
34.0529
-0.146571
0.549166
33.3004
40.5441
54.1098
78.1448
62.8593
-34.0816
2.92011
90.2145
67.9445
59.9985
48.9559
0.0141439
-0.612979
-16.5503
90.523
62.3868
58.0789
0.817864
57.6882
2.61568
1.9663
27.9579
22.4168
12.694
-14.8356
51.4167
29.9174
24.3843
51.5513
77.9671
54.613
29.4137
56.3117
33.7079
-22.5264
26.6598
5.1082
46.67
36.6188
32.5665
-18.5542
50.1743
-19.3909
66.3842
-21.0541
20.2936
18.4424
6.84899
61.5472
47.2391
68.4617
73.5341
66.3199
34.6055
48.9141
50.029
50.9519
64.7182
12.3094
47.3025
54.6275
83.8204
57.8384
26.4417
68.8626
67.4089
-28.3943
-21.9358
22.2007
-26.2475
-24.9256
50.9138
97.0173
-59.707
26.4981
56.3183
62.7246
-25.7226
12.6798
9.33792
48.8707
25.8129
-25.5849
11.7804
77.612
44.3525
20.9317
48.4011
-33.5505
68.088
47.2644
0.124405
-48.45
-45.0139
106.876
55.3512
48.7849
47.966
55.9967
-24.4117
56.6066
50.2123
59.0168
-0.09525
54.192
64.758
87.9108
79.474
48.5599
29.7537
63.1633
35.8902
12.8316
11.1698
69.4624
19.6947
22.3938
9.47609
98.778
11.6165
-36.8047
65.829
67.4656
82.4458
-37.8455
1.635
-30.4599
75.8548
31.9246
17.3836
23.2257
49.5465
38.4318
54.5139
29.8283
62.2162
32.2914
50.8917
32.2529
34.4214
3.29812
79.4476
46.7466
39.3069
23.799
43.9864
31.9179
44.6941
39.5424
23.8206
8.92883
28.7411
40.1555
79.164
27.3957
103.191
3.72449
102.389
98.6623
26.7204
40.0531
41.1561
18.6424
25.4786
-35.8929
55.9603
-14.4777
5.11903
43.1135
32.4231
-26.5869
42.3533
42.2088
50.4016
44.1235
18.2509
-0.0140528
37.3115
27.39
32.3623
29.8318
30.2365
30.882
27.5454
32.0338
41.6456
0.702343
28.3879
21.8354
31.2383
31.6316
59.4579
25.3529
72.9371
72.8523
-0.636186
0.821636
33.2919
31.2226
43.0092
7.02416
42.3681
44.5765
0.7122
96.8529
4.41483
33.3043
1.07881
1.35665
20.922
0.329791
-32.849
31.4826
91.3817
40.8678
32.3293
13.6821
24.3241
31.8676
19.0138
38.1757
3.90499
43.3497
-31.3291
-0.495502
39.4705
61.7808
78.4073
36.7696
45.7063
48.3205
13.9293
25.4398
0.268999
88.7132
-3.64326
27.353
32.468
93.8799
31.8474
35.5762
69.759
-11.0676
44.3559
2.47365
2.57912
0.860948
0.754823
0.559444
-15.744
55.999
0.0837597
2.6454
44.8907
2.00872
36.2835
39.0268
57.4808
11.1606
43.2951
55.9644
23.6142
38.1404
48.2345
103.673
53.6844
-71.2723
83.565
57.1349
65.4531
6.82194
91.0357
15.3034
51.1713
61.2138
5.16502
14.5874
-79.016
16.0086
14.3473
-82.3973
65.3817
-28.7794
25.2081
32.7963
16.6031
63.715
69.5759
95.8759
67.2359
94.6157
65.4459
-26.4438
-61.256
-34.0235
-48.68
35.3977
38.6102
66.304
69.4248
66.5132
106.971
37.0947
25.6342
-5.11504
4.18349
30.5797
41.113
36.4113
6.62554
46.3761
45.6859
35.8308
47.6908
66.5928
18.2548
65.4622
64.6323
55.0295
89.9014
69.5156
49.8665
75.146
14.7674
53.2328
69.6464
77.561
68.9541
61.0984
104.686
98.7357
27.5843
34.0936
50.5432
85.0239
52.3376
67.6517
34.0226
85.3652
6.83233
22.0085
39.046
47.6249
93.3304
80.1267
47.5964
41.1151
18.8916
48.8791
34.9301
3.85202
44.6121
16.7627
-17.01
-17.2891
-4.74133
52.2527
-13.6456
69.9409
23.8172
56.1576
62.1002
60.2129
24.8085
47.7986
58.1278
84.294
62.9575
56.972
65.7576
56.7993
70.1852
63.7787
59.157
68.1332
51.0347
0.552932
47.9566
27.3941
34.0767
74.3622
35.0203
106.424
32.8183
41.4338
46.0065
20.616
33.5493
32.9815
32.67
13.6756
20.5763
37.8537
20.1595
35.7632
42.8225
33.0301
31.1857
7.12985
23.1833
-72.0828
8.31021
-58.7288
3.52638
40.8174
98.4147
33.6519
33.223
73.1367
32.0354
9.89762
32.6196
55.632
22.7743
33.0533
33.6751
61.5234
72.3032
44.4465
56.5561
39.6421
9.02079
57.3121
13.1892
45.0573
9.45556
90.9046
21.4654
-83.5192
53.8649
35.8457
-73.5288
33.1793
106.768
52.2537
55.4885
105.906
-32.3376
19.5344
79.425
75.4019
12.7681
73.7964
21.5817
50.4329
66.3386
9.95068
-27.9643
43.6575
25.3842
64.0295
32.6596
-16.2474
33.2334
-27.8087
24.7336
41.0635
-15.409
31.5078
31.3451
36.4937
-21.2392
-42.9878
28.7793
16.949
32.395
-21.8447
31.0895
96.2258
29.6933
26.5776
13.9003
52.5957
30.9717
15.0225
30.4218
25.2505
29.2577
28.6534
34.64
-32.4451
34.6256
-47.5149
-70.0451
33.8008
-27.4501
22.2504
56.1097
32.5949
-32.8894
25.6248
-19.3201
98.9502
33.0579
27.7114
-0.205746
34.2963