/*--------------------------------*- C++ -*----------------------------------*\
| =========                 |                                                 |
| \\      /  F ield         | OpenFOAM: The Open Source CFD Toolbox           |
|  \\    /   O peration     | Version:  2506                                  |
|   \\  /    A nd           | Website:  www.openfoam.com                      |
|    \\/     M anipulation  |                                                 |
\*---------------------------------------------------------------------------*/
FoamFile
{
    version     2.0;
    format      ascii;
    arch        "LSB;label=32;scalar=64";
    class       surfaceScalarField;
    location    "0.0100321";
    object      phi;
}
// * * * * * * * * * * * * * * * * * * * * * * * * * * * * * * * * * * * * * //

dimensions      [0 3 -1 0 0 0 0];

oriented        oriented;

internalField   nonuniform List<scalar> 
92401
(
0.147704
-0.0935057
-0.00863012
-0.0455686
-0.0674984
0.0605968
0.0416476
-0.034746
0.0208779
-0.0383474
0.0429168
-0.0254472
0.00622231
-0.0119699
0.012076
-0.00632837
0.00116659
-0.000492837
-0.00530059
0.00462683
0.0196977
0.00964319
-0.025744
-0.00359688
0.00531305
-0.00438249
0.000236028
0.0322936
-0.0253415
0.0127455
0.0501553
-0.0400771
0.0317293
-0.0418076
0.000941873
-0.000951391
-0.000590123
0.000599642
0.00445519
-0.0416708
0.0396521
0.028336
0.0247038
-0.0926919
-0.0158707
0.00990499
-0.000133487
0.00609915
-0.0342156
-0.0394536
-0.0152172
-0.0169563
0.0539347
-0.0217612
0.00155479
-0.064679
0.0631242
-0.00369456
-0.00778955
0.00186764
0.00335659
0.00256531
-0.000927868
0.00135266
0.000452704
-0.000877501
-0.00456787
0.00983858
0.000582976
-0.00585369
0.0159216
-0.00551276
-0.00461606
-0.00579275
-0.0408085
0.00896255
0.0370119
-0.00516587
-0.0400062
0.0112681
-0.0562446
-0.0548982
-0.00208156
0.055251
0.00172874
0.089974
-0.0887274
0.0227624
-0.024009
0.0511354
0.0616592
-0.073173
-0.0396216
-0.0326644
0.0506061
-0.057948
-0.00253276
-0.00115232
0.00398159
-0.000296516
0.0304417
-0.0629938
-0.000112307
0.0610988
-0.0596852
-0.0324845
0.031071
0.0125721
-0.0169307
0.000494369
0.00386418
-0.0359129
0.105818
0.0592994
-0.129205
-0.0837633
0.109656
0.00751405
-0.0334072
-0.129606
0.034853
0.0289519
0.0658014
0.0153126
-0.062308
0.0381763
0.00881911
0.0603752
0.0101495
-0.0552121
-0.0441545
0.0103962
0.00226031
0.0314979
-0.0497796
-0.0413596
0.0630501
0.0280891
-0.0341057
0.0393309
-0.0132824
0.00805721
-0.0205868
-0.101482
0.0654338
0.0566345
-0.0860354
0.0852807
0.000754625
0.0322026
0.00429277
-0.0781883
0.0416929
-0.000435388
0.0289156
-0.0326941
0.00421394
0.0282861
-0.0511248
0.0228388
0.000250138
0.00018237
-0.000186513
-0.000245995
0.000770691
-0.0600406
0.0592699
-0.0689202
0.0432803
0.0627699
-0.0371301
0.0900667
-0.0257023
-0.0139016
-0.0504628
-0.000356757
0.07132
0.00213935
-0.0731025
-0.0460098
0.0732129
0.0369138
-0.0641169
0.000465771
0.000968682
-0.00029345
-0.001141
-0.00205902
-0.00426601
0.00107201
0.00525302
-0.0384182
0.085984
-0.0461907
-0.00137509
0.000428093
-0.00101865
-0.000580268
0.00117082
-0.0547013
0.0542422
0.00045914
0.0750116
-0.00654588
-0.019808
-0.0486578
-0.0978261
0.0891193
0.00574877
0.00295806
-0.0521131
0.0260099
0.0111301
0.0149732
0.00119424
-0.0159945
0.00543613
0.00936413
-0.0133294
0.0247366
0.0378277
-0.0492348
0.00113223
-0.000545711
-0.000158422
-7.95513e-05
-9.8447e-06
0.000908988
-0.000819592
0.00123873
0.00030771
-0.000834071
-0.000712373
0.00416267
-0.00899443
0.00525714
-0.000425384
0.0694823
0.00507673
-0.0190947
-0.0554643
-0.0148488
-0.00447751
0.00994872
0.00937758
-0.0422227
-0.0491314
-0.0550173
0.146371
0.00345983
-0.0323318
-0.00439519
0.0332671
-0.000367192
0.000576824
0.000631636
-0.000841268
0.0059757
0.00379256
-0.0288431
0.0190748
0.0180633
-0.00671881
-0.00936807
-0.00197637
0.0405422
-0.0769841
-0.0269516
0.0633935
-0.0278145
-0.00339666
0.0101705
0.0210407
0.0118573
0.00761757
0.0131479
-0.0326228
-0.00125622
-0.000504316
3.44412e-05
0.0017261
0.0232393
-0.00739169
0.036215
-0.00141841
0.000998122
-0.00152638
0.00194667
0.0486007
-0.0349564
-0.0697405
0.0560962
0.000620042
-0.000284861
-0.000335181
-0.001029
1.56095e-06
0.000505431
0.000522012
0.00113477
-0.000995444
0.00153689
-0.00167621
0.0223029
-0.0197454
-0.0642559
0.0616984
0.00130547
-0.0129772
0.00266185
0.0090099
0.0448874
0.0559226
0.0178134
-0.118623
-0.116803
0.0250975
0.129065
-0.0373597
-0.00428604
-0.0436755
0.00542789
0.0425336
0.0520109
-0.0296924
0.0258934
-0.0482119
0.0251064
-0.00418784
-0.153261
0.132342
0.00638034
0.0141375
-0.0256389
0.005121
0.000697494
-0.000191593
-0.000714021
0.000208121
0.0366395
0.0135531
-0.0017178
-0.0484748
-0.00233391
0.0811753
-0.083405
0.00456364
-0.0199227
0.0475564
-0.112861
0.0852275
0.0413489
0.00484526
-0.0504802
0.0414727
-0.000123763
-0.00214123
-0.0297482
0.0418785
-0.00998905
0.070622
0.0170623
-0.0314388
-0.0562455
0.129854
-0.141387
-0.0301123
0.0416452
-0.014831
-0.0459864
0.0586762
-0.0850708
0.00305495
0.0820158
0.000456695
-0.100427
0.165219
-0.0652485
-0.0023282
0.0033577
-0.000464428
-0.000565066
0.0888077
-0.151981
0.0308954
0.0322776
0.00163889
-0.000205996
0.000674885
-0.00210778
-0.084757
0.143001
-0.106929
0.0486849
0.0276101
0.00413202
-0.0396123
0.00787022
0.0861454
-0.0178652
-0.0768402
0.00856
0.00575362
0.0306326
-0.0512172
0.0342339
0.0299028
-0.139691
0.0755543
0.0865055
0.112323
-0.076921
-0.121907
0.000948614
-0.00159522
0.000863183
-0.000216574
-0.094578
-0.0273824
0.110798
0.0111623
0.00281876
-0.00556911
0.0141995
-0.0114492
-0.0141414
-0.0339904
0.057618
-0.00948617
-0.00466764
0.0161926
-0.0138064
0.0022815
0.000261389
-0.000592962
-0.000487918
0.000819492
0.0209428
-0.0246039
-0.00100656
-0.00171989
-0.000782862
0.00141313
0.00108961
-0.058016
0.062411
-0.00439501
-0.00228115
-0.00589873
-0.00210687
0.0102868
-0.0351198
0.0275926
-0.00661429
0.0208944
-0.0498308
-0.0548268
-0.0524969
0.0448916
0.0967145
-0.0891092
-0.00736936
-0.0015801
0.00461614
0.00433331
0.0470588
0.0135019
0.000546543
-0.0611072
0.000204696
-0.00853725
0.00694897
0.00138358
-0.036265
-0.0568887
0.0124772
0.0806766
0.0647813
-0.0383168
0.0239883
-0.0504527
-0.00844566
0.0589572
-0.0573164
0.00680487
-0.0602501
-0.0327609
0.00877586
0.0842351
0.0175352
0.005009
-0.0343342
0.0117901
0.0605259
-0.0572676
-0.00325839
0.00213473
0.00185879
-0.00112197
-0.00287155
0.0411832
-0.0427546
0.00157144
-0.0485454
-0.0442831
0.110591
-0.017763
0.000952091
-0.0095799
0.00918752
-0.00055971
0.00313101
0.00571121
0.00237329
-0.0112155
0.00124436
0.0061964
-0.00723606
-0.0311045
-0.0547107
-0.0096086
0.0954238
0.0237252
-0.00652412
0.0169068
-0.0341079
-0.0875967
0.0973141
-0.107172
0.0974547
0.0692911
-0.0472658
-0.0220252
0.00206231
-0.034925
-0.00983155
0.0426942
0.00757422
-0.00594128
-0.00821094
0.00657799
0.0446884
-0.0670442
-0.0622812
0.084637
0.0758527
-0.0655008
0.0281435
-0.0384954
-0.0126037
-0.00761201
0.029876
-0.00966032
-0.0614509
-0.087824
0.0584876
0.0907873
-0.0416442
0.0547705
-0.011064
0.0990508
-0.0490097
-0.0500411
-0.00341491
0.0144775
-0.00348832
0.000929393
0.000622726
-0.000699313
-0.000852806
0.0490052
-0.0179788
-0.00479497
-0.0262314
0.00362934
-0.00176045
-0.000609738
-0.00125915
0.00550356
-0.00968278
0.00861015
-0.00443092
0.0732716
-0.0435722
0.0259648
-0.0556642
0.00830919
-0.000124177
-0.00706533
-0.00111969
0.00164313
-0.000535706
-0.00110742
-0.0624967
0.0640208
-0.00152409
0.0118522
0.00428543
-0.0961713
0.0800337
-0.0107605
0.0134582
-0.00976743
0.00706971
-0.0724023
0.0159877
0.0833214
-0.0269067
0.0189953
-0.0977149
0.0744593
0.00426025
-0.0500537
0.0419724
-0.00850358
0.0165848
0.00890466
-0.00167052
-0.00305622
-0.00417792
2.78988e-05
-0.00116208
0.00113418
0.0210183
0.178427
-0.242982
0.0435373
0.000123097
-0.000244554
-0.0240655
0.0616128
-0.0549365
0.0173892
-0.000114865
0.00527569
-0.00418977
-0.000971056
0.000822715
0.00170995
-0.00352811
-0.073434
0.00386402
0.06957
-0.0334616
0.112439
-0.0468882
-0.0320892
0.000109934
0.00115015
0.00945864
-0.0107187
-0.00116901
0.0944332
-0.0932642
0.0023072
-0.00160962
-0.00104369
0.000346101
0.00128894
0.000597873
-0.000606163
-0.00128065
-0.0362751
-0.00176167
0.031866
0.0186433
-0.0638387
-0.07297
-0.0163223
0.00560889
0.0836834
-0.000600686
0.00188963
-0.0979051
-0.0419889
0.11305
0.0268437
0.0260326
0.16384
-0.0821226
-0.0544805
-0.027237
-0.0193894
0.11996
-0.0439497
-0.0566214
0.0421445
0.0271467
0.0397376
-0.109029
0.108408
-0.248654
0.106172
0.0340739
0.00150924
-0.00131515
-0.00150082
0.00130672
-0.0125396
-0.0370582
0.0578181
-0.00822032
0.0252818
0.0400102
-0.0251422
-0.0401499
-0.0361577
-0.0262791
-0.0186367
0.0810736
-0.0558473
-0.0133299
0.0566377
0.00101175
-0.0111611
0.00692854
0.00322083
0.0560757
-0.0286733
-0.0520874
0.024685
-0.0894217
0.1045
-0.0501863
0.0351081
0.0154927
-0.0221801
0.00677649
-8.91159e-05
0.0537216
-0.0630347
0.0653888
-0.058053
-0.00239555
-0.0125167
0.0729652
-0.00526582
-0.0119309
0.00200302
0.0151937
-0.00124792
0.0564894
-0.0569263
0.0016848
0.13408
-0.0529813
-0.00153129
-0.0795678
0.058263
-0.00667079
-0.047851
-0.00374116
0.0534227
-0.0202007
-0.0773983
0.0441762
-0.00932075
-0.00185536
0.014153
-0.00297686
0.00513994
-0.00172512
-0.00478496
0.00137015
0.0021663
-0.0422693
0.03849
0.00161295
-0.00126395
-0.0851516
0.00403669
0.0185426
-0.0123707
-0.0622122
0.0451485
0.0170637
-0.0610698
-0.0152404
0.0095767
0.0667335
-0.0973223
-0.00478268
0.104993
-0.00288838
0.00370724
0.0224141
-0.0122796
-0.0138418
-0.0705323
0.148416
-0.0668917
-0.0109918
-0.00589306
0.0150792
0.0223004
-0.0314865
-0.0509793
0.0961557
0.0361968
-0.0813731
0.0266893
0.00222668
-0.0142917
-0.0146242
-0.035377
0.037255
0.000288215
-0.00403961
0.00709922
-0.0102753
0.00721568
-0.000764671
-0.00393078
0.010199
0.0367268
0.0373527
-0.0740795
0.00103075
-0.00176165
5.8704e-05
0.000672199
0.0186559
0.00779955
-0.0178625
-0.00859299
0.0233146
0.00827236
-0.00278589
-0.0288011
-0.0506656
-0.000782902
0.00730035
0.0441482
0.000389794
-0.0426591
-0.0008774
0.000533246
0.0013749
-0.051114
0.0366514
0.0509516
-0.036489
-0.0422448
0.0284225
0.0182434
-0.00442107
0.0012898
-0.00303564
-0.00928599
0.0110318
-0.00773381
-0.00460247
-0.00362581
0.0159621
-0.0416053
-0.00430908
0.0105374
0.0740559
0.0405809
-0.0736825
-0.0409543
-0.0438317
-5.223e-05
0.0438839
0.0880581
-0.0481266
0.0571688
0.0035447
-0.00764269
-0.0379359
0.0420339
0.0367477
0.0107969
-0.00597088
-0.0415737
-0.000441562
0.000296076
0.000954394
-0.000808907
-0.0173595
-0.0440436
0.0614031
-0.000226892
-0.00124367
-0.00409963
0.031773
-0.0241286
0.00555772
0.0279699
-0.0411703
0.0921223
-0.0870686
0.00106053
-0.00611423
-0.0229951
0.101081
-0.0182304
-0.059856
-0.0302993
0.0062757
0.0156032
0.00842032
-0.039227
0.0353698
0.0145864
-0.0107292
0.030087
-0.0249727
0.000462481
-0.00557684
0.0199135
0.0712316
-0.121714
0.0305684
0.0724387
-0.0737338
-0.0241466
0.0254418
-0.141637
0.0027372
0.00372379
0.135176
0.0310514
0.011569
-0.0398997
-0.00272073
0.0399585
-0.0582354
0.0185337
-0.000256837
0.00195904
-0.00111144
0.000180092
-0.00102769
-0.0120573
-0.00198944
0.0750682
-0.0409167
0.0189518
-0.0531034
-0.0128498
0.0462859
0.000589114
-0.0340252
0.00477151
0.0984516
-0.0927378
-0.0104854
0.0513521
-0.0985565
0.0563409
-0.00913655
-0.0508458
-0.000869892
0.0388659
0.0152003
-0.005056
0.00892738
-0.0190717
-0.0254386
0.049132
-0.0127771
-0.0109162
-0.0502599
-0.000585911
-0.00923468
-0.124673
0.176579
-0.0426712
0.0100363
0.0106732
-0.0633272
0.0426177
0.0493821
0.00634875
-0.0456945
-0.0117143
0.00619122
-0.00353851
0.00906161
-0.0561108
0.00185223
0.0542585
0.110276
0.0412914
-0.135202
-0.0163654
-0.0085898
0.000317776
-0.0034423
0.0188089
-0.112862
-0.0240731
0.118126
0.0117894
0.0672907
-0.068407
0.00245713
-0.0548563
-0.0109281
0.000481803
0.00176172
-0.00247042
0.00194653
-0.00171556
0.000250825
-0.0521452
0.0302333
0.0724016
-0.0504897
-0.00178778
0.000940911
0.000848432
-0.0356465
-0.00758224
0.0456859
0.000230573
-0.000256632
0.000312467
-0.000887323
3.39518e-05
0.000540905
0.000184865
0.00199224
-0.00164577
0.00133763
3.90805e-06
0.000304231
0.000165354
4.87042e-05
0.000918168
0.103202
0.11835
-0.0738481
0.000279181
-0.00104532
0.000931493
-0.0525202
0.0541989
-0.00167866
-0.00964585
0.0766006
-0.0703127
0.00335802
0.00191902
-0.0186419
0.00478331
0.0119396
-0.0598871
-0.00227904
-0.0173129
0.00414289
0.0460418
-0.0328718
-0.0645622
-0.000183279
0.0647455
-0.0062781
-0.0151575
-0.0123489
0.0337845
0.000227634
-0.000282389
-0.000438377
0.000493132
-0.00404572
-0.00765775
0.00901647
0.002687
0.0551645
0.0431839
-0.0169653
0.0472634
0.0870206
-0.0363012
-0.0979828
-0.0120428
-0.0436175
-0.022168
0.0224413
-0.0572881
0.0570147
-0.00924096
0.0273369
-0.00800883
-0.0100871
-0.0162639
-0.0128673
0.01485
0.0142812
0.0978155
-0.09246
0.0161581
-0.0215136
0.00100418
-0.00411526
-0.000198308
0.00330939
0.00138255
-0.065887
0.0645045
-0.0709788
0.00187615
0.0638863
0.00521634
0.039783
0.0372428
-0.0770258
0.0190806
-0.060236
0.0291126
0.00239401
-0.00158417
0.00120494
-0.00201478
-0.000411526
-0.000650613
0.00265528
-0.00159314
-7.01572e-05
0.000438669
-0.000914446
0.000545935
0.0652529
0.0548984
-0.0399438
-0.0802075
0.00714229
-0.0870804
0.0806121
-0.000673967
-0.0136751
-2.35641e-05
0.0267329
-0.0130342
0.0506648
-0.0504558
0.0199876
-0.0201966
-0.000432637
0.00121216
-0.000585824
-0.000193697
0.0199081
0.0492467
-0.0500741
-0.0479176
-0.00156564
0.000809733
0.00145944
-0.000703531
-0.000147868
0.0795818
-0.0794339
-0.0505758
-0.016183
-0.022986
0.0897448
-0.051142
0.000566186
0.0125724
0.0183562
0.0147818
-0.0457105
0.000274283
-0.00267621
2.02775e-05
0.00238165
-0.00155915
-0.000612198
0.000605709
-0.11056
-0.00554921
-0.0449832
0.161093
-0.00699245
0.00451329
0.139842
-0.137363
-0.0379975
0.041814
-0.063516
0.0596995
-0.0746129
0.0756119
-0.000999016
0.00308499
-0.0511993
-0.0299546
0.0650455
0.0204686
-0.00557931
-0.0799348
0.0515328
0.0896259
-0.155097
0.0139384
0.0436182
0.0135381
0.0323695
-0.0895258
0.104206
-0.109384
0.0449606
-0.00331344
0.0123396
-0.0112913
0.00226512
-0.00257773
0.000712141
-0.00103653
0.00290213
-0.00252298
-0.00555166
0.00144536
0.00662927
0.0604733
-0.00633746
-0.017758
-0.0363778
-0.0572192
0.0291811
0.0280381
-0.0903416
-0.00765541
0.012619
1.84144e-05
7.83252e-05
-0.00267447
-0.118182
0.0248884
0.00821512
0.085078
0.00116836
-0.0525498
-0.0103661
0.0617475
0.0475629
0.0273588
-0.104591
0.0296691
0.0379741
-0.0407684
-0.019589
0.0223833
0.0467769
-0.0587505
0.0499477
0.0294926
-0.0553361
0.0492702
-0.0234267
0.0335683
-0.0365723
0.0014494
0.00155455
0.016788
-0.145018
0.0908012
0.0374292
0.00147437
-0.0578717
-0.004051
0.0530311
0.000988933
-0.106133
-0.0343813
-0.00946772
0.00620241
0.0376466
-0.0481656
0.0455069
0.0477938
-0.0451351
-0.0419139
0.0817562
-0.0398423
0.00983112
-0.100366
0.0497664
-0.0163244
0.00793317
0.0234857
-0.0150946
-0.089616
0.094946
0.0381212
-0.0434513
0.0569109
0.0324753
-0.0788362
-0.01055
-0.0477147
0.140045
0.00634109
-0.0986713
-0.000294541
0.00319578
0.00320861
-0.00610985
0.0540445
-0.0716189
0.0844441
-0.0668697
0.00838144
-0.0408905
-0.00853719
0.0410463
-0.0428571
0.0273603
0.103095
-0.0875982
-0.0510304
-0.028513
0.0568673
0.0226762
-0.010653
-0.00101859
0.0068324
0.00483913
-0.00888833
0.0200877
-0.0168214
0.00562201
-0.00109749
0.0741035
-0.073006
0.0148477
-0.0450196
-0.0179937
0.0482918
-0.0323211
-0.00304394
-0.0129267
0.00116168
-0.0233895
-0.020547
0.0427748
0.0370563
-0.0355952
-0.00146108
0.0625383
-0.0417272
0.0635517
-0.0843629
-0.100678
0.097471
0.101022
0.000493204
-0.0110288
-0.0019065
0.0124421
0.051904
-0.000360675
0.000509208
0.000328857
-0.00047739
2.61732e-05
0.0467492
-0.10837
0.0615942
-0.00860069
-0.000121376
0.00483073
0.00389134
0.0271704
0.0100861
-0.0372565
0.00100919
-0.00125125
-0.00835863
-0.0319744
-0.0360282
0.0194571
0.0577943
9.92471e-05
-0.0578935
0.0714041
-0.0428103
-0.0504803
0.0218866
0.00198668
-0.0252387
-0.0209025
0.0670155
0.0438501
-0.0394615
-0.00788254
0.00938494
0.135512
-0.123014
0.0377766
-0.0502748
-0.0468074
0.0377306
0.022725
-0.0136482
-0.0514875
0.051669
-0.000181542
-0.0487127
0.0301914
0.0110402
-0.0487354
-0.0104546
0.0481498
-0.00107169
0.16113
-0.163203
0.00314485
0.109304
0.0167024
-0.0163495
0.0514952
0.00902376
-0.0526172
-0.00790177
-0.0140732
0.00439843
0.0102439
-0.000569188
-0.00941725
-0.00504253
0.00467645
0.00978333
0.0672462
-0.0366889
-0.0549636
0.0244063
0.0296785
-0.0160037
0.0218269
-0.0355017
0.02704
-0.0958378
0.0919324
-0.0231346
-0.00549387
0.000364867
-0.00894416
-0.0964522
0.109761
-0.0229098
0.00960144
-0.0109194
0.0485213
0.0143371
-0.0519389
-0.0042706
0.000207497
0.0029154
0.00114771
0.0848586
-0.00723186
0.0513012
-0.128928
6.30045e-05
-0.000702958
-2.0409e-05
0.000660362
-0.0676381
0.0604105
0.0739054
-0.0666777
0.00315594
0.00116721
-0.00167669
-0.00264646
-0.0780944
0.0764601
0.00163433
0.0628556
-0.0593246
-0.00353095
0.0591772
0.000516541
-0.0596937
-0.0160305
0.126543
0.000584019
-0.111096
0.0103419
-0.0313496
0.0335801
-0.0238508
-0.000901908
-0.0565917
-0.0684154
0.0119503
0.0664108
-0.00994574
-0.0128014
-0.00210969
0.000773995
-0.000699601
0.000380246
-0.00045464
0.00110441
-0.000367331
-0.000194237
-0.000542843
-0.0646063
0.00766586
-0.00121478
0.0581553
0.000603789
-0.00519905
0.00154398
0.00305128
0.0114692
-0.0143165
0.000286588
0.00256066
0.00807449
-0.00708383
0.0104786
0.0566387
-0.0109984
-0.0247246
-0.0209157
0.0373917
-0.00537319
-0.0359245
0.00390602
0.001145
0.0678027
-0.000559465
-0.0683882
0.00786821
-0.0719079
0.019342
0.0446977
-0.0423314
-0.0331619
0.0428283
0.032665
-0.0323501
0.0166256
-0.0886607
0.104385
-0.000636695
0.0147347
-0.00754021
-0.00655783
0.050005
-0.0590613
0.0474721
-0.0384158
-0.0619602
-0.00936824
-0.00580212
0.000672052
-0.000258214
0.00399086
-0.0044047
-0.0113472
-0.00270917
0.00154192
0.0125144
-0.00764865
-0.00888048
0.0105713
0.00595786
-4.95769e-05
-0.00215757
0.00123796
0.00096919
-0.000349011
0.000384136
-3.51249e-05
-0.000468305
-0.0688364
-0.0246801
0.0939848
-0.000126542
-0.000297868
-0.00125957
0.00168398
-8.72038e-06
-0.000273495
-6.67956e-05
-0.000843832
-0.0637184
-0.000179168
-6.56732e-06
0.000569871
0.00066762
0.000167329
-0.00044795
-0.000386999
-0.0286782
0.0604628
0.0810642
-0.112849
-0.00872182
-0.00227996
0.00707098
0.0039308
-0.0142079
3.78651e-05
0.00544825
-0.00478881
0.00533779
0.0123545
-0.0129034
-0.000466566
0.000385411
-9.80131e-05
-0.0658053
0.0667785
-0.000973185
0.0320379
0.0469635
-0.0600516
-0.0189498
0.0124417
-0.0747137
-0.0223669
0.0846389
-0.0129628
0.00284769
0.00532631
-0.00469786
-0.0060879
-0.00217706
-0.0167214
0.0601193
0.0119845
-0.0553824
0.0685494
0.00410445
-0.0524657
-0.0201881
0.000198612
0.000431816
-0.000716873
8.64456e-05
-0.00034806
-0.000127226
-0.00273165
-0.00110879
-0.00109189
0.00493233
0.0659108
-0.0460095
0.012068
-0.0319694
-0.000695166
-0.00273837
0.00151061
0.00192293
-0.0157383
0.0110887
-0.00398202
0.00863164
0.00146544
-0.104873
0.103007
0.000400762
0.00290993
0.00054831
-0.0101496
0.00669141
0.00957523
-0.00992046
0.00136867
-0.00102344
0.00972926
0.00364567
-0.010465
0.0377366
0.0576185
-0.0294443
-0.0273978
0.0547114
0.0294725
-0.0567862
0.0281774
-0.0555752
-0.000279495
-0.00120539
-0.0326209
0.0126323
-0.00991566
0.0789262
0.0249767
0.00759649
0.0713997
-0.054375
0.0975904
-0.114615
0.00277196
0.0923763
-0.0951482
-0.00672545
-0.00648334
0.0128239
0.000384872
-0.03355
-0.0867091
0.0271892
0.0930698
0.0218535
0.0627939
-0.024667
-0.0599804
-0.023255
0.114897
-0.0539051
-0.0423258
0.0449481
0.0520892
-0.0556197
0.0561405
-0.00052085
-0.0376178
0.0365586
0.00105917
0.0414663
-0.0808476
0.0742663
-0.034885
0.0644267
-0.0811481
-0.00900789
-0.00812725
0.0104097
0.000766522
0.00068203
-0.000539587
-0.000908965
-0.00698472
-0.0417642
-0.0068708
0.00124408
0.00140143
-0.00240428
-0.000241232
-0.0547313
0.051589
0.0861603
-0.083018
0.0341842
-0.0319502
-0.00223396
0.0106526
0.0282972
-0.0139119
-0.025038
0.00403843
-0.000530146
0.00233996
-0.00584824
-0.0642731
-0.00140459
0.0208099
0.0448678
-0.00293338
0.00675318
0.000218627
0.0414808
-0.112217
0.106083
-0.0353472
0.0427313
0.0151699
-0.0580748
0.000173569
-0.00360643
0.00689091
0.0014644
-0.00474887
-0.00075786
0.0597649
-0.059007
0.035896
0.00633366
0.0138813
-0.056111
0.00402785
-0.0071702
0.00261221
-0.180832
0.0246855
0.167114
-0.0109673
0.0388246
-0.0104808
-0.0283437
-0.000935128
-0.00172784
-0.0012695
0.00393247
-0.0402569
0.0434386
0.126175
-0.129357
-0.00173731
0.000722223
-0.00215496
0.00317004
0.0898155
-0.00293557
-0.0441486
0.000376752
-0.00114735
0.0020795
-0.0013089
-0.0185981
-0.114863
0.0142441
0.119217
0.00238789
0.0529361
-0.00327745
-0.0520465
0.0482182
-0.0681976
0.058702
-0.0387226
0.0318413
-0.0363556
0.0498366
-0.0453222
0.00892998
-0.00262968
0.0062033
-0.0125036
0.00201365
-0.0428484
0.0544187
-0.0549655
-0.0358088
0.0979216
0.0178144
-0.0254092
-0.0903268
0.0473256
0.0178412
-0.136354
0.071187
-0.00136565
-0.00833771
0.00613297
0.00357039
0.0279035
-0.0504045
-0.00324297
0.0283528
-0.0257908
0.00758346
-0.00588019
0.000264291
-0.00196756
-0.0895045
0.00406178
-0.00317691
0.0755939
-0.15151
0.0790933
-0.0261205
-0.0880244
0.0420435
0.0721014
-0.0710598
0.0201229
0.00224518
0.0486917
-0.0448776
0.0290352
0.0122455
-0.0824408
0.0952044
-0.0127636
-0.0227665
-0.00910131
0.119202
-0.0873339
-0.00335977
-0.00411633
0.00599336
0.00148274
-0.0263049
0.0608058
0.0413519
-0.0717437
0.0289333
-0.000602617
-0.000387767
-0.00103129
0.00202167
0.0488251
-0.0498036
0.0540096
-0.0364039
-0.00694663
-0.0454277
-0.122171
0.0435772
0.0785935
-0.0438448
-0.0335218
0.0286539
0.00299026
-0.00206721
0.000522965
-0.00144601
0.00233406
-0.000277008
0.00093321
-0.0869733
0.00459848
0.0823748
0.059628
0.012086
-0.120772
0.0490576
-0.0724403
0.00147981
0.0709605
0.000873391
-0.00145601
0.0080961
-0.00751349
0.0473396
0.157491
-0.223045
0.0182144
0.00155759
-0.0023285
0.00161721
-0.000846302
-0.092646
0.0680617
0.0223591
0.00222514
-0.000747072
-0.0012097
0.00167556
0.000281209
-0.00105907
0.00849926
-0.00776129
0.000321092
0.00827056
0.0082392
-0.016258
-0.000251743
0.0397782
0.0109683
0.00285571
-0.00261316
0.00131504
-0.0970011
0.106768
0.0046668
-0.0144332
0.012297
-0.0670962
-0.0220184
0.0768176
-0.000909096
-0.00112089
0.0887348
-0.0867048
-0.0428826
-0.0381151
0.0904365
-0.00943875
-0.0395561
0.0249097
0.0399673
-0.025321
0.0515715
0.0211363
-0.0710801
-0.00162763
-0.00292955
0.000855105
0.00242859
-0.00035414
-0.122668
-0.0417663
0.0387505
0.125683
0.050095
-0.0390548
-0.0325811
-0.0363722
-0.0324042
0.101357
-0.0018801
0.00415957
0.000120709
-0.00240017
-0.0301495
-0.0812473
0.0280446
0.0833521
-0.0293378
-0.027347
0.0202808
-0.000970023
-0.00297729
-0.00156569
0.00342193
-0.00351054
0.0016543
-0.00606358
0.00615326
0.0224595
-0.0749163
-0.0820977
0.134554
-0.000325918
-0.000172447
0.000295779
0.000202586
0.0536883
-0.0573123
0.0480588
-0.0444348
-0.0142669
0.0416185
-0.0063865
-0.0209652
0.0861918
-0.086685
-0.0199789
0.0204721
0.0265201
0.0221192
-0.0627552
0.0141158
-0.128882
0.0739352
0.0195399
0.0354068
-0.00491249
0.0025202
4.87553e-05
0.00234354
-0.00757646
0.00902744
-0.00057759
-0.0139122
-0.00356767
0.0189773
-0.00149736
-0.0642942
-0.0033008
0.0160879
0.0515071
-0.00836081
0.102563
-0.00625544
-0.0879469
0.00446019
-0.0473031
0.0817223
-0.0388793
-0.0017523
0.00397828
-0.0016493
-0.000576674
-0.0151092
0.000751699
-0.00265841
0.0170159
-0.106105
-0.00144253
0.0133974
0.0941499
8.08136e-05
-0.000156557
0.000318045
-0.000242301
0.0379507
0.0086382
0.0274671
-0.00684407
0.0470173
0.0541497
-0.094323
-5.47744e-06
0.000406935
-0.000320644
-0.000575994
0.00219208
-0.00140701
-0.000209078
0.0181332
0.111654
-0.049115
-0.0806717
-0.000112784
-4.37737e-05
0.00014461
-0.000257393
0.0610423
0.0168445
-0.091363
0.0134762
-0.155471
0.0835238
0.078829
-0.00688213
-0.0182866
0.000821339
-0.0510095
0.0684747
0.0249676
-0.0149004
0.01788
-0.0279472
-0.0660833
-0.0238095
0.0898928
-0.0758644
0.0380727
0.0377917
-0.00201933
-0.00030426
-0.000142019
0.00246561
-0.0387429
0.0415733
0.00854703
-0.0113774
0.048146
-0.0556739
0.00752789
-0.0595177
0.0339004
0.0455474
-0.0199302
0.0041043
-0.00193238
-0.002068
-0.000103929
-0.00304049
-0.00259373
0.00072173
-0.0429831
-0.0446136
0.046082
0.0143342
0.00287157
-0.0632877
0.00109023
-0.000556309
0.000154885
-0.000688807
-0.0100581
0.0144016
-0.0105764
0.00623298
0.00623247
0.0212408
-0.0391361
0.0116629
-0.0204814
-0.0167861
-0.00660625
0.0438738
-0.0738161
-0.00998045
0.0281174
0.0556791
-0.00143048
0.0149012
-0.00854406
-0.0049267
-0.0541516
0.000553707
0.0331165
4.7283e-05
0.0279007
-0.136079
0.126078
-0.0179001
0.0271478
-0.0334813
-0.0516825
-0.0285836
0.056761
0.000228604
0.0388136
0.00241263
-0.0414548
-0.0597202
-0.0608148
0.120535
-0.002967
-0.000798485
-0.00182715
0.00559263
0.00324796
-0.00457684
0.00159055
-0.00026168
0.0360234
-0.00578282
-0.0285322
-0.00170839
-0.00323121
-0.00199969
0.0022639
0.00342521
-0.00851042
0.0675382
-0.062453
0.075694
0.000953855
0.0281955
0.00891187
-0.00574225
-0.0313651
0.0567292
0.00112797
-0.0578572
-0.0566587
0.115567
-0.0293994
0.0600478
0.0218397
-0.0524881
-0.0148516
-0.022864
0.0151371
0.0225785
0.00342583
0.00347254
0.000820894
-0.00771926
-0.0357996
-0.0379294
0.0995831
-0.0258542
0.0429155
-0.0344558
-0.000596064
-0.0078636
-0.0534727
0.116405
-0.0493053
-0.0136273
-0.00171738
0.00196561
-0.000196979
-5.12553e-05
-0.00109971
0.0214868
-0.00360412
-0.016783
0.00258457
0.00361578
0.000261361
-0.00646171
-0.000314176
-7.65783e-05
1.11371e-05
0.000379617
8.68957e-06
4.34809e-05
-0.000366346
-0.00915586
0.025488
0.0678705
-0.0842026
0.0798663
-0.0818888
0.00202243
0.000352411
-0.000367966
1.55543e-05
-0.013318
0.00105613
0.00216462
-0.00144747
-0.00177328
-0.0106166
-0.00773649
0.00648214
0.0118709
-0.0559182
0.0265188
0.000302203
0.00034657
-0.000815273
0.0001665
0.0325253
0.0561135
-0.0373999
-0.0512389
0.0156461
0.153229
-0.178336
0.00946075
0.0583282
0.0651462
-0.0634266
0.00202279
-0.0129277
-0.00133236
0.0122373
-0.0316038
-0.0295077
0.0611115
0.0328341
-0.0644379
-0.0529106
-0.0432642
-0.0684925
0.164667
0.0502747
-0.0563835
0.0061088
-0.0726192
0.132453
-0.0708319
0.0331784
-0.0297152
0.086231
-0.0027984
-0.0691877
-0.0142449
0.0703624
-0.0698143
0.0112503
-0.0117984
-0.000372226
-0.00574373
0.00746375
-0.0013478
0.00201858
-0.0055041
0.00555298
-0.00206746
-0.000132432
-3.48056e-05
0.000847269
-0.000680031
0.021674
0.0219604
-0.032868
-0.0107664
-0.00515167
-0.00544491
0.00600469
0.00459189
-0.00969287
0.0324986
-0.0439189
0.0211132
0.000743757
-0.00815962
0.0111543
-0.00373849
0.0485817
-0.00442516
-0.0441565
0.0402558
0.0366982
-0.126197
0.0492426
-0.1002
0.0613144
0.0791419
0.0339109
-0.101277
-0.0446116
0.107785
-0.0413744
-0.021799
0.0019252
0.00897987
-0.0124764
0.00157132
0.0272529
-0.00409717
-0.0231557
-0.029418
0.0461208
-0.00386951
0.0197146
-0.032109
0.0014611
8.10558e-05
0.000675723
-0.00221788
0.0115309
-0.0373217
-0.00115419
0.000183445
-0.000513561
0.00148431
0.00267142
-0.000153949
0.000811835
-0.0033293
0.000618115
-0.000964317
-0.0768777
-0.0149623
0.00192766
-0.0105717
0.0236064
0.0192415
-0.0891349
0.0214484
0.0484449
-0.00280855
0.0575428
-0.082427
0.0276927
0.000698422
-0.000807341
0.00207445
-0.00196553
0.0802328
0.0131777
0.000553428
-0.093964
-0.00105285
-0.000836609
0.00206538
-0.000175923
0.00331178
-0.000101381
-0.0683123
0.0651019
0.00620119
-0.0011161
-0.00445631
-0.000628779
0.00591377
0.00437608
-0.00341223
-0.00687762
-0.110618
0.0975359
-0.0879111
0.100993
-0.05597
0.109255
-0.0532847
0.0036503
-0.0458327
0.00952574
0.0326567
0.0034538
-0.00399159
0.00110899
-0.000571194
0.0472248
-0.00133887
0.00039996
-0.131965
0.00156042
0.0737456
-0.0333628
-0.000627577
0.00120311
0.0292554
-0.0236993
-0.00675918
0.0770309
-0.0280177
0.0326038
0.00372487
-0.00465593
7.91331e-05
0.000851923
0.0341346
0.0231712
-0.0748275
0.0175216
-0.00109924
0.000607793
0.000952529
-0.000461077
-0.000464787
0.00133585
0.00504271
0.000771868
-0.00738965
0.00603514
0.00507938
0.0778597
0.0407704
-0.0378018
-0.0808283
-0.134307
0.144629
-0.00960635
-0.00071539
0.0305643
-0.0306321
6.77439e-05
-0.0360878
0.00034048
0.000247348
-0.00296775
-0.00193552
0.0128886
0.209206
-0.157021
-0.0650729
0.0298547
-0.0619521
-0.0180455
0.0501429
-0.00276622
0.0380537
-0.000192683
-0.0860518
0.0481908
-0.0211443
0.00822769
-0.0371514
0.0467693
0.0469158
-0.0565337
-0.0678277
0.0877365
-0.148716
0.128807
-7.54717e-05
0.00017996
-0.00149418
0.00138969
0.000285996
0.00218456
-0.000822645
-0.00164791
0.0462391
-0.0183999
0.0413359
-0.0691751
-0.00356152
0.000453058
0.00312827
-1.98108e-05
-0.0117318
0.0116528
-0.0370725
0.0107605
-0.0434795
0.00582967
-0.00309355
0.0178391
-0.0205752
-0.130351
0.0152412
0.123149
-0.00803975
0.0396184
-0.0260059
-0.020168
0.00655549
0.0351378
-0.0553076
0.00843804
0.00395143
0.00727652
0.0518223
-0.0630502
0.0240336
-0.00750365
-0.0251443
0.00861428
-0.0813456
-0.00779077
0.016734
0.00121975
-0.000909506
-2.42512e-05
0.000471259
0.00671357
0.00162939
-0.00881422
0.0173373
-0.031813
0.0385093
0.0155639
-0.140331
-0.0248401
0.149608
-0.111176
-0.0160403
0.0247128
0.102504
0.0563799
-0.0344529
0.0305706
-0.0524976
0.109705
-0.00735854
0.00471372
-0.10706
-0.0175308
-0.0374976
-0.00392096
-0.0153032
0.007412
0.0118121
-0.00124781
0.000458709
9.9868e-05
0.000689234
0.0139939
-0.077012
0.0630181
0.10274
-0.0058277
-0.112943
-0.0262298
0.0562033
-0.0475043
0.0396976
-0.121761
0.0125724
0.0694907
-0.00493542
-0.0118466
-0.0273709
0.0441529
0.00421722
0.0480719
0.078465
-0.127431
0.000894223
0.048737
-0.0831368
0.0908381
-0.0564383
-0.0975148
0.0946887
-0.00588833
0.00871445
0.0015351
0.00231312
-0.0936617
0.0898135
-0.00136735
0.00360632
0.0058883
-0.00812728
7.94362e-05
-0.000828127
-0.000191383
0.000940074
0.0876105
0.0031545
-0.0196361
-0.0711289
-0.000334901
0.000424551
-0.000281116
0.000191466
0.000691032
0.00314177
-0.00200299
-0.00182981
-0.0017895