/*--------------------------------*- C++ -*----------------------------------*\
| =========                 |                                                 |
| \\      /  F ield         | OpenFOAM: The Open Source CFD Toolbox           |
|  \\    /   O peration     | Version:  2506                                  |
|   \\  /    A nd           | Website:  www.openfoam.com                      |
|    \\/     M anipulation  |                                                 |
\*---------------------------------------------------------------------------*/
FoamFile
{
    version     2.0;
    format      ascii;
    arch        "LSB;label=32;scalar=64";
    class       volVectorField;
    location    "0.0100321";
    object      U;
}
// * * * * * * * * * * * * * * * * * * * * * * * * * * * * * * * * * * * * * //

dimensions      [0 1 -1 0 0 0 0];

internalField   nonuniform List<vector> 
47425
(
(10.1087 -0.15998 0.105955)
(10.1009 -0.194322 -0.950154)
(9.89141 0.144564 0.0327912)
(10.8992 -0.210439 -0.192305)
(11.392 0.172397 0.705773)
(10.1219 0.00690307 -0.0233243)
(11.2816 0.0981056 0.603632)
(10.0643 0.00130639 -0.084369)
(10.3108 -0.134685 -0.0111208)
(6.71514 5.23123 -0.920763)
(10.0713 -0.0505377 -0.00244216)
(10.6976 0.0438148 0.0384865)
(11.2097 0.164438 0.232993)
(9.89566 0.0550162 -0.175067)
(9.76887 0.22229 -0.245869)
(9.18702 -0.256967 0.506672)
(9.72042 0.150024 -0.170786)
(8.77481 -0.389754 -0.998754)
(8.82593 0.649619 -4.2612)
(12.6924 -0.272545 -0.241338)
(10.5823 -0.518344 -0.480591)
(9.75907 0.144868 -0.14477)
(10.1867 -0.0313816 0.178673)
(9.96057 -0.0428243 -0.0937974)
(9.86752 -0.152879 0.0946812)
(10.2944 -0.0768229 0.0538336)
(10.0748 -0.127309 -0.00413438)
(11.5971 -0.120695 -7.71296)
(9.9322 -0.0276543 -0.029305)
(9.86769 0.0991135 0.087237)
(9.66858 0.280582 0.290409)
(10.0323 -0.00297679 0.298107)
(9.97776 -0.322507 -0.0690824)
(9.92728 0.657205 0.105708)
(10.0323 -0.297803 0.160961)
(9.86955 -0.0346969 0.0608856)
(9.71797 0.0252604 -0.0610242)
(9.30514 0.708991 -0.685074)
(10.3233 -0.2094 -0.276473)
(10.0176 0.141297 -0.078763)
(9.80419 -0.275611 0.607682)
(9.6648 0.0504723 0.0862094)
(9.59496 -0.253651 0.266465)
(10.0517 0.190948 -0.0830327)
(2.71006 -2.01719 -1.83804)
(10.2545 0.103521 0.552358)
(9.97932 0.145445 0.00379239)
(10.0379 0.0508307 -0.122114)
(10.1243 -0.414597 0.198227)
(10.0418 -0.156333 -0.0652836)
(2.03236 -0.375616 -5.05916)
(9.76206 0.479947 0.469445)
(10.1623 0.107402 0.0564518)
(7.99699 -5.29399 1.17749)
(10.0623 0.0810111 0.0133937)
(10.4082 -0.107013 -0.272465)
(10.0852 -0.0448511 -0.22383)
(9.93455 -0.0205001 -0.0907132)
(12.526 0.15849 -0.221785)
(9.9574 0.218951 -0.20648)
(7.19105 -5.16969 0.325374)
(6.31832 0.285181 0.824846)
(7.22946 -7.20545 0.680659)
(9.19599 -0.83942 0.271477)
(9.78927 0.136143 0.461419)
(10.4579 -0.145833 0.137391)
(9.71832 0.0808944 0.0772779)
(10.2022 0.00429938 0.413278)
(8.94377 -6.1106 2.33706)
(9.08744 0.385777 0.656524)
(10.575 -0.270399 0.156914)
(10.2774 0.0507813 -0.0913195)
(10.5123 0.0555942 0.0677368)
(10.5696 0.194631 -0.477321)
(8.26309 6.34223 0.853922)
(9.3398 -0.163139 0.324711)
(7.58624 -7.39324 1.42485)
(9.98021 0.265931 -0.0982484)
(8.41095 -5.58909 2.47697)
(10.9918 0.122036 1.3615)
(8.72848 6.29667 1.06149)
(10.2533 -0.018156 0.111442)
(9.39533 0.0465133 -0.14979)
(9.99842 0.285736 0.468222)
(9.57019 0.332081 -0.242797)
(9.68619 0.203112 -0.0759182)
(10.245 0.0491603 0.00436333)
(10.1732 -0.0501586 -0.197347)
(9.7935 0.562531 -0.490739)
(10.6986 -0.0696924 2.04183)
(9.71393 0.219296 -0.0279079)
(10.4254 -0.518161 -0.356401)
(10.0375 -0.126519 0.347075)
(9.98036 -0.186778 -0.197664)
(9.52631 -0.00285823 -0.226173)
(10.1868 -0.275493 -0.187425)
(10.0201 -0.0354366 -0.0883815)
(10.1814 -0.259375 -0.279168)
(10.1066 0.0945457 0.411306)
(9.98657 0.87058 0.720306)
(9.94771 0.182529 -0.0243428)
(8.78534 0.0917854 -3.3226)
(10.4026 0.0620998 -0.0185606)
(5.53635 1.59438 -0.129302)
(10.32 0.136806 0.116793)
(9.8916 -0.195567 0.174683)
(9.70093 -0.0160597 -0.105901)
(9.87849 -0.042654 -0.0969468)
(10.1957 -0.015817 0.0354779)
(10.0137 0.0400418 0.0126569)
(1.82379 -0.525944 -1.84505)
(10.0822 0.208852 0.0884061)
(10.0397 -0.38634 0.159434)
(9.99764 -0.0647201 0.166815)
(10.2954 -0.235787 0.196354)
(1.8731 -3.89467 -5.12819)
(10.2872 -0.286638 0.137336)
(4.24329 0.119737 -3.53674)
(10.4788 0.333533 0.456812)
(10.3621 0.287939 0.277939)
(9.8549 0.171306 -0.0154524)
(9.7377 -0.280113 0.159703)
(10.0314 -0.113833 0.161971)
(11.232 0.557329 -0.380053)
(9.87642 0.522846 0.187852)
(10.0354 -0.368714 0.162484)
(10.0353 0.113517 0.104484)
(9.61546 -0.0769218 0.303948)
(9.81283 0.0376043 -0.522902)
(10.0934 -0.0724681 0.140767)
(9.58515 0.0152903 0.326481)
(9.87042 0.164506 -0.301958)
(4.71091 0.213602 1.44752)
(10.278 -0.0446713 0.183251)
(9.84614 -0.174742 0.0634266)
(11.3794 -0.386312 -0.55821)
(10.6025 0.3582 0.147854)
(10.074 -0.434776 0.208056)
(9.86619 0.373726 0.327597)
(10.4485 0.0788748 -0.358305)
(10.4118 0.153278 0.167569)
(11.0629 -0.22054 0.0301539)
(10.3678 -0.101641 0.060189)
(9.99348 -0.486227 0.190544)
(9.96076 0.114266 -0.359101)
(10.0494 -0.234555 -0.029046)
(11.1517 0.058757 0.950191)
(10.2927 0.0556722 0.138178)
(10.2704 0.00570975 0.28495)
(10.1211 -0.0247042 -0.0866625)
(9.97316 -0.45872 0.125981)
(3.05034 -0.342844 -6.06583)
(10.155 0.198858 0.367798)
(6.08921 0.125103 -10.8294)
(8.98682 -0.931946 -0.384674)
(10.0225 0.120094 -0.0120581)
(10.7162 0.220047 -1.30205)
(7.7412 -3.32224 -2.16285)
(10.2671 -0.348542 -1.12876)
(10.1857 -0.380835 -0.0938108)
(10.4309 -0.342502 0.13997)
(10.0958 0.114837 -0.379725)
(9.95437 -0.0184157 -0.478835)
(9.68133 0.333166 0.159781)
(12.3325 0.105209 0.379597)
(2.637 -1.70351 -1.88216)
(10.2977 0.0172135 -0.105092)
(8.65831 6.19833 0.932635)
(10.064 -0.50321 -0.065852)
(12.2446 0.380652 -3.40589)
(9.40955 5.75414 0.669247)
(9.95209 0.760632 -0.0891097)
(10.1268 0.178417 -0.00343116)
(9.46545 -0.760183 -0.338094)
(10.8251 -0.211276 -0.267635)
(9.40156 -2.56313 -0.808464)
(2.82606 0.765849 -6.9537)
(9.98399 -0.0223705 -0.140592)
(9.96972 -0.0196453 0.177451)
(10.169 -0.140581 -0.0568979)
(2.60479 0.23777 -10.4384)
(9.90729 -0.103604 -0.220435)
(9.6831 -0.138226 0.0902988)
(9.28791 -0.640211 -0.0172305)
(10.0798 0.0383047 -0.0380639)
(9.79914 0.251574 -0.210322)
(10.2981 -0.464701 0.244029)
(5.75771 -0.266266 0.0916605)
(9.8865 -0.137064 0.262184)
(9.92081 0.130208 -0.124865)
(10.0412 -0.250326 0.154803)
(9.86744 -0.300128 0.0449563)
(10.592 0.706325 -0.973484)
(10.0323 0.426444 -0.158172)
(9.90562 -0.156542 -0.202595)
(10.5103 -0.22132 0.00523412)
(10.2604 0.208625 -0.374853)
(9.90305 -0.0840735 0.213266)
(10.5825 -0.264076 0.155822)
(9.93117 -0.0877332 -0.252578)
(9.9932 0.235766 -0.416984)
(9.76518 -0.243494 0.172343)
(10.2049 0.0367428 0.0312486)
(10.3689 -0.274275 0.0231099)
(10.1443 -1.11741 -0.595052)
(10.3044 -0.400802 0.133362)
(9.78225 -0.163262 0.631439)
(10.4227 -0.185645 -0.0128603)
(9.84326 -0.0297402 -0.116117)
(8.99113 0.664803 0.0176752)
(10.1117 0.0057766 -0.411134)
(10.5307 -0.0267417 0.132195)
(10.2117 0.312246 0.0871156)
(10.0238 -0.424146 -0.296883)
(10.1512 0.0934049 0.155036)
(10.5479 -0.354815 -0.181811)
(10.3461 0.319408 -0.00919385)
(11.119 0.0165262 1.08276)
(8.78117 -0.99544 -0.284562)
(10.0299 -0.274851 -0.259867)
(10.8525 -0.256771 1.8842)
(10.3374 0.178099 0.180658)
(9.8437 -0.40575 -0.11702)
(10.4363 -0.46147 -0.226575)
(10.1068 0.0403886 0.433918)
(10.8242 -0.419042 1.7948)
(9.72627 0.0316416 0.0822241)
(10.5185 -0.264823 -0.406728)
(10.5481 0.449601 0.249063)
(10.7327 0.888273 -0.126852)
(10.294 0.053283 -0.0349521)
(10.1469 0.00233149 0.0284159)
(9.89068 0.0428262 -0.288099)
(9.92456 -0.00673867 0.250377)
(10.1176 0.383182 -0.0600049)
(10.0812 0.0853512 -0.00698359)
(10.9907 0.2335 1.4809)
(9.83235 -0.0617147 -0.259778)
(11.0952 0.177909 1.37397)
(10.325 0.253394 -0.316691)
(9.86859 0.0380087 0.304753)
(9.52295 -0.304167 -0.193073)
(9.8242 0.0602401 0.136449)
(10.9783 -0.175195 -0.123215)
(10.3993 0.258309 -0.0930322)
(9.31985 0.0993699 0.380729)
(10.2199 -0.109566 0.315108)
(8.72511 1.16505 -0.56207)
(9.81156 -0.243408 0.0780189)
(9.94252 -0.152161 0.00818082)
(9.80201 -0.42971 0.189464)
(10.8071 -0.0674115 1.37782)
(9.66984 -0.231922 0.278646)
(9.81345 -0.537948 -0.191857)
(9.3948 -0.0288635 -0.257671)
(10.0698 0.149732 -0.170167)
(10.0145 -0.339392 0.211846)
(10.3611 0.216557 0.277514)
(10.557 -0.130553 0.0298329)
(10.0149 0.205103 -0.0783289)
(10.5848 -0.254323 -0.527971)
(9.90244 -0.249353 0.437136)
(10.272 0.247389 0.114177)
(10.2925 -0.400402 0.171468)
(10.8281 -0.0316666 0.484557)
(9.81236 0.103673 0.335507)
(9.97314 -0.0769891 -0.026214)
(10.8913 -0.0122939 0.404759)
(10.0301 0.159896 0.271932)
(10.3954 0.110239 0.383598)
(10.0004 0.280698 0.169503)
(11.1413 0.227298 1.15778)
(11.029 0.236514 1.22687)
(9.91394 -0.556817 -0.271729)
(11.0027 0.088426 1.21125)
(10.3778 -0.271593 -0.15531)
(11.0584 0.163648 1.17087)
(7.40938 2.90116 2.89841)
(10.9784 0.206055 1.20092)
(5.94872 0.9649 -4.57279)
(6.77594 -4.94297 0.0394787)
(9.99583 -0.0178815 0.0509007)
(6.31812 -4.75445 -0.750939)
(9.9373 0.19588 -0.367134)
(9.78088 0.204103 0.202451)
(10.6719 -0.089586 0.210674)
(10.0273 0.038884 0.00982579)
(9.69711 0.196338 -0.00730111)
(9.44243 0.180078 0.957809)
(10.149 -0.30962 0.167099)
(1.40304 1.32563 -3.01177)
(9.41 0.642026 0.1389)
(9.98955 -0.0385694 0.00401022)
(9.85507 -0.250432 0.0111364)
(9.87494 0.0489304 0.159264)
(10.9791 -0.0258104 0.0873974)
(11.0391 -0.103836 -0.291112)
(10.3837 -0.211949 0.169568)
(9.8566 0.0783561 0.0173075)
(10.8877 0.135281 0.423105)
(10.085 0.353947 -0.564662)
(10.0591 -0.521222 -0.013419)
(9.90134 -0.613804 0.156977)
(9.99081 -0.206209 0.067122)
(14.6386 2.0971 0.65696)
(10.5561 -0.824944 0.86293)
(1.56426 0.884066 -5.7144)
(9.8791 0.000356067 0.283051)
(10.0404 0.19166 0.210443)
(10.0018 -0.45503 0.00302628)
(9.83467 -0.262316 -0.0124075)
(1.13178 -0.420135 -5.03391)
(10.119 -0.0302342 0.0425184)
(10.0577 -0.152195 0.0223458)
(9.97489 2.02244 1.2976)
(9.91031 -0.211752 0.0129553)
(10.0494 0.0387575 0.16752)
(9.93413 0.275381 0.400553)
(9.90359 0.395255 0.227017)
(13.7306 -0.25845 0.413318)
(10.1527 1.84746 1.27154)
(10.001 0.0650745 0.371431)
(10.2707 0.601097 -0.154578)
(9.9213 0.137427 -0.0700622)
(9.34924 0.764765 -0.65351)
(9.92867 0.215345 0.0818586)
(10.3189 -0.43346 0.200222)
(10.1324 0.0276877 -0.446967)
(9.94427 0.0942163 -0.1392)
(9.91766 0.0921909 0.470885)
(10.6318 -0.0948524 0.308475)
(12.7687 -3.85036 1.71769)
(10.2645 -0.54221 -1.02933)
(9.87635 -0.0378975 0.10855)
(10.3531 -0.0411704 -0.287504)
(9.59129 0.248758 -0.129456)
(13.3892 -3.39539 2.07926)
(10.0037 -0.260564 -0.0381474)
(9.97325 0.0857573 0.0598096)
(10.1255 -0.496278 -0.0376919)
(9.78291 0.0897355 -0.112485)
(9.95614 0.0878464 -0.000725161)
(10.0706 -0.0615578 -0.0266657)
(9.70163 -0.0466857 0.29064)
(9.95184 -0.0326401 0.467397)
(9.48454 -0.23112 -0.28592)
(9.92141 0.248797 -0.66678)
(9.92397 0.263029 -0.06429)
(10.176 0.0299145 0.276146)
(9.96515 0.180797 0.212394)
(10.1625 -0.298952 -0.140869)
(10.3391 -0.267245 0.276107)
(10.1202 0.0264872 -0.00769879)
(9.58873 -0.199947 0.0137792)
(9.71047 -0.519687 0.116297)
(11.0259 -0.577195 0.172962)
(10.3609 -0.01037 0.287185)
(9.5899 0.178866 0.120157)
(9.90326 -0.452035 0.129795)
(10.3401 0.198258 -0.037677)
(10.7014 0.036152 1.93562)
(10.309 -0.528379 -0.322069)
(9.99487 -0.709735 -0.247781)
(10.2369 0.322963 -0.0773511)
(10.1094 0.0402423 0.141792)
(9.95885 0.250981 0.145969)
(10.2855 -0.181966 -0.199957)
(9.95738 0.103923 -0.0862037)
(10.1013 0.155801 -0.124021)
(10.2428 0.43113 0.0414748)
(10.3302 -0.278754 -0.232619)
(2.65252 -2.62643 -1.71171)
(10.4106 -0.180209 -0.0224278)
(9.97935 0.56407 0.0470176)
(10.0204 -0.118754 -0.120214)
(9.9795 0.468947 0.0833189)
(9.54635 -0.209461 0.0467829)
(10.0092 -0.191261 0.0264766)
(9.72599 0.516798 -0.416987)
(9.74994 -0.0140518 -0.0615206)
(9.92098 0.464637 -0.440765)
(10.0899 0.504369 0.045391)
(10.3438 -0.107533 -0.124897)
(10.4526 0.08579 0.0830329)
(9.72122 0.0713478 0.0604351)
(10.3541 0.136344 0.104374)
(10.4401 -0.359836 -0.0459766)
(10.1859 0.409321 -0.011104)
(10.3309 -0.0568088 -0.281955)
(10.1738 -0.386629 0.0619328)
(10.1899 0.667117 -0.139513)
(10.0936 0.912563 -0.22346)
(10.4262 0.0448232 0.19342)
(10.3256 0.188133 0.0734398)
(10.1654 -0.183042 0.0520939)
(10.0817 0.663129 -0.111847)
(10.2467 0.144905 0.0210009)
(10.1404 -0.138883 -0.104999)
(11.0371 -0.762322 -0.608922)
(9.92712 0.0667835 -0.091575)
(10.4702 -0.497058 1.78396)
(10.2812 0.0391696 -0.0986934)
(9.98631 -1.90312 -3.0542)
(9.88773 0.0455159 -0.523861)
(10.6158 0.19181 0.19971)
(9.83704 0.895026 -0.574151)
(9.8761 0.288016 -0.0773815)
(9.88982 0.013651 0.123348)
(10.1852 0.0337869 0.117028)
(10.2819 -0.0538787 -0.179061)
(10.0494 0.833778 -0.21061)
(5.1962 -0.111064 0.0668288)
(2.61755 -0.462653 -1.9126)
(10.3678 0.219439 0.211691)
(10.1389 1.17259 -0.516927)
(10.4393 0.455744 -0.0901516)
(10.5462 0.404385 -0.0302221)
(9.98359 -0.260291 0.111943)
(9.98372 0.0202798 0.321613)
(10.1953 0.220585 -0.0688325)
(9.82138 -0.113544 -0.118257)
(9.8027 -0.145942 -0.176955)
(9.8648 -0.0510506 -0.252568)
(10.5624 0.426463 -0.258441)
(10.183 -0.171315 -0.0713845)
(9.92953 0.0689092 -0.194297)
(10.2203 -0.973489 0.446921)
(10.9101 0.405269 -0.0437058)
(10.6665 0.385713 0.16286)
(8.21954 -1.01755 -4.48023)
(0.122553 4.30465 -0.741567)
(10.0668 -0.266109 -0.0325871)
(7.65225 -0.80171 -4.953)
(0.0711502 2.93723 -0.452072)
(9.37016 0.0947989 0.274258)
(-0.116927 4.81547 -0.290487)
(9.87797 -1.37259 1.66795)
(9.8037 -0.622949 0.155407)
(10.6653 0.59449 -0.163824)
(10.6448 0.598547 -0.107706)
(10.825 0.504241 -0.119258)
(-0.461121 4.32775 -0.189825)
(10.057 0.222982 0.204433)
(10.0627 -0.285427 -0.193891)
(10.0244 -0.0302992 0.0157467)
(10.8976 0.519709 -0.207178)
(10.8167 0.569659 -0.225156)
(10.0976 0.11083 0.213601)
(9.90641 0.0699685 -0.0913236)
(9.65449 3.02312 2.55228)
(-0.538406 3.28536 -0.704595)
(12.5561 -0.309829 -2.28226)
(10.2003 -0.233707 -0.0643451)
(8.79265 -0.456156 -2.74167)
(10.0098 0.340134 0.478386)
(10.3717 -0.173719 0.0809837)
(10.5851 0.166262 0.0960981)
(11.0633 0.124269 0.316636)
(10.5661 0.18609 0.00460994)
(10.2976 -0.111845 -0.0175833)
(10.1023 0.0700275 -0.134079)
(9.811 0.335378 -0.375599)
(10.2544 0.00481242 -0.24617)
(9.81281 -0.169509 0.0473279)
(9.98885 0.0170103 0.17702)
(10.0974 -0.0519109 0.0466262)
(9.85069 0.251603 0.128809)
(10.6108 -0.106743 0.0863786)
(9.87179 -0.173336 -0.0285743)
(9.87515 0.261063 -0.258823)
(10.1981 0.118011 -0.0359295)
(9.99525 -0.0152794 -0.283007)
(9.6118 -0.313709 0.465568)
(10.199 0.0221061 0.0509502)
(10.248 -0.334283 -0.0260288)
(9.81864 -0.0188829 -0.262692)
(10.6087 -0.0521441 0.0739891)
(9.19643 3.64295 2.01706)
(9.68206 -0.301662 0.096923)
(11.5579 1.26846 -0.812219)
(10.1543 0.152509 -0.0777252)
(10.3719 -0.203982 0.139035)
(9.54164 -0.175557 1.42151)
(9.65643 1.13751 -0.453375)
(9.89232 -0.10985 -0.0372714)
(9.77613 1.15713 -0.476647)
(10.2659 0.0133733 -0.241411)
(9.67165 -0.362374 0.202017)
(9.8569 1.0849 -0.659191)
(10.1674 0.409408 -0.479135)
(10.0963 -0.496638 -0.0165801)
(9.70964 1.02838 -0.517005)
(10.3601 -0.0191628 -0.261838)
(10.4199 0.0853701 -0.141072)
(8.32099 0.129563 -3.37912)
(10.0984 -0.0205925 0.0824064)
(9.67547 1.54164 -0.390772)
(9.5868 -0.207441 0.0187087)
(9.11602 1.70606 -0.689639)
(10.0907 -0.237059 0.146253)
(9.95133 -0.266379 0.185787)
(9.86602 0.218 -0.0431647)
(10.2186 0.112537 0.205737)
(11.0766 0.282208 0.576183)
(9.67713 0.275341 -0.0953826)
(10.0433 0.133392 -0.153731)
(9.70928 -0.112158 -0.164015)
(10.3222 0.294214 -0.0243031)
(10.6024 0.0950654 0.13177)
(10.1566 -0.0583083 0.0761215)
(9.94782 -0.0642986 -0.0303797)
(8.88444 0.143803 -0.342265)
(10.2283 0.045619 0.0129744)
(10.0171 0.262401 0.0751288)
(9.6753 0.0561187 -0.27526)
(9.7933 0.290464 -0.312498)
(10.2321 0.0635976 0.321953)
(9.81643 0.303822 -0.51791)
(10.0814 0.0611322 -0.697647)
(10.1619 1.10253 -0.70152)
(10.3739 -0.10784 0.00272084)
(9.33908 0.0064626 -0.814643)
(3.03017 -0.241956 -5.02077)
(10.0189 -0.146877 -0.418658)
(9.99164 -0.0024375 -0.0201891)
(10.0577 -0.385174 0.213259)
(10.2356 -0.0966964 0.200403)
(12.0349 0.450466 0.482488)
(12.0435 0.0683336 0.786261)
(10.0351 0.401907 0.657357)
(9.91928 0.474347 -0.00381504)
(10.2529 0.0945241 -0.460575)
(10.6468 0.177395 0.732372)
(10.0879 -0.255404 0.00645777)
(12.1766 0.932132 0.455901)
(9.60085 -0.67481 0.193691)
(-1.21582 0.253043 2.46597)
(8.0892 -0.15866 -0.336854)
(9.98926 -0.442241 2.11313)
(9.32294 0.0773112 -0.0648721)
(12.0686 0.808879 0.51466)
(10.0039 -0.136026 0.0365208)
(10.0906 0.10254 0.162508)
(10.1078 0.274471 -0.192174)
(10.1092 0.11723 0.465633)
(10.0043 -0.14249 -0.0290691)
(9.83028 -0.165546 -0.441176)
(11.5735 2.35384 1.13791)
(9.99702 -0.0692213 0.347709)
(10.2928 0.509481 -0.158903)
(10.2166 0.193668 -0.0973824)
(11.9904 0.334125 0.453545)
(10.1675 0.0594105 -0.0442915)
(9.46916 -0.15705 0.108999)
(11.8781 0.535524 0.303471)
(11.5624 -0.159636 0.471146)
(10.1975 -0.302134 -0.125226)
(9.94894 -0.00411075 -0.339094)
(-0.0537318 1.17934 0.627677)
(9.39149 0.0769126 0.053474)
(10.0425 -0.179142 0.0685531)
(10.0634 0.16943 0.151268)
(9.98241 -0.147943 0.155017)
(10.1983 0.00360221 0.216988)
(11.3815 0.038587 0.211904)
(10.5681 0.191997 0.800232)
(9.72214 0.449123 0.898448)
(10.0179 -0.279657 -0.321633)
(9.92939 0.125614 0.178613)
(9.73707 -0.302097 0.144122)
(12.0618 0.182326 1.48569)
(9.45936 0.245828 -0.280482)
(10.0914 -0.147643 0.437872)
(-0.161146 0.911756 0.62909)
(10.2558 0.0123549 0.0475471)
(10.1396 0.0864222 0.0103331)
(-0.62767 0.836459 0.873501)
(12.1148 1.58133 -0.47371)
(9.80482 0.0826338 0.325668)
(0.127241 0.748506 0.191573)
(-0.0663221 1.16125 0.487977)
(9.96883 -0.0750726 0.0192699)
(10.2659 0.640765 0.301401)
(9.91813 -0.0330507 -0.206492)
(9.73673 -0.0861182 0.319897)
(10.3266 -0.346053 0.051718)
(9.71347 -0.19176 0.324426)
(11.9357 4.35751 0.823105)
(10.072 0.134528 -0.00643138)
(10.1354 0.323102 0.0489336)
(9.97756 0.0327731 -0.211793)
(11.8312 -0.502696 0.435538)
(11.3751 0.357505 0.203324)
(10.4645 -0.320396 -0.0469133)
(10.4809 0.0330674 0.241155)
(-0.59984 -2.63717 -0.470791)
(7.29566 -0.777916 -1.44757)
(10.5416 0.0447233 -0.137523)
(9.9625 -0.150173 0.074634)
(10.0432 -0.235548 -0.070855)
(10.7573 -0.0912237 -0.507288)
(10.1386 -0.328179 -0.310515)
(10.0762 -0.0732312 -0.424299)
(10.2405 -0.297413 0.477672)
(10.3117 0.0239424 0.461304)
(10.331 0.0175904 -0.454617)
(10.3108 0.131428 0.119775)
(10.4494 -0.189215 0.369407)
(12.2104 0.561531 -0.112696)
(10.1438 1.24057 -0.763229)
(10.4872 0.0399405 0.130987)
(12.3271 0.732808 -0.366905)
(10.4064 -0.0933475 0.322131)
(9.91001 0.27716 0.462049)
(10.6894 0.448153 -0.00719317)
(9.82112 0.291389 0.173434)
(10.305 0.301094 0.512265)
(10.207 -0.0457307 -0.311199)
(10.0444 0.484556 -0.263207)
(8.08401 -0.387716 -0.935743)
(10.0658 -0.111597 -0.114715)
(10.3826 0.162177 -0.0967315)
(9.83978 -0.00238017 0.0207478)
(14.6961 -4.64869 -1.45408)
(10.7348 -0.31413 0.711)
(10.7787 0.111202 0.60409)
(7.39628 0.913949 0.770883)
(7.00937 0.882263 0.618066)
(9.95452 0.515443 0.147419)
(9.87711 0.293815 0.895641)
(5.54173 0.685314 -0.144668)
(9.99923 -0.14776 0.00375159)
(9.84615 -1.40714 -2.89092)
(10.6203 0.384096 1.84357)
(9.39862 -0.577442 -0.763101)
(10.4297 0.968684 1.47937)
(9.84433 0.261264 0.0535403)
(9.83375 0.143871 -0.0105152)
(10.0847 -0.308343 0.0727578)
(12.4394 0.172223 0.322164)
(9.48347 -0.00296722 1.15159)
(9.59635 -0.900733 0.411962)
(9.93709 -0.0287721 0.102399)
(10.259 0.883371 0.161584)
(9.77349 0.168164 0.177698)
(9.99829 0.0239945 -0.0757781)
(10.0075 0.143445 0.0842606)
(9.87846 -0.0087998 0.202527)
(11.131 0.203857 0.383356)
(9.43138 2.16165 -2.66739)
(14.4862 0.91472 -0.455218)
(10.4392 0.203141 0.0774501)
(10.1458 0.880974 1.30098)
(10.1311 0.0650982 0.179076)
(9.4423 -0.631017 0.305045)
(10.0326 -0.217578 0.169849)
(10.0744 0.622314 -0.0376748)
(10.3414 -0.0310762 0.151766)
(10.1432 -0.0568464 0.0883843)
(9.79282 0.0378802 0.457616)
(9.23996 0.317645 -0.723087)
(11.0793 -0.0751724 0.145585)
(10.264 -0.163718 0.0853032)
(10.4623 -0.152241 0.0560937)
(12.0485 0.497636 1.18893)
(9.60162 -0.033173 -0.0600088)
(8.10783 -6.73085 2.47389)
(12.6771 -0.746873 -2.11562)
(9.52044 -0.0714423 -0.232103)
(9.59347 -0.148759 0.163142)
(10.4849 -0.260691 0.346396)
(10.1186 0.0225468 -0.0694546)
(9.12067 -4.6294 2.48372)
(9.95316 -0.336081 -0.121412)
(9.95771 -5.5194 0.850498)
(10.1 -0.0915684 0.223142)
(10.7641 0.112465 0.709911)
(11.1895 0.273228 0.119294)
(10.0097 -0.0958057 -0.0744663)
(9.71272 0.0883956 -0.248524)
(10.5744 -0.0771634 -0.118819)
(8.81424 -0.361552 -1.73009)
(9.38823 0.0530478 -0.574635)
(10.2725 0.206009 0.564003)
(10.2302 -0.039361 0.199184)
(11.1399 -0.0329269 0.651555)
(9.77417 0.0730185 0.09189)
(11.2714 0.228023 0.401073)
(10.2884 -0.065371 0.04343)
(5.4573 6.42717 1.62372)
(11.1225 0.210666 0.194488)
(10.1758 0.0415062 0.189776)
(11.1549 0.202164 0.306339)
(10.2646 0.0747561 -0.413059)
(10.2762 0.229046 0.226737)
(10.1697 0.350141 0.485808)
(10.0538 0.184697 0.0552274)
(11.3309 0.290801 0.298929)
(9.92547 0.0631771 0.0210411)
(10.267 -0.208901 0.0557599)
(11.2225 0.26068 0.169942)
(10.0932 0.115966 0.163706)
(10.1079 0.178944 -0.198212)
(9.84797 0.112169 -0.0827193)
(9.87821 -0.0281697 0.029079)
(6.91085 0.0979202 -4.39473)
(6.80207 -0.349227 -4.87845)
(10.2957 0.0387233 0.477114)
(8.90381 0.231182 -3.48667)
(9.43084 0.266305 -0.018085)
(9.69873 0.0342564 -0.35247)
(10.5228 0.55556 -0.242878)
(9.92149 -0.440041 0.045705)
(9.76668 0.0725193 0.0585107)
(10.3736 0.0483954 0.262546)
(10.2317 -0.214328 0.185256)
(9.72415 0.258424 -0.123844)
(10.0983 0.0426597 -0.605458)
(5.30066 -0.068109 -5.5709)
(8.64243 -0.547246 1.56801)
(9.8204 0.177259 -0.059779)
(9.98624 0.0662109 0.140691)
(9.85235 -0.119073 -0.157125)
(10.0185 0.0994544 -0.232798)
(9.83872 -0.0540204 -0.214234)
(9.98277 0.230549 -0.145339)
(10.5486 -0.241509 0.141493)
(10.5743 -1.43478 1.99839)
(10.1607 0.131837 -0.0903154)
(9.57414 -0.476034 0.661308)
(10.1667 0.140284 -0.121656)
(9.96183 0.0587743 0.305438)
(9.84865 0.11232 0.00255516)
(10.0382 -0.114494 -0.229872)
(9.96354 0.0764162 0.124031)
(10.0399 -0.0678281 -0.193478)
(10.0735 -0.225018 -0.372529)
(10.193 -0.24255 0.0847719)
(9.36305 -0.717956 -0.831104)
(5.16208 0.44825 -4.00856)
(9.85701 -0.00891004 -0.257534)
(-0.275476 -0.738873 0.781683)
(9.61096 -1.7324 0.904402)
(12.5702 -0.928977 -0.389676)
(0.0501885 -0.694085 0.385803)
(9.98951 0.637645 -0.0503942)
(9.46908 -0.0174554 0.872622)
(10.2879 -0.338859 -2.07341)
(10.8801 -0.710824 0.450863)
(5.84723 0.390306 -3.0221)
(0.274786 0.62974 1.27416)
(1.3572 0.282109 -2.63993)
(10.6747 0.12251 0.495835)
(10.0407 0.289393 0.1608)
(10.6329 -0.00710355 1.10959)
(10.038 0.0312295 0.40952)
(4.10375 -0.178134 0.501387)
(10.5278 0.0772291 -0.199309)
(10.4212 -0.168392 -0.0527957)
(9.78403 0.0197749 -0.201386)
(10.2541 -0.0501026 0.162561)
(10.6545 0.211503 0.704071)
(9.55395 -0.132369 -0.891749)
(10.2322 0.248812 -0.408512)
(10.2453 -0.0933361 -0.282447)
(-1.35822 0.630949 -0.0882175)
(8.24866 0.220936 -1.89744)
(10.397 -0.12107 -0.124376)
(10.0569 -0.534577 -0.204528)
(5.437 0.4629 -1.5891)
(6.18661 0.260357 -2.31172)
(9.69307 0.460808 -1.02153)
(2.85951 -3.66156 -0.792531)
(8.89291 0.210307 1.10851)
(4.60497 0.260384 -3.07444)
(4.23858 0.150196 -3.9927)
(10.341 0.084918 -0.0339191)
(9.827 -0.121917 -0.753197)
(9.58672 0.0334995 0.218464)
(9.92352 -0.165987 -0.0618874)
(10.2797 -0.0123002 -0.120457)
(-0.104016 1.37229 0.664022)
(10.536 -0.0129451 -0.190002)
(10.4274 -0.0404971 0.252279)
(10.106 -0.0794657 -0.162619)
(10.1075 -0.0263869 -0.12708)
(-0.22519 1.12683 0.646028)
(0.300844 0.717213 1.10674)
(9.4482 -0.123702 0.175748)
(10.2874 -0.0357056 0.314153)
(10.0396 0.0552186 -0.0458484)
(10.0703 -0.00357409 0.128147)
(10.1586 -0.171274 0.215877)
(10.0596 -0.118698 -0.133126)
(9.75327 -0.124169 -0.0108232)
(10.1021 -0.0287008 0.056552)
(9.98794 0.12117 0.196951)
(6.94802 -0.549628 -2.42382)
(9.63343 0.226151 0.00798406)
(9.68202 0.135852 0.0201407)
(10.0355 -0.33895 0.210316)
(10.067 0.207291 -0.0645403)
(9.76765 -0.151979 0.0771553)
(4.14691 -0.4193 -1.66779)
(12.0126 -0.909085 0.334056)
(9.91837 -0.229477 0.169744)
(10.3199 0.519398 -0.175903)
(10.1291 -0.117264 -0.245694)
(9.63285 -0.4509 0.183782)
(9.65123 -0.237444 0.299343)
(11.2594 0.130426 0.0390013)
(10.1146 0.23174 -0.0337104)
(-1.99008 0.997043 1.4017)
(11.523 -0.129052 0.136754)
(10.1819 -0.124412 -0.0776717)
(10.5129 0.204869 -0.150333)
(8.135 0.23884 -2.80232)
(14.9778 -0.303627 -0.681367)
(9.97166 0.235275 0.262705)
(10.2134 0.333917 0.184712)
(12.4502 0.730846 1.08947)
(9.62916 0.192895 -0.361994)
(10.0512 -0.238578 -0.00142828)
(10.8146 0.0430965 0.372565)
(10.1089 0.381365 0.0464294)
(9.30986 0.43674 -0.556943)
(4.20161 -1.84079 -5.74101)
(11.5266 -0.848119 0.534896)
(14.4057 0.964821 0.863879)
(10.2017 0.0611873 0.0630212)
(7.94603 0.31725 -1.96322)
(9.994 -0.295408 0.0915719)
(10.7294 -0.984737 -0.190735)
(9.71705 -0.282132 0.473281)
(11.296 0.056256 0.0607958)
(10.2952 0.573203 0.233521)
(9.68769 -0.270329 0.447436)
(5.74327 1.17151 -5.04169)
(12.6549 0.75091 1.40183)
(11.7712 -0.304986 -0.503392)
(-2.0263 0.418317 0.908091)
(11.217 0.0764126 0.297734)
(10.2034 -0.0867321 0.151551)
(10.3898 0.176519 -0.0414833)
(10.938 1.01602 -0.0948769)
(10.0464 -0.0990224 0.356317)
(11.4644 -0.00553295 0.249799)
(0.495318 -0.740546 1.21157)
(10.0248 0.07913 0.177689)
(12.1488 0.0160209 -0.713282)
(9.99247 -0.224539 -0.00426046)
(9.78888 -0.0615125 -0.0334479)
(11.449 -1.66345 2.43999)
(9.80728 0.0366999 -0.0838846)
(10.3982 0.00058771 0.112783)
(8.90063 -5.44307 0.717726)
(9.57058 0.339041 0.342239)
(9.4216 -0.394556 -0.21673)
(11.62 -0.487787 0.618252)
(9.92004 0.791675 0.824176)
(9.89899 0.0335298 0.104277)
(11.9282 -1.51855 -0.0951216)
(5.64159 -0.516078 0.510458)
(10.3273 0.0388342 0.424666)
(9.6788 -0.61091 -0.541756)
(10.0752 -0.0115588 0.38173)
(10.0216 0.130169 0.170836)
(9.97117 -0.256285 -0.501888)
(10.1883 -0.520943 0.0386326)
(7.12438 0.81405 -1.10464)
(-1.32198 1.12529 -0.941458)
(10.7032 0.340722 -0.709344)
(9.79313 -0.499762 -0.032685)
(10.3947 -1.76206 0.0818689)
(6.10119 2.46353 -0.531945)
(5.2315 0.0871143 0.0891786)
(10.8139 -2.99774 4.20731)
(9.96945 -0.019324 0.502478)
(10.0815 0.339853 0.0803904)
(8.93819 0.0975043 0.963512)
(9.93717 0.0821768 0.222136)
(8.69847 0.28078 -0.147178)
(9.5735 -0.281581 0.304772)
(9.47166 -0.354275 1.28975)
(9.6268 0.749186 0.924669)
(-0.909065 -0.614687 0.0182777)
(11.4435 -0.000672389 0.124614)
(9.96139 0.568978 0.263321)
(10.2607 -0.0160087 0.269837)
(9.87126 -0.130333 -0.0573797)
(10.4164 -0.108827 -0.274906)
(6.29976 -1.51657 -2.70775)
(9.84748 0.145118 0.569293)
(7.61035 3.50423 -0.536493)
(9.89931 0.0699642 -0.150908)
(10.0837 -0.388879 -2.59957)
(10.2047 -0.307323 0.190366)
(10.4996 0.105013 0.184441)
(10.3808 0.336122 0.515651)
(10.3282 0.0310935 0.108479)
(9.19826 0.174933 -0.839001)
(12.239 -0.419426 -0.602561)
(11.6697 -0.088223 -0.172795)
(9.55309 0.817047 2.65063)
(7.85301 3.77971 2.9393)
(9.6576 0.83698 0.602832)
(10.1697 0.433246 -0.0509194)
(10.9611 0.354513 0.176226)
(6.59179 -0.144163 -2.33881)
(10.1945 -0.0170487 -0.11849)
(10.0858 -0.064778 0.0238411)
(9.91918 -0.165005 0.403665)
(11.2617 0.0233646 -0.0863481)
(11.8923 0.356985 4.86717)
(9.09737 -0.264308 1.0589)
(10.183 -0.18625 0.0694731)
(10.0112 0.470764 -0.0934447)
(9.61757 0.73547 -0.14938)
(10.3217 -0.137708 0.00075534)
(10.177 0.256305 -0.100599)
(14.9472 -1.15933 0.510768)
(11.5327 -0.17358 0.913601)
(3.65639 3.73757 -0.984267)
(10.1119 -0.373799 0.355202)
(11.2832 -0.560273 -0.0596426)
(10.2942 -0.900452 -0.886976)
(12.0748 -0.0720181 -3.79846)
(9.81296 0.106846 0.530479)
(2.27216 -0.375333 -3.61123)
(10.2041 -0.165413 -0.269373)
(10.1328 -0.00479791 -0.0312099)
(10.4603 -0.184416 0.729387)
(12.5859 0.590218 5.02087)
(9.91604 -0.00119856 0.17612)
(9.93524 -0.0163537 -0.621664)
(9.97524 -0.229745 0.0997533)
(10.5933 -0.681855 0.6668)
(10.4788 0.0303292 0.902354)
(10.1477 0.119105 -0.0414621)
(10.7693 -0.183073 -2.48681)
(9.49587 -0.890286 -2.09225)
(12.0935 -0.0401898 -0.385197)
(10.0708 0.244728 -0.193456)
(9.44161 0.664263 -0.206936)
(3.27461 0.711547 -3.06464)
(0.464134 -0.967236 2.52342)
(5.80961 2.85259 1.26453)
(12.6732 -0.593357 -1.96414)
(7.60306 -0.317427 0.0354443)
(10.3233 -0.0915535 0.086318)
(10.0284 0.594545 -0.299101)
(8.93805 1.09539 3.14522)
(9.75594 -0.252536 0.15531)
(4.74143 -0.406857 0.554667)
(9.54379 -0.317401 -0.0311188)
(9.85939 0.0977393 0.103478)
(-3.19084 3.59011 -0.412849)
(9.847 -0.775672 0.918065)
(10.5292 -0.168228 0.0074696)
(10.0415 -0.168879 0.534372)
(8.60427 0.173404 -0.309193)
(8.46164 0.206633 -2.25814)
(9.65377 0.967445 0.507508)
(9.89743 0.0689545 0.0891721)
(10.2986 0.35615 0.685442)
(11.9353 -0.511359 -2.17638)
(10.1988 0.129132 0.203213)
(10.0131 0.234089 -0.225917)
(9.62799 -0.150911 -0.134457)
(9.83456 0.720331 -0.304624)
(9.9883 -0.0313352 -0.133517)
(11.4975 -0.534774 -1.37339)
(10.8441 -0.25658 -0.119435)
(8.73976 -0.0678456 0.375056)
(9.85909 -0.670439 0.485463)
(9.62227 -0.137931 -0.184993)
(9.72394 -0.102583 -0.105382)
(9.58155 -0.0392042 0.551731)
(9.6891 -0.231093 0.329251)
(10.3906 0.486123 0.27591)
(11.3629 -0.772213 -0.0653696)
(14.1057 -0.146549 1.19582)
(10.8731 -0.00113937 0.469623)
(11.4269 -0.418877 -0.927133)
(10.1909 -0.148021 -0.353159)
(3.87169 -2.19097 -1.78044)
(9.79072 0.026233 -0.202077)
(9.96689 -0.203426 -0.235159)
(9.7397 -0.126601 0.175378)
(13.7908 -0.356294 2.09188)
(1.47337 3.54362 -0.102917)
(6.2889 3.33112 -0.956695)
(-0.366547 1.31846 0.311231)
(10.0666 -0.796203 -0.60473)
(11.1142 -0.517808 0.475826)
(7.4661 -0.511637 1.73231)
(-0.215542 1.30424 0.721772)
(11.0517 -0.33123 -0.181324)
(10.2161 -2.15508 0.726736)
(9.96159 -0.3117 -0.334736)
(9.99202 -0.367063 0.0443967)
(8.94091 0.00855735 0.809497)
(10.3863 0.266089 -0.0985573)