/*--------------------------------*- C++ -*----------------------------------*\
| =========                 |                                                 |
| \\      /  F ield         | OpenFOAM: The Open Source CFD Toolbox           |
|  \\    /   O peration     | Version:  2506                                  |
|   \\  /    A nd           | Website:  www.openfoam.com                      |
|    \\/     M anipulation  |                                                 |
\*---------------------------------------------------------------------------*/
FoamFile
{
    version     2.0;
    format      ascii;
    arch        "LSB;label=32;scalar=64";
    class       volScalarField;
    location    "0.0882685";
    object      k;
}
// * * * * * * * * * * * * * * * * * * * * * * * * * * * * * * * * * * * * * //

dimensions      [0 2 -2 0 0 0 0];

internalField   nonuniform List<scalar> 
3972
(
0.313439
0.299183
0.278979
0.273641
0.766318
0.329218
0.288916
0.304543
0.29273
0.350013
0.308021
0.310656
0.358567
0.279995
0.281903
0.282288
0.278582
0.312665
0.280327
0.283389
0.998803
0.495546
0.322806
0.27994
0.918461
0.292189
0.281214
0.301654
0.404092
0.28182
0.68444
0.455815
0.286933
0.37839
0.282764
0.285535
0.33706
0.280352
0.290305
0.345754
0.311134
0.308673
0.308948
0.406932
0.276489
0.282729
0.323086
0.436551
0.293467
0.29
0.27816
0.296376
0.343079
0.306663
0.332748
0.27644
0.36725
0.299594
0.357753
0.488392
0.293857
0.348211
0.282281
0.310312
0.284312
0.387822
0.394817
0.341018
0.332965
0.463548
0.320442
0.317664
0.463481
0.286036
0.370035
0.282335
0.321636
0.308815
0.288055
0.382554
0.331329
0.313735
0.283211
0.292712
0.302593
0.35201
0.344432
0.325026
0.362516
0.346078
0.336036
0.326637
0.353868
0.318772
0.285292
0.289883
0.282963
0.284408
0.276732
0.28575
0.284406
0.28337
0.288816
0.281887
0.301699
0.292029
0.312548
0.30373
0.375275
0.298591
0.329763
0.280382
0.283963
0.395685
0.311281
0.31402
0.286421
0.380739
0.340908
0.32653
0.410869
0.361091
0.316581
0.349805
0.276853
0.679638
0.326317
0.638417
0.663732
0.822005
0.647554
0.326103
0.547952
0.542121
0.368446
0.349248
0.341662
0.339404
0.368468
0.297356
0.341016
0.287876
0.320904
0.370347
0.367534
0.319354
0.355557
0.286144
0.336558
0.341979
0.304762
0.302606
0.282398
0.34935
0.363931
0.296093
0.277298
0.34362
0.335624
0.399854
0.285998
0.289404
0.314478
0.327844
0.291363
0.344237
0.331182
0.380832
0.304605
0.350012
0.364903
0.282944
0.283716
0.282425
0.28116
0.281146
0.291133
0.282844
0.282005
0.282995
0.341026
0.349662
0.319548
0.371942
0.283144
0.283225
0.284548
0.287578
0.28251
0.834722
0.280524
0.280877
0.386336
0.282614
0.284669
0.280778
0.285599
0.29261
0.439602
0.286108
0.28496
0.315677
0.340688
0.277254
0.27985
0.290295
0.281708
0.32234
0.394658
0.350348
0.363656
0.287904
0.608959
0.625586
0.285011
0.296573
0.397045
0.278903
0.319979
0.289903
0.282059
0.350608
0.314868
0.282192
0.471233
0.28207
0.81317
0.436315
0.864256
0.415423
0.882904
0.693311
0.443665
0.664799
0.302355
0.291707
0.30778
0.287287
0.331238
0.31043
0.309226
0.631028
0.417124
0.313922
0.329798
0.27762
0.297896
0.278171
0.314272
0.3025
0.294081
0.697393
0.35806
0.362665
0.282719
0.309698
0.471829
0.407539
0.279736
0.369541
0.474324
0.332022
0.354054
0.290648
0.404208
0.327523
0.280867
0.345486
0.316711
0.296402
0.310479
0.377724
0.667222
0.447575
0.361492
0.408506
0.336635
0.36027
0.285596
0.281912
0.313941
0.456211
0.287746
0.552915
0.708953
0.687185
0.293409
0.290873
0.307532
0.299626
0.285694
0.301066
0.314925
0.276851
0.447386
0.361858
0.301922
0.474595
0.295033
0.640063
0.280196
0.291169
0.330086
0.36284
0.296929
0.290951
0.319905
0.320071
0.283002
0.316744
0.312862
0.267235
0.396574
0.288352
0.926993
0.287727
0.293078
0.285886
0.291455
0.298345
0.609941
0.860661
0.333209
0.284274
0.287061
0.297479
0.28257
0.288462
0.295421
0.372068
0.270652
0.467335
0.325235
0.282895
0.284449
0.351064
0.278118
0.346729
0.281626
0.396501
0.358224
0.285977
0.398461
0.282385
0.301432
0.283704
0.297775
0.302622
0.291729
0.336184
0.292636
0.317472
0.29286
0.276351
0.851854
0.396221
0.746125
0.288871
0.295363
0.29255
0.288962
0.284366
0.29244
0.399589
0.284111
0.28355
0.289269
0.291665
0.294686
0.281384
0.285928
0.289736
0.28349
0.288149
0.290461
0.272356
0.2728
0.36473
0.277693
0.2894
0.283772
0.291861
0.280481
0.372224
0.289903
0.372268
0.289369
0.348433
0.291522
0.302539
0.610335
0.298154
0.541074
0.306907
0.489491
0.306759
0.285193
0.964017
0.280191
0.281059
0.336498
0.29703
0.283566
0.305302
0.328741
0.284616
0.279802
0.510894
0.285076
0.311363
0.282571
0.36644
0.340534
0.325447
0.301509
0.796975
0.280787
0.297252
0.307139
0.282824
0.303689
0.339596
0.29183
0.277117
0.281801
0.298262
0.306909
0.285927
0.339564
0.357774
0.298843
0.285128
0.325115
0.28441
0.280148
0.309073
0.303824
0.284417
0.286565
0.315352
0.284847
0.296298
0.280992
0.289953
0.291817
0.310563
0.300908
0.281325
0.278064
0.282649
0.288675
0.335316
0.318622
0.32868
0.300375
0.30679
0.562854
0.512489
0.442211
0.33613
0.385048
0.331439
0.28512
0.302934
0.320244
0.375367
0.284606
0.292315
0.278935
0.299497
0.359176
0.300477
0.312918
0.313337
0.287424
0.379375
0.404954
0.664549
0.327547
0.325895
0.390955
0.384574
0.430745
0.414465
0.451304
0.283166
0.297856
0.410758
0.294256
0.284916
0.30165
0.303592
0.611106
0.350893
0.624677
0.709893
0.386559
0.289702
0.295707
0.281091
0.283806
0.393602
0.277096
0.33239
0.315104
0.330348
0.292516
0.288563
0.292226
0.294967
0.416227
0.289876
0.436933
0.558641
0.304411
0.298363
0.281597
0.287765
0.408072
0.404868
0.369078
0.325052
0.275913
0.325593
0.540877
0.290343
0.303862
0.34497
0.399283
0.283723
0.385577
0.432647
0.297634
0.342609
0.362748
0.307119
0.293019
0.292548
0.294156
0.292852
0.293306
0.308484
0.312588
0.336343
0.291443
0.290737
0.369379
0.300787
0.300854
0.281782
0.292707
0.291302
0.306774
0.314767
0.28737
0.281865
0.285658
0.348421
0.280984
0.289952
0.313134
0.307694
0.294027
0.440985
0.29111
0.468039
0.467957
0.464435
0.297119
0.644804
0.291466
0.291057
0.529056
0.281327
0.32581
0.289136
0.299331
0.292382
0.290226
0.288745
0.289227
0.290628
0.30003
0.291346
0.300851
0.293964
0.285095
0.282652
0.28521
0.292385
0.335057
0.427231
0.794976
0.614463
0.359393
0.419109
0.272783
0.269611
0.290591
0.283272
0.271544
0.326544
0.347232
0.291622
0.547425
0.410781
0.480345
0.300219
0.673991
0.285209
0.300123
0.287488
0.342704
0.276195
0.317444
0.304666
0.293663
0.284266
0.285923
0.282723
0.286017
0.526856
0.42449
0.347823
0.3814
0.284119
0.289383
0.281743
0.282067
0.284553
0.290512
0.284723
0.277592
0.343721
0.371534
0.333595
0.32779
0.282854
0.284898
0.284225
0.285389
0.340158
0.329805
0.289968
0.284539
0.397718
0.364701
0.67405
0.415087
0.439052
0.345187
0.332196
0.755942
0.862109
0.321359
0.310263
0.292556
0.302473
0.316174
0.379333
0.429574
0.364886
0.279292
0.407752
0.273565
0.316477
0.310891
0.30349
0.32767
0.320084
0.275697
0.28169
0.282085
0.284666
0.285791
0.281344
0.28206
0.306645
0.2987
0.309113
0.320614
0.327582
0.327414
0.331053
0.317583
0.291416
0.28678
0.291083
0.287087
0.32041
0.313214
0.439712
0.302022
0.280303
0.280177
0.333644
0.282524
0.287098
0.281562
0.288252
0.290616
0.322186
0.282657
0.302888
0.291889
0.365903
0.312679
0.282343
0.280169
0.297867
0.312557
0.282084
0.29751
0.307632
0.720307
0.278615
0.297631
0.303259
0.312781
0.280718
0.357574
0.283097
0.306142
0.293829
0.277942
0.282964
0.325273
0.327367
0.295347
0.297055
0.279693
0.281715
0.281432
0.283244
0.292499
0.292132
0.278258
0.282433
0.284596
0.28763
0.282659
0.28172
0.308701
0.289709
0.314042
0.34876
0.280454
0.282654
0.285367
0.297627
0.280872
0.278709
0.281509
0.317394
0.348864
0.311468
0.310701
0.362831
0.710536
0.447251
0.553022
0.798738
0.29903
0.305456
0.293562
0.310317
0.369128
0.284962
0.281174
0.332353
0.272737
0.295478
0.279387
0.306935
0.290666
0.298743
0.326648
0.290777
0.287148
0.407358
0.26867
0.34122
0.286838
0.327062
0.379572
0.374798
0.339064
0.356373
0.283259
0.286874
0.281325
0.491205
0.312254
0.28034
0.275588
0.288096
0.276255
0.412665
0.275137
0.267879
0.280655
0.281414
0.294275
0.279977
0.285103
0.287624
0.579389
0.327268
0.641044
0.28108
0.288233
0.357689
0.282943
0.283613
0.282858
0.287485
0.282186
0.284515
0.281008
0.316366
0.291064
0.288768
0.278779
0.282577
0.377289
0.286707
0.307719
0.403932
0.354279
0.308277
0.29605
0.29381
0.281768
0.279848
0.279378
0.420214
0.347053
0.281576
0.468551
0.460349
0.856557
0.683061
0.293224
0.29443
0.279992
0.28724
0.285769
0.725816
0.323555
0.493176
0.442292
0.42829
0.31866
0.277473
0.304479
0.287936
0.280208
0.468336
0.352543
0.752597
0.287011
0.284827
0.281104
0.299041
0.322347
0.291603
0.304554
0.292225
0.303881
0.606261
0.309453
0.323569
0.297025
0.381629
0.386431
0.273921
0.605579
0.284814
0.30289
0.283312
0.298461
0.334826
0.31366
0.291218
0.337406
0.412526
0.721789
0.279861
0.270121
0.271314
0.305545
0.323128
0.309063
0.292207
0.334149
0.448321
0.457547
0.732287
0.675328
0.354574
0.393971
0.27268
0.27194
0.271178
0.270756
0.277565
0.274504
0.274811
0.29493
0.313623
0.289694
0.275978
0.385115
0.282879
0.286908
0.273955
0.27986
0.372507
0.287805
0.290163
0.310945
0.280445
0.273867
0.305794
0.299886
0.282064
0.283831
0.286581
0.281675
0.435682
0.345525
0.295217
0.284446
0.301212
0.297709
0.293302
0.306557
0.286211
0.310844
0.299284
0.280204
0.300525
0.283108
0.314406
0.404564
0.452438
0.802108
0.282567
0.298092
0.345683
0.275734
0.285971
0.303617
0.29297
0.27893
0.319971
0.314045
0.328793
0.330919
0.335106
0.366014
0.286745
0.285605
0.314832
0.321021
0.281389
0.33538
0.315498
0.317192
0.500033
0.333933
0.646284
0.285105
0.319151
0.814973
0.314188
0.319888
0.281872
0.78996
0.291808
0.29163
0.547338
0.34896
0.311412
0.291752
0.290811
0.324315
0.35211
0.288065
0.287138
0.283588
0.303242
0.323096
0.799937
0.763709
0.799139
0.336976
0.811165
0.31336
0.595727
0.864097
0.284272
0.283141
0.3291
0.298954
0.322873
0.321331
0.286523
0.634422
0.809338
0.325491
0.287262
0.355449
0.617275
0.308944
0.281834
0.283584
0.365842
0.369972
0.281892
0.793927
0.546037
0.97033
0.946417
0.278705
0.369298
0.346346
0.298129
0.300155
0.396366
0.329434
0.281513
0.296591
0.294298
0.315049
0.285106
0.302999
0.296532
0.287147
0.304552
0.270879
0.29592
0.289922
0.312958
0.299637
0.286986
0.297966
0.290739
0.333533
0.301065
0.290948
0.291334
0.310383
0.27769
0.291964
0.284993
0.309864
0.289269
0.307642
0.285085
0.297167
0.299354
0.310698
0.297984
0.348795
0.378963
0.293988
0.288705
0.307609
0.347962
0.36068
0.310984
0.288508
0.280713
0.278657
0.291289
0.307842
0.304562
0.293338
0.294447
0.317343
0.557499
0.314728
0.310072
0.322518
0.313488
0.30292
0.308712
0.331915
0.301193
0.310716
0.403777
0.281296
0.282875
0.304844
0.299149
0.313016
0.316599
0.29668
0.307299
0.322829
0.281726
0.278107
0.316519
0.783381
0.679642
0.286157
0.294724
0.287538
0.280723
0.303889
0.290874
0.50265
0.285623
0.448949
0.31011
0.312981
0.319222
0.306005
0.324311
0.307727
0.304986
0.290836
0.271457
0.293343
0.289161
0.283819
0.285815
0.284836
0.284072
0.28861
0.283445
0.281295
0.453296
0.287594
0.612567
0.533863
0.361775
0.288512
0.29551
0.473932
0.284202
0.298464
0.281236
0.289268
0.283961
0.283779
0.320124
0.285702
0.546812
0.292484
0.344517
0.297849
0.337743
0.300238
0.343125
0.295724
0.341958
0.302677
0.284336
0.317609
0.282167
0.28275
0.289721
0.32762
0.339202
0.711496
0.294826
0.276751
0.319272
0.290295
0.341857
0.285824
0.27736
0.402368
0.284185
0.317995
0.532698
0.711482
0.325304
0.326241
0.342666
0.338771
0.350573
0.383502
0.32033
0.334308
0.281195
0.297867
0.336466
0.282552
0.29183
0.282862
0.347756
0.31399
0.687931
0.368328
0.716497
0.29206
0.510751
0.382209
0.525935
0.276424
0.280426
0.270055
0.711029
0.308189
0.282979
0.777429
0.300678
0.721029
0.690239
0.27842
0.282679
0.305582
0.296174
0.3475
0.376265
0.312401
0.305957
0.325066
0.351327
0.319774
0.322117
0.27219
0.297717
0.290123
0.286868
0.296596
0.298152
0.307863
0.303842
0.305791
0.284159
0.284424
0.281445
0.280823
0.280778
0.2842
0.280761
0.281445
0.294519
0.3314
0.283677
0.295309
0.277669
0.28023
0.279158
0.280422
0.305788
0.268493
0.278843
0.285674
0.281097
0.277981
0.282505
0.283135
0.283344
0.282877
0.279487
0.279828
0.283153
0.282927
0.289421
0.285501
0.286627
0.287591
0.295403
0.299559
0.296701
0.289645
0.297322
0.292551
0.295199
0.297202
0.419183
0.413764
0.29731
0.519737
0.306259
0.297331
0.382798
0.275161
0.30709
0.366158
0.464335
1.02824
0.296396
0.282799
0.295029
0.332577
0.282696
0.278543
0.297552
0.304581
0.281119
0.275037
0.274035
0.274676
0.274593
0.290745
0.28582
0.302647
0.270615
0.271101
0.29028
0.280714
0.290962
0.277955
0.280707
0.327107
0.291031
0.289541
0.274934
0.294159
0.307854
0.30192
0.390617
0.289278
0.320266
0.316154
0.357379
0.291497
0.321976
0.292033
0.324307
0.281729
0.280559
0.322766
0.282631
0.28843
0.303076
0.289558
0.293646
0.282201
0.281638
0.287164
0.290747
0.320016
0.414043
0.407944
0.33375
0.369808
0.39674
0.347466
0.328577
0.279373
0.394825
0.300621
0.42881
0.44953
0.292452
0.288747
0.324586
0.322576
0.295396
0.298707
0.289082
0.281828
0.279402
0.284434
0.325981
0.283975
0.292218
0.369051
0.287908
0.287181
0.301599
0.280428
0.279874
0.374432
0.310833
0.297494
0.293221
0.276721
0.30094
0.316749
0.296556
0.292889
0.291391
0.514441
0.367393
0.289785
0.292972
0.292555
0.290654
0.292091
0.487707
0.290083
0.512831
0.288946
0.79122
0.564542
0.278068
0.78599
0.755828
0.277004
0.673333
0.346662
0.27911
0.661258
0.394457
0.631463
0.628901
0.926659
0.330815
0.729021
0.670141
0.688135
0.307026
0.690402
0.294776
0.290815
0.356545
0.281054
0.35451
0.322951
0.299003
0.320065
0.49556
0.439051
0.275365
0.277569
0.434041
0.812595
0.564744
0.313938
0.281288
0.273292
0.285983
0.284125
0.320199
0.281117
0.283948
0.28742
0.285065
0.286427
0.286076
0.283589
0.841629
0.3029
0.342755
0.398703
0.378363
0.301665
0.288646
0.282947
0.294458
0.285429
0.28159
0.290869
0.284376
0.280842
0.359067
0.28365
0.285144
0.285289
0.275032
0.279884
0.28925
0.280603
0.324381
0.284862
0.291841
0.294969
0.290858
0.276184
0.302922
0.295266
0.313582
0.363801
0.313172
0.304397
0.432661
0.32704
0.307196
0.269388
0.302949
0.380001
0.302498
0.305255
0.299402
0.289869
0.288877
0.285354
0.280436
0.32766
0.279447
0.296563
0.29035
0.899216
0.282368
0.284363
0.27996
0.289843
0.292664
0.28894
0.306982
0.283243
0.292739
0.476756
0.278683
0.287936
0.292602
0.367578
0.307846
0.304411
0.898563
0.360814
0.317672
0.404232
0.313429
0.352587
0.339182
0.368628
0.293484
0.302235
0.281082
0.312733
0.875757
0.291601
0.305471
0.300296
0.310274
0.321609
0.313197
0.311509
0.318383
0.318033
0.283715
0.280053
0.280694
0.282111
0.310263
0.287358
0.291326
0.301201
0.304902
0.318007
0.306237
0.286693
0.287216
0.294977
0.286508
0.29733
0.296638
0.286352
0.284722
0.282518
0.283568
0.284886
0.283236
0.308682
0.317049
0.305758
0.317305
0.277775
0.295394
0.283709
0.28887
0.301525
0.28388
0.275863
1.1296
0.296843
0.609855
0.361867
0.312921
0.302008
0.285007
0.289119
0.318135
0.289956
0.275713
0.351597
0.886697
0.304827
0.445198
0.357739
0.295052
0.318046
0.417078
0.369214
0.552492
0.316187
0.772185
0.436338
0.698727
0.848423
0.367302
0.290035
0.271742
0.289828
0.301864
0.29825
0.3029
0.285434
0.30443
0.310342
0.394965
0.351102
0.267573
0.275007
0.48919
0.29768
0.268929
0.307767
0.380324
0.303368
0.32779
0.369046
0.272397
0.275671
0.324579
0.271996
0.308924
0.282186
0.278555
0.302653
0.315148
0.271817
0.293401
0.298816
0.27943
0.279081
0.279654
0.302487
0.288158
0.330501
0.481918
0.311429
0.318234
0.815975
0.445064
1.15421
0.281043
0.31812
0.297295
0.28479
0.385335
0.416959
0.274015
0.304906
0.300093
0.310242
0.291569
0.308432
0.332741
0.365641
0.295157
0.29193
0.286734
0.273179
0.284252
0.339095
0.282164
0.299018
0.310483
0.281448
0.280282
0.287107
0.364621
0.334839
0.47351
0.317674
0.382062
0.452411
0.360384
0.323896
0.28308
0.282297
0.298088
0.286066
0.286829
0.288569
0.293373
0.331995
0.322656
0.690819
0.310921
0.282107
0.498546
0.321458
0.278247
0.341095
0.327044
0.315934
0.305715
0.590689
0.345405
0.326311
0.367251
0.367142
0.346371
0.27509
0.335853
0.371431
0.294252
0.307635
0.276543
0.322165
0.28791
0.306744
0.310825
0.291371
0.277043
0.306122
0.275246
0.330516
0.293777
0.352564
0.309953
0.436468
0.290441
0.286167
0.29111
0.344882
0.302262
0.305409
0.282698
0.284654
0.401521
0.389491
0.434715
0.372692
0.331605
0.371992
0.327505
0.32724
0.292589
0.306532
0.348868
0.304155
0.332411
0.307874
0.322606
0.282158
0.294636
0.281199
0.276737
0.275873
0.276049
0.283338
0.28274
0.296425
0.294127
0.271066
0.282968
0.278054
0.278627
0.334629
0.275205
0.296784
0.287672
0.287067
0.333188
0.283624
0.338258
0.337405
0.281701
0.281916
0.335246
0.281168
0.283478
0.283298
0.282504
0.306405
0.281813
0.291665
0.286902
0.293303
0.287834
0.291783
0.283389
0.304229
0.313098
0.288459
0.288587
0.295787
0.28983
0.306222
0.28211
0.272653
0.279378
0.295389
0.283064
0.280534
0.280126
0.282065
0.282443
0.285595
0.320505
0.295742
0.286343
0.284185
0.284084
0.297132
0.304432
0.286648
0.314076
0.362073
0.303466
0.287596
0.286825
0.297428
0.287137
0.292389
0.31923
0.330169
1.09951
0.292039
0.335599
0.770026
0.308445
0.297087
0.573241
0.525892
0.366359
0.321137
0.313607
0.314461
0.279307
0.279445
0.293708
0.282828
0.305014
0.284052
0.317705
0.296424
0.336085
0.31515
0.36745
0.306504
0.357571
0.330282
0.316821
0.285788
0.288578
0.293045
0.609264
0.478714
0.495441
0.439409
0.501541
0.311238
0.284009
1.07424
0.279304
0.280315
0.278037
0.280926
0.279341
0.403889
0.351695
0.322164
0.293568
0.289117
0.304629
0.309514
0.316521
0.350159
0.32898
0.398883
0.282536
0.460124
0.520821
0.280384
0.302116
0.286871
0.477226
0.289658
0.313747
0.334451
0.303914
0.275612
0.283782
0.278772
0.351443
0.296263
0.293924
0.289599
0.291727
0.281671
0.281638
0.283415
0.282049
0.282765
0.311784
0.286732
0.288423
0.310038
0.286464
0.286794
0.304326
0.283234
0.375713
0.301658
0.288392
0.318208
0.274935
0.283452
0.282924
0.286425
0.288464
0.27408
0.333502
0.284684
0.300006
0.280904
0.299947
0.304651
0.317947
0.295048
0.307876
0.291309
0.285332
0.329972
0.30768
0.376936
0.290686
0.297343
0.278564
0.330292
0.27088
0.388408
0.718999
0.314529
0.711897
0.721313
0.680054
0.285098
0.283709
0.279876
0.915137
0.282556
0.278846
0.281236
0.276628
0.277696
0.328697
0.320203
0.310622
0.306825
0.313914
0.311028
0.30413
0.329099
0.502934
0.473691
0.303395
0.440412
0.329331
0.356924
0.352615
0.356825
0.314562
0.811583
0.920842
0.880323
0.581904
0.467277
0.900791
0.352003
0.335473
0.355878
0.759439
0.358317
0.839414
0.272641
0.271529
0.285591
0.283237
0.283231
0.29743
0.29599
0.292474
0.30099
0.322096
0.343356
0.305127
0.290677
0.300484
0.319831
0.317291
0.28106
0.281662
0.281461
0.283585
0.287135
0.282685
0.280917
0.365289
0.280885
0.280547
0.277923
0.280781
0.308225
0.371676
0.301827
0.324896
0.307766
0.306966
0.290533
0.320253
0.304071
0.286231
0.275419
0.302165
0.286116
0.305884
0.284853
0.285839
0.283081
0.291135
0.283391
0.28117
0.285895
0.271876
0.291895
0.29989
0.279846
0.282831
0.275412
0.277972
0.276626
0.288907
0.29556
0.273835
0.272825
0.28255
0.280745
0.328401
0.324966
0.280651
0.35159
0.546368
0.318473
0.30273
0.283422
0.276448
0.287083
0.302066
0.297468
0.320887
0.308094
0.283025
0.284523
0.297617
0.282607
0.300998
0.28331
0.284291
0.29249
0.285829
0.278168
0.28121
0.282183
0.290885
0.28083
0.292901
0.300187
0.286013
0.281759
0.319925
0.310908
0.299464
0.284731
0.277908
0.273693
0.282251
0.295512
0.286586
0.283496
0.294319
0.319094
0.279252
0.284196
0.311675
0.281937
0.292958
0.271589
0.289349
0.306704
0.289691
0.28586
0.295166
0.278524
0.285711
0.284525
0.353552
0.278362
0.302664
0.287243
0.335719
0.38329
0.297741
0.298315
0.280353
0.285783
0.280883
0.329819
0.296604
0.286668
0.295932
0.285442
0.282335
0.298375
0.317283
0.318738
0.284122
0.298146
0.289851
0.342728
0.316192
0.284801
0.318424
0.284279
0.283239
0.391212
0.284047
0.304516
0.286267
0.288775
0.284433
0.282272
0.272209
0.318453
0.341845
0.444787
0.673709
1.02589
0.281318
0.2848
0.288101
0.2889
0.283333
0.293162
0.351678
0.285535
0.363491
0.419983
0.392358
0.283705
0.275872
0.657933
0.736271
0.294858
0.713694
0.285449
0.282093
0.285481
0.882572
0.949733
0.860775
0.282528
0.284686
0.99295
0.822901
0.283494
0.283213
0.314197
0.354019
0.324379
0.284553
0.301781
0.29552
0.273989
0.290325
0.290878
0.701566
0.294964
0.3343
0.295636
0.281335
0.281567
0.283277
0.282898
0.281078
0.276374
0.332388
0.278476
0.32643
0.28387
0.283386
0.288484
0.283791
0.305893
0.29184
0.296062
0.299274
0.296596
0.371609
0.282329
0.33558
0.346672
0.344235
0.277812
0.279284
0.30504
0.823609
0.277551
0.370091
0.298251
0.27163
0.286301
0.298286
0.279533
0.278138
0.291263
0.295591
0.33766
0.290875
0.297459
0.28877
0.296766
0.329396
0.313441
0.293226
0.298913
0.285067
0.275481
0.277933
0.289759
0.504804
0.383625
0.308143
0.297518
0.289931
0.445564
0.292986
0.300086
0.296054
0.286124
0.294917
0.339168
0.296475
0.341552
0.364517
0.282298
0.300617
0.292765
0.341416
0.322291
0.297978
0.315169
0.593879
0.284565
0.342027
0.279213
0.298165
0.282877
0.274088
0.440116
0.377542
0.312874
0.307537
0.268803
0.327708
0.279045
0.284973
0.292559
0.290489
0.322112
0.276308
0.290947
0.450317
0.283946
0.311914
0.30803
0.27258
0.27934
0.274628
0.290595
0.301456
0.289395
0.291141
0.289007
0.300023
0.295731
0.307197
0.295093
0.275806
0.292407
0.290087
0.274542
0.612414
0.295521
0.292289
0.283978
0.28303
0.292548
0.609333
0.283715
0.596914
0.290635
0.290725
0.297419
0.342175
0.274139
0.381857
0.367954
0.288344
0.311547
0.351851
0.300045
0.291708
0.331982
0.282083
0.318712
0.282285
0.286426
0.300403
0.298047
0.310126
0.290593
0.292005
0.282846
0.282917
0.28178
0.284618
0.286033
0.291289
0.281135
0.281373
0.286375
0.298336
0.283707
0.28355
0.288436
0.285292
0.296258
0.314049
0.314972
0.390885
0.336809
0.320523
0.373357
0.281471
0.28855
0.363765
0.290286
0.293723
0.325076
0.281892
0.55802
0.27889
0.280614
0.270554
0.275304
0.458199
0.50282
0.443057
0.3966
0.276919
0.408071
0.282224
0.302195
0.398188
0.288708
0.502752
0.286852
0.294267
0.397951
0.2816
0.29431
0.288126
0.292597
0.297327
0.308846
0.286539
0.306854
0.290268
0.287923
0.282566
0.563686
0.307062
0.296971
0.281894
0.30416
0.282393
0.305103
0.28522
0.284627
0.282523
0.299959
0.497103
0.351719
0.333528
0.334451
0.679967
0.489026
0.297364
0.321564
0.33011
0.294307
0.340636
0.344797
0.286897
0.293878
0.303071
0.283216
0.284013
0.33967
0.288721
0.286686
0.292335
0.326038
0.322558
0.293548
0.344613
0.355309
0.376246
0.27925
0.283719
0.296136
0.294213
0.295571
0.299949
0.490338
0.681174
0.301456
0.332331
0.285328
0.331342
0.318106
0.318689
0.297288
0.457785
0.343017
0.389455
0.82569
0.340026
0.372326
0.694993
0.896805
0.512634
0.471958
0.366167
0.680005
0.286709
0.310985
0.282599
0.301866
0.283144
0.506136
0.294642
0.306904
0.315962
0.312178
0.308129
0.280206
0.291346
0.27144
0.292085
0.283268
0.350762
0.293841
0.610082
0.364216
0.620138
0.360182
0.318386
0.292665
0.382811
0.345475
0.828567
0.338654
0.377115
0.488051
0.775734
0.542243
0.594642
0.533186
0.337771
0.552696
0.302655
0.744426
0.442382
0.284655
0.29077
0.284145
0.290854
0.404239
0.292689
0.567596
0.310361
0.298338
0.290886
0.436092
0.375681
0.497779
0.384498
0.767409
0.692719
0.462119
0.369894
0.283747
0.32618
0.381884
0.32576
0.317046
0.298866
0.321474
0.335284
0.28804
0.383512
0.45221
0.392588
0.288143
0.365155
0.304692
0.324144
0.302352
0.324934
0.290453
0.282664
0.424591
0.615763
0.523366
0.371722
0.393917
0.52737
0.375082
0.500972
0.277728
0.278829
0.277292
0.287319
0.280157
0.301756
0.291257
0.307109
0.287357
0.287356
0.315747
0.277929
0.327719
0.341395
0.282799
0.289849
0.294058
0.282979
0.284434
0.278602
0.315896
0.280175
0.316629
0.300199
0.303698
0.298846
0.298802
0.280436
0.281693
0.301073
0.380099
0.322879
0.275337
0.276475
0.278042
0.349739
0.315397
0.347122
0.328974
0.384684
0.325574
0.285218
0.306029
0.294165
0.290834
0.28456
0.288028
0.297572
0.287905
0.289853
0.292914
0.303347
0.337511
0.273592
0.324102
0.284674
0.303206
0.355416
0.343056
0.276838
0.28192
0.310094
0.335477
0.289956
0.301573
0.28036
0.305649
0.301009
0.31324
0.279574
0.28171
0.281055
0.280944
0.281114
0.281764
0.313715
0.293582
0.312951
0.287443
0.279172
0.280245
0.289385
0.280811
0.280524
0.279279
0.269312
0.270688
0.274208
0.27038
0.319434
0.315346
0.278398
0.80882
0.688905
0.67362
0.656513
0.282717
0.303195
0.305081
0.28405
0.313333
0.30376
0.30363
0.286069
0.286774
0.317012
0.268577
0.276081
0.316318
0.297925
0.282573
0.278179
0.279026
0.283251
0.294945
0.281648
0.280657
0.298022
0.277812
0.279793
0.281007
0.281493
0.296925
0.281899
0.370633
0.278161
0.280044
0.290491
0.464912
0.38541
0.401981
0.699579
0.276665
0.359163
0.525558
0.768161
0.478411
0.480367
0.4884
0.873318
0.598559
0.688584
0.385728
0.332356
0.299735
0.286793
0.287716
0.853678
0.27915
0.277735
0.727325
0.278985
0.770408
0.294232
0.280963
0.285025
0.281579
0.27949
0.28349
0.281773
0.283191
0.282336
0.281754
0.282527
0.282031
0.28165
0.28681
0.28017
0.284289
0.282143
0.282437
0.280615
0.282394
0.311876
0.278143
0.295613
0.296968
0.299648
0.294294
0.286262
0.292301
0.282481
0.2819
0.337704
0.294913
0.284167
0.290777
0.281608
0.295647
0.281672
0.288683
0.306922
0.293667
0.277534
0.2763
0.284695
0.281357
0.283433
0.308055
0.290251
0.284019
0.28135
0.281297
0.281976
0.29417
0.293573
0.29081
0.295737
0.306395
0.302891
0.323011
0.312003
0.276959
0.284982
0.272656
0.279154
0.275651
0.286622
0.28385
0.318655
0.28271
0.281335
0.279197
0.695116
0.39264
0.280152
0.413012
0.281357
0.292582
0.281734
0.281217
0.288475
0.280485
0.280878
0.290336
0.285922
0.283085
0.282878
0.327368
0.307212
0.27487
0.296186
0.285874
0.283853
0.315677
0.315587
0.29492
0.418176
0.393635
0.42117
0.312506
0.291261
0.281847
0.716013
0.353717
0.313881
0.280446
0.276105
0.395142
0.38246
0.297824
0.77105
0.293667
0.282732
0.278188
0.279707
0.293014
0.28088
0.281074
0.282563
0.325891
0.828934
0.281596
0.680176
0.332145
0.296453
0.333841
0.35661
0.301895
0.328213
0.372076
0.323815
0.294461
1.05025
0.29038
0.282976
0.303241
0.290242
0.287949
0.273958
0.847887
0.646545
0.318164
0.514752
0.509743
0.702797
0.44761
0.312647
0.289051
0.672925
0.287844
0.29565
0.287085
0.280472
0.323907
0.31355
0.282429
0.278635
0.279978
0.282097
0.284699
0.279968
0.274207
0.278367
0.276668
0.290672
0.274886
0.298389
0.314294
0.284471
0.433509
0.351335
0.372715
0.286123
0.286109
0.29085
0.283773
0.28248
0.303153
0.284163
0.297266
0.319541
0.2874
0.282206
0.27337
0.300526
0.284337
0.395579
0.276112
0.292843
0.294272
0.275468
0.28464
0.283927
0.284652
0.282832
0.288266
0.763258
0.317847
0.279364
0.294274
0.284838
0.319154
0.293171
0.277987
0.27864
0.312968
0.307631
0.304755
0.34138
0.282213
0.281366
0.288921
0.367334
0.415061
0.603256
0.326911
0.316921
0.295469
0.302867
0.312059
0.323095
0.284093
0.282982
0.282238
0.465513
0.311796
0.307324
0.430716
0.308489
0.869571
0.764605
0.612998
0.29847
0.374371
0.342487
0.325458
0.308261
0.30479
0.313126
0.294871
0.298396
0.381556
0.335231
0.309884
0.395594
0.286103
0.307945
0.288483
0.304154
0.408116
0.744625
0.339984
0.307527
0.310905
0.350442
0.520487
0.322902
0.330728
0.380165
0.333068
0.294326
0.308577
0.556645
0.307239
0.30908
0.306523
0.292479
0.28152
0.312059
0.294553
0.306965
0.282362
0.412867
0.346477
0.374859
0.58423
0.388751
0.300197
0.30983
0.282554
0.277394
0.293393
0.277679
0.329967
0.281928
0.30485
0.269795
0.280469
0.32757
0.280345
0.287901
0.29808
0.280095
0.282153
0.278801
0.306032
0.337505
0.29459
0.293248
0.292845
0.291507
0.288738
0.288327
0.285577
0.304638
0.299121
0.293471
0.291691
0.320343
0.284848
0.279286
0.303132
0.282246
0.279392
0.302003
0.318591
0.279727
0.311672
0.28729
0.290452
0.286113
0.298232
0.279095
0.273828
0.27298
0.298982
0.295236
0.290712
0.298756
0.289255
0.310623
0.303745
0.288753
0.355968
0.280923
0.303698
0.303203
0.282462
0.341603
0.612976
0.298578
0.335797
0.286125
0.274772
0.273093
0.273585
0.28987
0.287361
0.320679
0.288813
0.288147
0.288511
0.300122
0.364482
1.15857
0.293473
0.281592
0.284218
0.282308
0.288813
0.290272
0.283796
0.283426
0.283339
0.292159
0.276497
0.277207
0.281493
0.281644
0.303076
0.310606
0.279849
0.297303
0.276293
0.278098
0.271159
0.276503
0.354783
0.301175
0.280466
0.273416
0.286132
0.281725
0.275314
0.323096
0.298081
0.285504
0.836795
0.309283
0.303626
0.857838
0.300819
0.327469
0.312281
0.520591
0.30344
0.297593
0.399432
0.402076
0.443584
0.322928
0.700365
0.35242
0.285207
0.279983
0.27842
0.283177
0.29043
0.469922
0.315914
0.311204
0.342239
0.33378
0.839431
0.341398
0.366472
0.314376
0.295267
0.575261
0.496265
0.457347
0.293506
0.823731
0.639843
0.531429
0.574563
0.49617
0.467077
0.310016
0.304569
0.31514
0.32376
0.295444
0.293658
0.290613
0.287815
0.586793
0.290501
0.340418
0.291565
0.287211
0.288954
0.309978
0.299188
0.294473
0.284711
0.30966
0.285565
0.274555
0.282352
0.285427
0.282417
0.285162
0.282758
0.290334
0.287691
0.288877
0.281547
0.29468
0.283149
0.279028
0.27783
0.294135
0.293239
0.310807
0.278819
0.375674
0.388123
0.290938
0.288893
0.289938
0.274485
0.280783
0.436971
0.272823
0.316727
0.358817
0.480771
0.716975
0.863912
0.627594
0.338918
0.308836
0.328858
0.279211
0.300696
0.282674
0.840896
0.513965
0.282954
0.290402
0.59976
0.285922
0.30142
0.304578
0.29719
0.294912
0.302013
0.311423
0.342769
0.327127
0.332276
0.348606
0.284427
0.278372
0.278578
0.274909
0.284564
0.28583
0.28541
0.286819
0.594313
0.293308
0.562177
0.310244
0.280984
0.293857
0.300116
0.30159
0.295438
0.282476
0.281149
0.281942
0.282205
0.27899
0.280523
0.28281
0.283346
0.284063
0.283426
0.284383
0.285476
0.283575
0.283772
0.270785
0.295916
0.293251
0.282451
0.339062
0.358364
0.373542
0.388263
0.283484
0.28094
0.360346
0.315053
0.297021
0.282199
0.281519
0.297168
0.298891
0.28508
0.279108
0.282054
0.280446
0.281114
0.281993
0.284653
0.286135
0.298566
0.29872
0.286173
0.283165
0.283079
0.309017
0.282039
0.29758
0.324183
0.280522
0.278557
0.274527
0.360772
0.278381
0.277926
0.306056
0.273155
0.2712
0.272489
0.271813
0.270162
0.31589
0.362671
0.276443
0.27665
0.277587
0.275432
0.274465
0.883868
0.695539
0.616358
0.730692
0.73469
0.270633
0.270503
0.272807
0.68605
0.27479