/*--------------------------------*- C++ -*----------------------------------*\
| =========                 |                                                 |
| \\      /  F ield         | OpenFOAM: The Open Source CFD Toolbox           |
|  \\    /   O peration     | Version:  2506                                  |
|   \\  /    A nd           | Website:  www.openfoam.com                      |
|    \\/     M anipulation  |                                                 |
\*---------------------------------------------------------------------------*/
FoamFile
{
    version     2.0;
    format      ascii;
    arch        "LSB;label=32;scalar=64";
    class       volScalarField;
    location    "0.0882685";
    object      p;
}
// * * * * * * * * * * * * * * * * * * * * * * * * * * * * * * * * * * * * * //

dimensions      [0 2 -2 0 0 0 0];

internalField   nonuniform List<scalar> 
3972
(
10.3724
19.077
0.992376
-1.12732
31.6103
6.12572
-3.08598
19.4719
16.6241
12.0592
7.04499
19.5698
-11.9928
8.38139
8.7907
9.57081
5.60938
-3.67164
6.73024
5.23369
-52.0639
-29.0738
8.89958
-2.71947
-75.0805
16.8391
8.4147
10.3373
-21.4582
14.9652
-39.0795
15.642
10.8684
-12.5414
15.3713
9.54262
-10.9461
1.00514
13.328
-12.1573
-7.47824
-7.4962
16.7692
-22.7557
4.50324
8.12844
10.666
-24.6615
-0.69072
12.0788
-3.2315
9.10443
-14.371
8.50846
5.11009
4.61123
0.825914
14.7403
8.61175
-27.4164
7.62805
9.59282
12.2347
0.781993
-2.11022
-18.0851
-11.5745
9.21688
-8.74427
-27.0026
-1.77367
-3.23491
-24.3861
8.47709
-15.0108
11.4488
2.98181
1.47078
3.62012
-7.80997
1.93469
-7.36447
13.5476
2.89643
13.3113
5.37156
6.18361
5.70986
7.65046
7.42268
8.1864
-5.00459
10.2929
9.87721
10.7496
6.05743
9.23574
-4.51552
3.14579
10.4543
11.482
0.238246
12.259
9.13017
0.851053
9.38458
21.0914
-1.40127
-17.0646
-3.24923
17.7171
4.18587
9.12355
7.40869
3.85984
-7.0582
16.3213
-1.21708
-1.34968
5.91824
33.0931
3.29418
10.5842
4.05086
11.3011
-45.6489
10.9303
-40.6728
-40.9645
-43.3661
-41.8646
17.2134
-26.3043
-28.8514
5.63247
5.07882
7.55032
7.57333
8.04865
8.32187
-0.914937
11.398
26.4692
-4.2592
0.509712
10.6559
-15.7139
9.51619
10.8502
3.50268
10.3708
10.6747
12.0404
3.43198
2.89988
9.71814
4.75118
-4.81821
-2.60905
-11.0197
14.1772
15.1901
-6.82775
-10.8041
16.4063
18.1039
-11.6655
-18.6387
13.7144
-10.5237
-16.465
2.29804
11.0361
11.3588
2.66991
4.00574
8.51478
11.4095
10.8028
11.2502
9.69379
9.56689
-8.18611
-17.1285
11.7667
9.62263
9.67017
8.47173
9.35224
-51.3556
9.95318
9.35383
-13.3979
10.1048
0.551964
10.1666
3.43419
5.34397
-20.1979
6.13552
8.35682
7.56761
-11.3844
4.21664
13.4372
1.59816
14.3164
0.75632
-18.3667
-1.66537
-1.48563
2.24284
-37.0749
-34.1689
4.14091
3.83926
-24.0227
-2.83028
-8.02383
5.55669
8.1267
29.6832
-7.02134
7.0768
-3.13393
10.5774
-14.0768
-28.2792
-31.1296
-14.726
-44.5093
-43.3509
29.1651
43.6001
2.58065
-1.78354
-5.88177
12.8576
12.7242
8.36744
16.3576
-39.9216
36.4609
25.0183
-3.27812
3.28658
9.64101
1.58418
-6.97623
-1.25326
-1.03744
27.1572
1.52992
3.18809
-0.734914
-5.77143
32.5925
33.3417
-2.61322
-1.61811
-22.2068
-1.7372
8.08457
-3.85595
-0.362047
-1.82162
1.73352
20.9874
20.4279
-4.68648
8.98457
-14.6976
39.5746
-17.2625
-9.35759
14.6821
-10.7376
-0.0576628
0.352568
10.5449
7.63803
-22.6375
4.67192
42.6336
-50.7054
11.7767
-4.09005
-0.492225
-6.51547
10.4575
-1.09139
19.606
3.11697
-0.644138
7.27392
5.74105
-5.10937
3.61915
15.6874
36.1757
7.77702
3.78495
-3.96075
-12.6534
-3.02883
-3.66503
18.8795
2.19074
-1.49332
1.65873
3.13791
-1.79684
9.46346
-4.69661
-52.2574
12.0104
-4.83517
-3.37802
-6.87758
-0.502926
-22.836
27.7879
-10.5217
9.47802
10.0843
-0.997267
8.03598
14.5832
-4.50972
2.39059
-2.54888
-6.29506
5.86084
4.13509
11.0212
8.18061
-2.01499
-8.5026
14.3129
-19.1846
-1.84655
11.968
-8.88535
-3.29212
-5.46419
9.9835
15.0584
18.1717
-1.37169
-9.68194
-2.39359
0.512876
2.70004
2.75778
-50.2493
12.1241
37.0063
3.24714
10.6498
10.1895
12.16
10.0212
-4.01798
-21.7819
-4.52499
-3.93409
-3.11146
8.14734
11.6669
10.0113
3.87876
7.36934
9.16054
4.87905
-4.82848
-2.80552
-2.83943
-1.24546
-1.82278
-1.19253
2.58281
-4.10569
2.06308
-11.3669
1.31802
-8.25579
7.14443
27.0182
-1.9539
-1.34562
-35.2566
-5.5816
-30.8448
-6.01344
-27.7566
-2.83095
-51.9221
-39.9264
11.5017
7.53898
12.6565
-1.47804
13.0165
-4.13522
23.5289
12.9532
-3.57013
-14.4745
-2.9214
-5.44799
11.3708
-12.8699
-10.3096
-8.82347
7.95175
25.3312
6.86272
-5.66723
-5.55349
3.77803
-6.32384
8.81573
13.581
4.91735
-3.82755
-5.21599
18.0393
-0.387471
10.289
4.75299
-5.16073
-3.37044
11.018
5.30276
7.77903
20.9137
3.68664
0.151614
9.14885
9.70451
3.87046
2.19409
9.22981
0.359141
-4.35293
-7.00759
15.5564
5.12876
-2.51766
11.6664
6.64533
-2.36601
6.07848
-4.53893
-3.27467
11.0611
20.2847
-0.240932
-19.1165
-9.34196
23.0831
3.58964
-4.59508
8.31853
-2.8731
-12.1803
14.2825
16.9676
3.68871
17.6757
-0.747068
5.90861
17.4613
3.19586
5.84379
18.6927
-22.3684
46.0945
-9.73399
-8.59835
-17.5771
-16.0808
-23.8145
-23.9888
-25.6158
9.74945
9.49097
-21.481
10.0181
7.59046
6.80076
5.83057
-33.2698
-11.8594
-36.4618
-48.0738
-20.6935
6.31545
4.64002
5.55376
6.40053
-21.287
-1.84552
-8.09168
-9.51705
12.2599
5.82747
5.63196
6.82307
7.07566
-19.821
5.40858
-22.0696
-31.3791
14.9181
14.2714
9.60818
-4.37957
-4.8097
-7.41636
2.72131
1.51747
-1.52351
-1.52381
9.14907
-4.85055
15.4304
7.0606
-22.7173
10.2221
-16.5948
-24.9888
-3.08132
-11.4846
-15.411
16.3862
2.13215
-2.09774
-2.84395
-1.94189
-2.95716
14.9289
16.6927
10.7809
-3.01064
-2.72712
20.9532
15.0372
10.475
6.82977
-2.37303
-1.24617
8.73126
5.85105
-0.441807
4.98944
1.4172
-13.0545
8.99486
2.05012
-5.22692
22.8289
-0.140202
-24.9187
1.40378
-28.7943
-26.8436
-34.3891
-3.04145
31.5402
15.3117
5.45683
11.814
-4.04958
-9.2411
-2.95927
7.39551
-4.58832
-3.69551
8.22793
-2.45518
-2.74482
-1.90581
-4.41951
-7.42149
-6.03035
2.92528
3.17875
2.11983
3.59931
25.0418
-20.8985
-47.9815
-31.3677
20.0103
-21.1647
-2.23835
-2.18026
0.452649
14.258
-2.0383
-1.9982
-1.74441
-2.11823
19.573
28.2218
27.9351
7.92343
31.8968
-3.55372
-4.54239
8.13616
-5.57756
5.05266
4.02179
4.9375
4.58113
9.20781
9.7318
9.16206
10.1503
6.26534
6.97209
7.98246
5.88133
-2.50297
-0.885067
4.94893
5.75706
9.73867
16.2874
16.0356
10.5076
-11.5431
-17.4333
9.48874
5.28102
11.3528
11.2504
11.8748
11.8501
24.0182
21.096
11.1516
11.1189
-4.21092
5.86339
-35.2354
-4.87309
-5.83479
2.76694
-10.8725
-40.2336
-44.9189
-0.35352
-0.208559
0.876935
0.842879
2.0014
25.8527
32.0827
29.3465
4.51136
32.6115
0.941107
-1.47967
-4.1277
-1.42504
-5.9395
-5.13327
3.84803
7.93564
7.75128
7.38132
8.16519
6.68608
6.82081
10.0992
2.88672
11.4429
12.7018
15.8235
-8.86413
-6.8135
0.877766
-0.363484
11.7989
0.693354
12.4359
11.5221
12.0096
-22.2542
12.249
12.7915
12.8761
-4.16983
15.1793
4.06849
13.8223
12.4157
9.72616
-3.14427
12.2408
6.37779
12.6324
-11.3427
5.76141
14.2465
12.0615
10.2782
-5.93379
-2.38459
-0.297515
7.62842
-45.6143
3.31608
9.48537
8.07717
9.11135
4.43137
9.23206
13.1232
2.3325
-3.8588
4.52918
7.87629
13.7094
3.44708
0.782195
-2.55594
6.99956
7.70325
6.20487
6.76398
4.9453
4.73102
6.51551
5.81599
9.75921
10.4193
1.5723
-3.34148
-6.66186
-3.88718
0.50116
16.1254
8.75886
0.677204
9.22197
-3.63189
8.75921
-1.14467
8.61424
14.9048
17.3747
11.1187
-4.04554
-13.2465
-51.1309
-22.9652
31.4117
-40.9931
17.4508
19.3385
-3.05935
12.035
2.45483
11.0928
8.01891
-6.16912
-1.80258
-4.66204
12.5509
5.73035
7.8684
11.2445
6.51525
1.6951
-1.67359
-11.8912
-2.06359
-1.81204
-3.95482
-8.22707
-17.9076
-14.123
6.09857
-16.0383
8.56441
1.44317
12.0592
-20.6062
6.38053
11.0871
3.20533
3.48544
4.64589
-16.5876
-0.753308
-1.7375
10.9495
-0.694997
-0.725557
10.4718
12.8213
10.5649
20.3151
-0.260197
-32.0987
7.78625
14.1407
1.30065
8.36321
8.44898
13.3842
14.9563
11.1831
11.3442
8.86762
23.5904
13.8994
12.1315
6.40907
9.36214
-20.7308
4.29391
-4.15682
-16.9501
-11.4841
15.1486
8.16225
-3.67711
6.91649
1.51763
-3.44897
-19.7486
-13.6914
7.90193
-26.9178
-12.8262
-45.9
44.4275
-3.26506
-2.80602
6.1928
4.81072
0.826855
18.6742
-8.5429
-29.7199
-27.3129
-18.7737
-5.82168
-3.42056
19.6365
11.4789
8.28451
-19.063
14.221
31.6163
13.8126
13.9124
9.26476
10.5196
14.042
1.16304
-3.70003
0.664874
6.15665
-37.0975
-7.28722
-5.21008
0.199256
1.85905
3.39069
1.99498
18.0083
7.29119
6.96584
8.73964
9.43728
4.5954
6.67005
7.00039
9.07344
-23.7235
-47.0185
11.5691
-1.95486
-1.91722
-1.12561
9.53556
2.02763
7.67407
10.169
-25.4868
9.83454
-37.0452
42.6719
1.32572
-17.8686
-1.40874
-1.29787
-1.7965
-1.80224
-1.25626
-1.64426
-0.399505
12.4227
-0.00460701
-0.525243
-2.11103
-16.4131
12.0185
8.36133
-0.679183
-0.947928
-15.7081
8.83824
4.57027
11.9036
11.3455
11.9474
20.647
1.40957
11.9899
-0.498459
3.50832
9.54617
24.185
-0.452303
9.81288
12.8027
9.16311
10.5531
11.9561
21.1739
12.1013
4.45809
-3.27685
12.7218
0.995449
12.2585
11.1376
-0.932542
30.1246
-48.23
11.1243
9.64734
4.90901
2.32055
9.2466
10.8778
-4.3733
10.8758
-7.81919
4.33052
10.1415
10.5921
8.08433
-8.94171
-3.98158
13.419
8.3312
11.884
3.36982
-3.52755
-1.57818
-6.38043
18.1491
-7.09241
-43.365
-2.98141
3.66585
6.50009
9.49177
21.186
10.0709
-29.9801
-6.19159
10.925
32.9661
11.1504
-6.79137
-2.97824
4.81765
-0.580807
-13.8184
4.29999
1.73545
3.23089
-50.2263
10.4119
-3.38258
33.8405
-48.5518
-6.03731
-19.3756
11.7198
-32.4999
-45.6817
11.6133
9.94451
-0.149117
0.501717
17.7068
7.44748
-5.08182
-20.9922
15.5441
10.1535
5.01939
20.0893
-39.9479
-5.03839
6.12072
8.29738
-7.20873
-10.9888
-2.98847
-125.492
-14.7454
-53.966
-40.1155
-2.85611
-12.4049
-13.7879
2.9355
3.53078
-16.971
-1.14353
0.346637
-6.12569
-4.21035
-5.61924
-3.93808
1.70455
-5.2197
5.12173
7.14058
-2.28683
8.61615
-3.4568
-6.5543
-3.9621
6.07843
-4.33011
-3.99272
-9.57135
3.58206
3.44033
5.65092
-5.66888
-4.68037
-4.28354
-1.09986
-8.03769
7.22099
-5.5418
-3.45299
0.042715
2.09809
-6.27429
-4.11438
-12.8868
-15.9499
11.8213
11.9357
4.57574
3.89584
3.5067
1.95108
12.0679
11.2617
-1.56814
-1.07018
-1.79782
-5.89116
-3.91884
-4.28882
10.9281
-37.7545
12.1402
-6.48829
-8.07278
-7.30687
-5.96445
-5.66988
22.6072
3.18764
20.6916
-7.17593
10.2228
13.8987
-0.527614
1.0047
1.52069
-1.02254
-6.0208
-5.03614
17.0819
-0.493742
4.64782
1.24023
-101.59
-48.0451
11.1132
1.00078
0.188104
10.3957
-3.13723
-6.33788
-33.4372
11.6229
40.8055
2.38796
10.552
16.0755
10.8021
11.7591
14.0609
15.196
-3.85862
-1.9385
-3.97486
16.6376
11.412
14.9041
12.9119
14.9998
10.6988
11.8007
9.26009
-17.9166
16.1156
21.0155
-2.2962
-6.12864
-1.59673
2.74034
-54.5936
-3.34404
8.53944
3.30861
13.3875
10.675
11.9752
25.4907
4.27873
-14.533
-3.25061
24.4201
-3.68532
21.2872
-0.107296
30.1424
11.56
26.849
14.9992
7.86852
10.0189
10.5294
6.51394
13.2032
12.3845
7.31234
3.90825
-5.27582
4.87357
10.8677
14.1899
13.394
8.97751
4.47349
0.17692
2.61782
3.75503
23.8476
44.9382
22.3153
20.5505
-12.415
-11.9449
-14.0775
-14.4413
-8.19616
-8.3343
2.27144
16.5475
-8.84418
9.08504
7.31547
11.2325
23.6522
12.2137
28.8635
-15.4685
-45.5161
-3.78286
-31.2346
-14.3756
-28.4825
-2.59222
7.18376
-1.81798
39.1996
13.4274
12.9382
21.493
-2.34772
18.3201
-26.3925
7.06537
13.4959
7.04407
6.11688
2.84824
20.38
-0.4788
1.76035
-2.09457
-13.2019
-6.40602
-7.44374
-1.79598
-2.37626
4.55749
4.10751
0.954548
0.643809
-1.12375
-7.40195
-6.55077
-1.39806
-1.3324
9.60638
12.278
12.8389
14.6011
9.85087
10.4146
18.3988
19.2838
0.693714
0.986269
5.82353
8.21761
7.49359
6.82218
-1.81154
-1.85157
7.77249
11.9461
8.42467
6.98576
12.595
12.7842
13.8038
14.6504
11.9604
13.107
13.4536
13.7942
8.29518
10.7762
11.2337
10.6748
17.6565
14.1249
14.495
15.2921
13.4547
13.9171
16.7702
10.4825
-20.0916
-23.0132
-5.22067
-12.0904
-2.41072
-0.552546
-18.5192
-1.96947
-5.91058
-0.405495
-24.3003
-52.2314
10.0303
10.6328
7.64753
5.2989
8.49773
7.53204
12.5494
6.94151
6.57242
1.77316
1.13905
1.74379
1.53802
0.667447
1.86962
-0.0417349
-0.97654
-1.11387
8.79851
5.40932
-5.35213
7.09448
2.78026
9.36904
7.71473
-3.8377
-1.93004
-4.49079
-5.96812
3.73057
25.0887
11.4892
11.1824
7.16211
1.48199
17.2595
3.81164
11.5304
9.87919
8.36176
7.49729
8.32824
8.47445
8.06703
7.94028
11.5733
11.4601
10.844
13.3955
12.3492
11.7758
22.2225
15.5727
11.9515
27.2226
-6.08139
-8.73746
3.40877
8.88704
6.68997
-9.68312
12.7191
9.33563
3.70517
-1.07613
-5.59251
-2.69582
12.0662
10.511
10.6144
10.1907
9.28991
8.23586
11.4031
-2.86294
11.5356
1.74838
-0.80753
2.49469
2.43005
7.10945
5.97557
7.9719
1.86353
5.59558
9.87061
10.0378
11.6295
15.56
8.21018
14.9955
10.6098
11.7794
-30.3522
-17.2401
3.24069
3.55954
1.81721
2.39971
6.43152
-34.5945
3.90204
-29.002
4.54153
33.6079
-33.4179
6.35632
16.2861
21.5199
6.39964
-41.5857
-9.94791
7.38776
38.2186
-12.8543
56.457
55.0088
-63.4792
11.536
37.1142
45.5782
31.906
10.8498
40.0791
6.22789
-1.77092
4.21013
3.98298
4.24115
5.78696
1.65117
13.2202
18.0096
11.5835
-1.6601
-1.01216
22.3726
-44.4726
19.7773
-2.10726
2.00343
1.62456
2.97575
14.1091
12.2863
8.83613
5.74294
4.70711
5.86693
9.16269
6.94711
5.40364
-51.8823
12.546
17.323
18.7271
18.6105
12.0827
6.06852
7.11308
18.8336
15.0994
8.82457
4.68772
12.1461
9.52014
6.46307
7.40476
13.6517
11.6927
2.53864
-1.59071
-1.5401
-0.287853
8.61314
11.2712
15.4202
11.5428
-3.28168
3.45114
-3.24232
-5.79885
0.374988
4.54239
13.8163
8.861
32.5367
1.54373
0.498023
-1.56431
-5.06447
-8.42324
-4.66256
-6.29371
-4.41115
-0.204756
-0.974464
-3.16464
-1.00908
-1.33717
2.8812
-5.02447
-3.05096
-96.7467
13.7575
10.1527
8.71229
13.532
-2.98067
4.79692
23.4177
1.83896
3.65433
23.3391
5.28294
3.44354
14.1475
13.3104
8.71266
9.64236
-51.5973
-1.47124
-2.48809
-19.6653
-3.32025
-10.7609
1.73766
-10.3607
-4.47695
-3.45174
-2.03981
-4.12819
-166.591
-1.92388
-1.08589
-0.993911
-0.784921
-1.14808
6.37275
7.68334
7.18631
-0.651149
-1.00399
-0.718431
11.6793
11.1811
11.5723
-3.1764
1.27578
-3.33274
-4.81547
4.97735
6.09863
4.58103
8.23
6.19887
7.50708
3.72947
7.21971
14.0002
10.1758
10.766
10.975
11.7726
9.7858
-2.65617
-2.2655
10.5657
10.7347
4.0263
2.76618
8.51078
10.0486
5.1942
12.4047
12.5945
-51.7656
10.2414
-55.6468
-52.9971
8.91269
10.5365
10.6154
10.1397
10.252
11.4336
-3.10263
-0.810377
-51.6175
3.29936
-27.83
3.19589
11.3844
9.84513
25.907
18.4015
-1.48268
23.8106
-50.3336
33.3693
48.6252
-35.315
0.0448371
-3.242
-2.54164
9.24673
4.29614
14.7347
7.91853
6.94554
-6.65006
-2.14688
-0.828204
-8.79999
-1.95143
-2.87306
-22.8458
7.93444
-2.02285
-3.43994
-12.7283
2.79338
14.4791
19.9382
-0.259319
-0.220226
-0.305739
-1.66573
2.42729
-0.336548
-2.7887
1.08379
-8.19644
-0.797771
3.02405
-6.06016
-0.337218
-0.62245
-0.222923
-0.273859
3.28859
-49.9817
-33.3239
-6.81631
-8.37563
3.02397
-26.6
-52.9999
1.78401
2.85146
3.38884
1.93041
-20.3125
10.1173
2.16193
-4.19217
2.65353
-7.08437
4.33041
3.11973
2.94906
-13.3515
-2.00739
-3.61329
-0.935549
0.237337
1.35454
-8.88722
8.15747
-0.212752
3.40851
8.13832
8.2219
-0.570814
5.25397
6.35769
-5.61624
8.15928
-14.2609
26.6709
-2.84562
2.73999
11.1348
4.54554
3.40825
12.0346
5.72609
1.74531
9.90213
0.146951
17.5296
-37.3662
7.41421
9.5794
-31.7136
0.399783
-2.39344
2.34896
1.42389
2.22598
1.6845
-30.513
8.62872
-0.679259
8.83193
8.82128
8.56327
-1.82237
-7.91774
5.65715
-4.04916
7.83066
-3.15728
-7.70774
-2.72248
-6.15188
-7.33149
-5.21471
-4.01272
18.933
-3.16244
-8.28337
-4.34869
-13.4427
-6.33304
-23.1498
-4.19625
-3.24415
-3.65616
-12.6469
-6.43457
-4.01434
-4.74176
14.9493
-21.707
-17.187
-19.1161
-16.9003
-5.81383
-16.9769
-11.6487
-9.59184
11.9437
19.2218
25.2097
10.7498
10.8619
8.22191
11.0361
10.4751
-2.30436
7.38406
4.30119
-2.39489
4.22546
11.204
9.13839
15.0323
-2.60784
-4.20884
-3.45513
-3.48321
-0.681342
6.5735
1.91452
11.9775
3.66105
3.24631
-12.4537
1.79666
-10.5365
0.816771
9.29788
8.0228
-10.4642
-1.80993
1.93712
1.26726
4.44698
14.1416
0.490005
7.41641
-4.83441
13.5223
15.3805
14.2825
9.78782
-5.07564
-6.00207
-5.03006
0.445126
-6.17655
5.37248
17.6919
8.68447
0.669331
3.9026
-1.47631
12.9701
7.11232
1.15719
8.76852
5.35113
7.19456
2.90623
14.6071
11.2747
0.49062
4.91257
2.32194
12.3262
0.0755795
6.41075
-10.2267
-6.07609
-0.843609
4.44741
2.83364
7.8508
10.6073
11.4526
13.0093
-31.2912
16.6542
11.9877
-41.8266
10.0069
11.1842
34.143
36.6021
24.771
12.5699
12.5479
9.55948
8.4305
12.4485
15.1439
6.90008
5.55668
10.9992
23.4147
17.689
-7.83459
-0.835787
-1.69931
7.57923
-2.79006
-3.6396
4.69278
13.0466
8.96826
14.9469
-35.2965
-25.7572
-24.6173
-20.6889
-29.86
20.3835
15.1871
-33.9407
0.207883
-0.566491
0.199632
11.8715
-1.71896
25.2574
25.4278
17.08
-1.01762
1.8564
4.098
-4.08671
-9.20198
-12.7377
-9.05215
-16.8693
-2.64549
-27.105
-10.1051
7.79578
11.5957
13.8998
-26.3331
-2.70273
-6.13259
-10.6462
5.6394
2.53259
0.657062
6.22268
6.79113
17.1649
15.3422
12.1451
13.4483
10.5763
9.21603
12.4838
12.3304
12.494
8.49097
7.79192
8.39407
4.38935
-0.294348
7.35517
7.75532
-0.340696
-0.077152
0.913978
-1.94627
-0.523664
-2.37249
1.8489
9.55209
9.29409
9.19995
0.469476
27.9647
9.30769
10.9373
9.12686
10.6765
6.15278
-2.32853
7.78417
10.0454
13.1378
10.4188
9.56497
9.63014
1.95817
-5.63789
12.309
-3.21359
-9.4838
-1.20729
32.1568
-20.3444
1.0879
31.6524
-49.4054
-42.7248
4.79807
4.50053
2.97744
-54.0545
2.74537
4.60149
0.611548
1.81323
2.18668
23.7726
21.4636
14.1901
11.9514
13.8138
16.0008
13.8217
17.5833
12.6558
19.3496
9.96953
-8.75691
-5.07956
10.3333
17.2343
16.3741
14.4647
21.0127
-31.2692
-141.576
24.6779
-8.49863
-144.508
21.5453
21.5778
24.7436
14.3847
31.934
-52.751
0.655695
-0.435238
-2.69842
-1.39016
-1.52334
-0.110747
0.685515
1.27691
-0.459106
-2.81719
-2.34658
2.82228
2.33639
10.6615
17.7455
17.8936
8.3751
6.46873
7.38102
7.19836
11.4112
5.57126
4.78719
8.10806
4.19325
4.88204
6.25691
7.38335
13.3429
10.6069
11.8973
10.2614
9.08711
10.9977
10.8359
-1.89858
12.2083
11.3636
0.440459
1.25697
12.8928
11.1948
12.8438
11.6993
13.8423
9.15187
6.76507
8.71241
8.74529
-2.32169
-1.89375
-5.08051
-2.78815
-2.89121
-0.789588
-0.2512
2.26238
-3.16566
-4.73874
1.06638
0.754726
4.45899
8.00549
-4.74299
-5.36381
8.01172
0.922203
-26.9916
21.7508
7.85362
12.3674
12.4515
10.4051
-2.86035
-3.15272
12.607
-3.82676
2.52685
5.34735
-5.04944
5.13629
-3.23428
8.82137
7.42592
10.3838
9.80249
5.2517
10.2993
10.5449
6.51469
8.51147
2.10013
5.72773
13.2044
11.1746
9.42428
7.5372
-5.96031
6.46605
5.20206
2.73816
6.56046
5.66145
1.34977
0.797314
1.11659
0.289083
1.50315
0.383397
1.85333
1.55441
0.0618825
-4.45361
-4.46087
0.335716
2.17083
1.9129
-2.26613
0.474986
8.89265
0.761463
-12.4497
-3.05529
-7.82993
-1.23268
-5.84214
-14.6787
-4.34319
16.474
8.93604
11.3119
9.02177
9.85237
2.64849
10.7796
13.2425
10.7201
9.88484
14.2343
20.4636
11.1763
11.5117
13.1987
10.6522
22.5135
4.53238
1.92058
5.79258
11.9491
11.8625
14.7417
-3.16899
-5.5239
-4.76971
-3.746
-2.5372
0.725859
-1.80557
-1.58131
22.8812
11.2534
-7.60469
-52.3545
11.6439
10.453
8.90833
14.29
10.3723
7.93854
-8.62766
13.9417
27.8255
13.6178
29.5001
12.0524
3.08035
45.1354
40.2147
15.4832
43.686
11.6366
11.8212
8.01416
-65.329
-29.1846
-39.1042
12.8045
14.9419
-42.7312
-51.7557
15.7853
14.6078
22.0865
-15.187
-4.96507
11.4761
11.7877
-7.64886
-3.20692
11.9269
4.38711
35.987
-4.47549
-7.04551
12.9766
8.94229
8.2502
8.98812
9.83814
12.3306
5.30612
0.0393995
7.5006
9.02576
8.37394
0.166083
0.50092
5.09825
1.98854
9.07184
5.42339
-3.18046
-1.20945
20.0033
9.58236
15.0661
-3.91481
-1.34766
-2.98552
-3.60326
-5.44212
-55.4835
3.81691
20.6199
-4.44256
0.0198655
2.65112
1.59944
4.2792
5.32084
-6.59346
0.647936
-10.3072
4.6013
1.03402
6.83333
-0.996752
3.51695
5.93882
0.541943
1.67539
-2.39312
1.39878
5.49197
-5.21996
-20.082
-5.70082
-6.10575
-2.67411
4.84706
-21.1886
2.61371
4.70742
14.8414
6.10757
13.3359
-9.28577
2.36015
5.50219
-2.66664
4.40903
-7.42831
0.774561
20.0348
14.8141
-5.3733
7.21366
-41.906
-4.08713
-13.1226
-3.75232
-5.65229
-3.34393
-0.982296
-26.8546
-15.7297
-6.35178
-6.93841
-2.09972
-9.14167
-3.39658
-3.8915
-4.32155
-4.05985
-9.70517
-2.80669
-3.35375
-24.5646
-4.94073
-7.79256
-7.38283
-1.82343
-2.39911
-2.016
-1.15582
-5.04655
-3.79253
-4.19093
-4.13675
-4.19253
-5.4476
-6.22511
-4.69634
-2.30083
-4.34371
-3.82834
-2.79321
53.9677
-5.61845
-4.4155
-3.70241
-3.72378
-4.21155
51.7785
-3.07379
47.7201
-3.16203
-3.86336
-2.18708
-1.85349
-2.08507
34.5345
18.1465
-2.15853
-5.66591
-14.6016
-4.32789
11.2786
8.3776
2.38342
-2.54172
6.44812
2.47066
15.477
5.88156
5.12316
10.3497
-1.28702
-2.3994
-1.03246
-2.91046
-3.11012
-3.30439
-3.80111
5.85557
-2.30547
-2.95375
6.91287
16.1416
11.7859
14.054
14.374
17.1165
25.5457
-9.94505
-18.7402
-11.7795
-10.9112
-17.3968
10.1668
11.4603
-15.14
9.68518
11.6094
-10.7128
4.83507
-36.6744
4.72061
4.19305
-1.83562
-1.38054
-31.6702
20.9563
-26.5182
-19.4242
2.47094
-23.3723
3.09787
21.0002
36.5403
8.62776
-0.0938549
6.8014
6.15772
1.07242
9.1221
8.64679
5.03019
12.7547
2.47765
12.0193
13.1037
0.423715
10.653
2.90378
6.79059
-36.969
-2.11929
1.5461
7.17718
2.13756
4.19265
3.28105
8.15683
0.790962
1.90142
-2.83564
33.6029
23.5845
15.3023
15.2031
42.9894
-25.1419
10.5564
-8.08802
-8.13477
1.98316
-9.95538
-1.20702
1.10858
7.89543
6.4899
-0.916754
2.75999
23.4411
0.217698
2.55959
2.83558
10.0358
7.56276
16.584
10.992
8.92246
31.3375
12.7067
13.8572
10.3973
13.9406
10.1067
9.53072
39.5085
22.4717
12.8654
-8.21648
14.9315
29.1774
-2.17616
17.7477
9.78267
19.0045
30.1479
-8.60551
-3.07979
-4.40346
-7.47224
38.5246
-156.722
21.6879
7.56562
-6.55777
45.2799
11.5962
5.9239
11.4108
12.2341
11.47
32.4982
13.5988
4.05934
4.92639
9.30781
10.042
8.11524
-2.99445
0.327781
-2.03668
1.32799
-13.984
1.12901
-38.096
26.1466
-41.3834
21.2198
0.014933
-3.74817
-15.1839
-10.5747
-63.4983
-9.02972
-11.9948
-18.0861
-39.9258
30.9998
-36.9646
-34.9169
-2.53971
27.7995
-2.96836
-23.4137
19.8318
-3.9206
-3.91216
1.50976
-2.18547
20.4576
-3.87436
-18.6208
-1.10669
-6.97716
-5.36171
-29.1932
22.858
-26.3194
-18.6932
17.5572
-40.5704
-12.559
11.31
-4.54256
21.9573
11.0071
9.086
13.4347
13.1754
24.4569
23.707
12.1783
29.4648
26.2228
33.1807
8.28356
-12.5344
14.9181
22.914
19.5769
23.1655
8.17996
8.68104
-25.7298
-40.8264
26.9011
25.8395
18.9341
1.9081
3.40123
23.6415
2.99778
4.88929
4.83326
1.39181
-1.27438
11.1147
6.73922
18.8503
8.7556
9.98645
9.16576
6.8686
-10.9657
-13.3761
12.9148
13.2327
-4.89292
-2.88189
-1.24481
-1.79248
2.20202
-1.54448
-1.68674
7.50584
0.660457
3.82138
4.86431
2.43388
11.603
-4.8584
-18.3266
9.46513
11.584
11.4033
11.1453
-0.525866
3.49768
6.52678
-1.82986
0.116503
3.74027
-1.1932
9.32524
10.2272
9.97864
8.53008
8.9885
8.27196
9.76023
2.37358
2.32402
10.2091
8.16423
-2.51078
3.46488
1.25608
7.87716
1.45704
4.60222
7.27096
7.76282
7.94083
8.40726
7.22349
7.57427
4.93816
10.7524
8.06265
10.1238
13.5604
11.1606
10.197
12.3901
12.3871
5.84233
8.70277
9.17129
7.91119
10.1106
5.72465
0.554571
6.97815
1.97644
5.1793
-1.59693
-2.1372
-2.41261
1.34827
-2.19867
1.41333
15.254
0.38369
21.8361
46.0328
32.2197
39.2431
-0.408928
4.6366
3.12605
-0.62698
6.44454
0.554802
2.47874
2.25238
13.7622
14.2243
-1.99179
-0.384828
19.4442
1.6739
5.00534
7.22886
11.8672
3.93012
-2.73685
3.30089
3.53106
5.08444
3.3868
9.83573
7.87509
8.80633
12.9147
-1.16625
0.607659
-1.75713
3.75082
6.91996
-10.8328
-19.7703
-20.415
-40.8433
6.39926
31.3576
28.797
-41.4114
11.0273
3.69277
23.3938
-71.6231
20.1532
18.8025
24.5825
-10.9667
16.1706
11.608
11.1557
-53.2261
5.70049
4.94961
-51.9473
4.83493
-48.6771
10.1528
9.6692
12.5462
11.2342
13.0609
10.7024
10.7134
11.8975
9.4471
9.11506
11.951
9.5765
8.89501
9.9187
10.3096
10.2512
6.99859
8.16523
5.43155
12.2402
3.68566
6.52734
5.88555
4.28087
-1.22096
0.154275
-2.32529
-0.934449
9.4894
11.3438
8.14469
4.75814
10.7967
15.0281
11.336
6.77344
9.01867
-3.19554
-1.79139
5.80469
4.93733
6.34528
7.99706
7.0789
12.9415
-1.46165
-4.30532
12.4748
10.9672
11.0793
11.4003
10.2098
11.8889
9.92967
11.4377
16.0392
11.8875
21.4621
19.2945
-2.79533
0.55899
0.37393
-2.67849
1.33355
9.62929
7.76088
8.97218
12.1524
10.763
-0.720372
-42.5277
4.58785
6.62557
-21.4046
9.20458
-6.01406
9.06854
6.12672
6.23203
7.09382
9.00068
15.4355
8.99665
7.93306
15.6737
5.94817
8.615
11.4107
16.937
12.3053
12.2019
-8.59875
-8.34074
8.16197
-22.467
-15.9875
-24.1764
-4.66788
11.2335
6.75519
-37.9872
-1.60965
-6.83977
-1.10079
3.30782
4.54233
-14.1985
13.3793
24.6116
1.22234
8.34778
1.20462
13.8426
10.9648
9.19505
11.4687
12.1192
7.26639
-44.4985
0.805192
49.8583
20.9269
14.9426
29.7139
18.7782
17.4272
22.2835
26.9047
20.4509
12.8045
-42.9696
-2.09652
0.285239
-4.42467
3.49729
-4.37907
-2.33809
-53.6316
-52.6003
-52.3762
35.4985
-22.6195
-51.9914
-19.5443
-6.59682
-2.14044
-39.4592
0.217885
2.50626
2.63992
-0.0752599
1.32964
2.57756
2.09094
-0.642702
0.607454
0.75671
14.3235
-4.5566
-4.38932
-0.947436
1.82998
9.09661
0.42847
11.91
-7.07528
-0.769635
-21.9713
-9.84588
-12.871
-1.00609
-2.82449
-3.93844
-0.764812
12.5694
-1.89513
0.0350176
9.90571
11.9686
8.32329
5.90239
0.878789
-1.52933
-0.303388
25.9815
11.5303
8.78064
14.7329
12.0807
5.1871
15.0993
10.9108
9.62193
6.83362
-54.1691
-7.73088
7.29278
10.6736
11.0663
9.93391
9.26111
6.93004
6.33935
18.4647
13.6034
10.3683
-10.7229
6.25445
13.7542
3.23774
20.5944
-14.765
-1.07712
-7.94388
10.7433
5.05223
9.22357
-5.75053
-9.10465
-2.56527
-4.81514
-2.7547
-24.32
-6.34816
-3.74232
-19.1685
-3.05432
-110.584
-48.5443
-31.2738
12.3694
-1.4301
-0.647477
-2.13964
-5.45904
-1.65118
-6.45539
0.220266
-5.955
-11.2207
-12.4251
-4.04534
-16.4427
-1.87866
-6.60128
-2.02976
-9.21872
-13.5313
-46.3698
9.01889
4.20505
13.9842
26.13
-24.1824
3.53292
-6.19605
-10.6843
-3.28404
-1.29409
-4.52784
-20.8875
1.95632
-5.39784
-5.26902
-3.26359
3.88923
17.428
0.390728
10.742
11.2255
-16.4023
-5.70434
-17.2874
-35.269
-14.8732
-5.76341
-8.58989
11.7288
-3.5223
-3.87654
-2.71857
-8.87125
11.9126
-4.65947
-1.84863
14.316
8.84658
13.5581
-3.09227
-3.96923
-3.2466
15.2983
13.0133
5.68913
10.8697
7.79881
11.2596
12.9903
17.9977
9.68029
11.2027
10.0436
7.08207
5.96496
5.20998
9.17753
26.4868
10.5424
7.33546
8.74818
10.2356
7.79666
10.5103
7.10438
5.53255
16.6567
10.5056
14.6658
2.53924
5.76676
2.73046
0.132818
1.42117
9.71888
4.94609
-4.03232
11.3918
11.7711
21.2546
-1.0123
-0.783627
-11.7953
1.10324
14.0547
14.9053
5.69409
27.1755
44.9237
13.3842
1.87076
-2.60945
2.22313
-1.28991
1.38011
11.42
9.60204
19.9207
-2.02697
-1.75646
15.9862
-1.6766
-8.58329
-46.8364
8.89307
4.89293
8.30724
8.15213
10.5856
11.7751
9.23171
10.5415
9.72383
3.08774
3.12013
3.72003
7.22901
-1.72984
15.9493
-6.82871
-3.18217
0.226223
-0.875143
-1.56926
-1.55808
-2.84038
-13.2478
2.99811
-1.63224
-0.54065
2.82994
-3.1336
-1.12364
19.853
10.6359
15.9533
-20.6754
-1.09784
-0.771774
-74.4229
13.7847
12.921
16.2022
-8.05059
10.375
19.2459
-14.3219
-14.0699
4.71581
1.18115
10.3946
-53.617
10.2459
8.44731
10.492
9.7842
12.0437
-19.2588
16.9306
9.33159
1.96764
4.24789
-48.1393
4.12446
15.602
17.3982
5.03474
44.4497
44.5783
38.5377
10.7347
-3.22297
45.5686
-30.6769
-34.9886
-31.2594
-25.2732
-5.80359
-2.93918
-7.55914
-8.14413
-0.779563
0.453602
0.120655
0.591638
-38.3861
-3.99617
-13.7185
-3.66213
-1.81114
7.31473
14.5787
-3.6524
-4.63518
4.62338
-4.45571
4.60254
12.4959
12.6874
13.0375
13.7547
0.771929
2.78753
4.01034
14.6877
13.5379
8.59152
9.13874
13.1308
11.3184
-2.8095
-1.70326
10.0125
-1.73357
-1.30687
-16.9087
-20.4297
-4.57031
-4.31614
-3.99246
-2.74862
0.158119
-26.899
-1.56582
-7.41099
-14.9873
-25.7773
-41.9952
-48.4956
-42.1288
-10.7423
-1.95172
-10.5757
-2.91772
-4.46392
-2.95077
-19.5657
27.1466
-3.19535
-4.67246
48.4043
-3.21084
10.0578
-3.61558
-3.56075
-4.4697
-5.49811
-6.77766
11.1637
9.90425
8.17548
9.4484
3.00738
0.477721
-0.10206
2.13067
14.2884
14.3568
12.4364
14.0706
38.5759
10.4941
36.1892
-5.85902
10.108
-4.29927
-5.51585
-5.83759
13.5721
10.4971
9.10415
10.1418
9.93956
11.9277
12.3799
12.9742
10.9435
10.9031
10.8798
10.4155
10.6727
5.89107
8.47548
-1.11643
12.7471
9.72879
12.5518
9.67351
-0.172584
-0.615718
-1.21571
0.819119
-0.73322
6.58185
-1.60908
7.21917
8.89243
5.01529
3.9141
6.78328
4.91455
1.47171
6.05738
3.56313
2.50658
3.92993
8.59026
6.23902
-1.29736
11.2472
11.4825
10.8695
10.8596
8.62768
12.7547
11.672
11.3259
2.15938
0.441501
1.43369
-1.35328
0.564458
-3.58787
9.1451
-0.967493
-1.71617
-1.52833
-1.88905
-1.461
-1.39045
-1.50437
5.21667
5.07778
3.79329
3.41672
3.19831
-100.728
-1.35429
10.9858
-17.0369
36.418
-0.846252
-0.491947
1.25797
-33.256
1.95866
0.698221
10.4138
-9.54332
11.1534
10.4383
9.08363
8.93642
-6.2297
17.4343
12.6054
10.6935
12.9922
11.4204
10.9985
7.46232
8.16312
7.68888
9.77834
7.22468
-0.426839
11.499
0.790197
-14.292
9.38036
8.96931
9.58318
9.65852
12.1915
7.61099
-0.0360711
-0.381864
0.255034
-11.1276
-5.67061
-0.563702
-0.0858309
-0.413248
-11.4499
12.7666
18.687
9.98474
10.197
9.8604
0.500816
5.5607
-4.78368
-11.2141
4.66462
4.71548
9.03496
9.67895
8.6609
-51.1985
7.18626
3.84337
8.89145
13.4528
9.78024
9.09043
9.82155
9.24898
9.26224
-57.0993
0.452758
3.90029
9.82021
8.23893
9.04849
4.61157
-0.146153
0.308283
1.43691
0.0495045
2.5432
1.90084
-0.0173308
3.33808
-0.202597
-6.7167
-2.57236
-5.03195
-1.13613
0.742211
-0.660207
2.46129
3.56981
-2.23739
-5.62548
-3.11953
-10.2353
-5.46812
-1.00433
7.19031
-6.10048
11.2921
10.6712
18.5469
11.9193
16.1502
10.3383
12.9677
17.8435
-3.50823
-0.109431
-6.80108
-6.02315
10.1039
14.2486
20.764
17.5624
18.2189
33.3505
-9.40066
0.81524
-1.72094
-5.1996
-3.41833
-1.50202
14.1344
-2.05762
-4.70489
-1.80079
-4.90485
-5.8946
-1.01896
6.28266
5.23514
6.4664
6.94276
14.8946
12.1082
12.786
15.5163
13.786
16.4345
8.87658
-19.681
-49.0622
9.01653
-52.9466
12.4573
15.0377
11.1596
10.9306
2.1736
14.9611
16.8518
10.3731
7.43157
4.26718
8.86541
11.0527
9.75045
20.8358
17.0777
18.1248
20.1005
7.2411
7.09775
13.3539
6.97463
10.6021
13.6178
14.0946
7.12312
20.8794
13.4331
15.0762
6.81805
17.1986
-44.4339
-7.84968
-3.71272
-5.322
-52.5495
-9.54267
-10.5989
2.42837
-2.25977
8.02466
-6.45931
-16.9046
-11.66
-0.775709
-2.65341
1.72614
1.06571
6.71151
-1.02983
-0.433505
1.68871
1.03709
-50.8466
-8.73296
-8.23969
3.54484
1.85194
-21.4539
-18.1573
5.08788
-5.75067
1.61567
1.09922
9.4715
6.3634
-16.2348
-14.1568
-2.10022
-7.04069
-8.191
-1.20094
-14.8805
-6.02678
-20.6807
-12.5574
-6.12769