/*--------------------------------*- C++ -*----------------------------------*\
| =========                 |                                                 |
| \\      /  F ield         | OpenFOAM: The Open Source CFD Toolbox           |
|  \\    /   O peration     | Version:  2506                                  |
|   \\  /    A nd           | Website:  www.openfoam.com                      |
|    \\/     M anipulation  |                                                 |
\*---------------------------------------------------------------------------*/
FoamFile
{
    version     2.0;
    format      ascii;
    arch        "LSB;label=32;scalar=64";
    class       volVectorField;
    location    "0.0882685";
    object      U;
}
// * * * * * * * * * * * * * * * * * * * * * * * * * * * * * * * * * * * * * //

dimensions      [0 1 -1 0 0 0 0];

internalField   nonuniform List<vector> 
3972
(
(10.0769 -0.21569 0.00541468)
(9.00913 -1.18758 -0.100894)
(10.8365 -0.404217 -0.0384209)
(11.0502 -0.20619 -0.0399059)
(1.77902 -4.13292 -5.94784)
(10.4321 -0.572112 0.0232742)
(11.184 -0.0991708 -0.0676332)
(8.93903 -1.18069 -0.773711)
(9.42221 -0.991441 -0.677521)
(9.25074 -3.05816 -1.44439)
(10.3175 -1.48304 -1.01237)
(8.66227 -1.29635 -0.698699)
(12.0483 -0.212312 -0.326681)
(10.2049 -0.162993 -0.0192379)
(10.2073 -0.718275 0.0870023)
(10.0408 -0.637582 -0.0772815)
(10.4285 -0.476985 -0.102534)
(11.173 -1.44022 -0.293778)
(10.3696 -0.445235 -0.0143759)
(10.5215 -0.559218 -0.00158286)
(5.83479 -1.47032 -1.00278)
(12.5488 -0.570217 -0.430955)
(10.1557 -0.0918713 0.0321372)
(11.1002 0.129311 -0.0326335)
(10.9008 -5.20365 -2.68431)
(9.25372 -1.00149 0.0554758)
(10.2276 -0.586813 0.0585074)
(10.0579 -0.239946 -0.0254014)
(12.6845 -1.24004 -0.864734)
(9.62875 -0.409533 0.146697)
(11.0584 -1.21613 -0.687853)
(7.99126 -5.74882 -0.0596381)
(10.0199 -0.242458 -0.0236535)
(11.7109 -2.69503 -1.14528)
(9.5961 -0.534935 0.162152)
(10.106 -0.972716 0.181277)
(11.9473 -1.00767 -0.644055)
(10.8905 -0.667456 0.0866671)
(9.70918 -1.07992 0.480651)
(12.0448 -1.12963 -0.809715)
(11.6228 -0.750637 -0.613624)
(11.5434 -0.147082 -0.0646998)
(9.13561 -1.78528 0.0079248)
(12.6472 -0.958199 -0.597876)
(10.6191 -0.218196 -0.00121457)
(10.2678 -0.56159 0.0497024)
(9.99634 -0.14619 0.00236141)
(12.7442 -1.39008 -1.2059)
(10.8609 -0.00408276 0.00356348)
(9.78568 -0.98773 -0.530607)
(11.2532 -0.264101 -0.0685961)
(10.158 -1.36098 0.468726)
(12.1176 -1.03118 -0.51614)
(10.1854 -0.036954 0.0116806)
(10.4301 -2.61745 0.0286525)
(10.5931 -0.211455 -0.0349785)
(10.773 -0.0811152 0.0383071)
(9.4767 -1.37467 0.441629)
(10.0919 -0.0571223 -0.0346444)
(12.9601 -1.679 -1.40681)
(10.2506 -0.0538583 0.0174918)
(10.0274 -0.0180291 -0.00833241)
(9.91545 -0.200058 -0.0153343)
(10.7777 -0.0337407 -0.02964)
(11.1408 -0.495308 -0.187806)
(12.4706 -1.43858 -1.09057)
(11.4108 -2.55854 -2.2908)
(10.0991 -0.287756 -0.0132015)
(11.6313 -1.56534 -0.71814)
(12.9703 -0.614826 -0.494804)
(10.892 0.0144123 -0.0424848)
(11.1835 -1.6657 -0.364487)
(12.6957 -2.73097 -0.296908)
(10.1968 -1.00014 0.207156)
(12.1726 -1.5298 -0.414732)
(9.89871 -0.655601 -0.152044)
(10.5644 -1.74419 -1.36551)
(10.7251 -0.0479796 0.00147217)
(10.6522 -0.757393 -0.373308)
(11.0164 -2.88526 -2.33792)
(10.633 -1.96153 -1.55748)
(11.6488 -0.545574 -0.107494)
(9.6986 -0.666275 -0.0923026)
(10.687 -0.804374 -0.598418)
(9.49107 -1.67316 -0.412235)
(10.3965 -0.0828245 0.0167279)
(10.3426 -0.0909379 -0.0174847)
(10.3135 -1.79816 -1.48346)
(10.1478 -0.0759565 -0.0226734)
(10.2126 -0.0553946 -0.0142982)
(9.91927 -2.37981 -1.68606)
(11.2663 -1.85644 -0.393027)
(9.32112 -3.14251 -1.50716)
(10.2194 -1.5426 -1.5193)
(10.0065 -0.855819 -0.619048)
(10.3473 -1.09203 0.203291)
(10.1415 -0.244182 -0.0572527)
(11.3689 -0.447367 -0.0530779)
(10.6679 -0.156184 -0.0574982)
(10.0355 -0.252185 -0.0366348)
(9.93235 -0.913584 0.237685)
(10.9339 -0.565111 -0.136415)
(9.85066 -1.06808 0.373065)
(10.0894 -0.746059 -0.522628)
(10.7913 -0.0329987 0.00403694)
(10.1089 -1.1716 -0.469208)
(8.65814 -1.75577 0.0627536)
(11.2012 -1.2358 0.0637019)
(12.5495 -1.08954 -0.766619)
(11.2618 -0.746713 -0.0143863)
(8.95326 -2.63616 -0.61568)
(10.5515 -0.61762 -0.102546)
(10.1066 -0.80406 -0.102958)
(9.56689 -3.93591 -2.39472)
(10.4902 -1.54241 -1.09521)
(11.6055 -0.658126 -0.0374115)
(9.49971 -0.697446 0.507185)
(10.7746 -0.0195405 0.0111157)
(10.8421 -0.00235125 0.00159307)
(10.2157 -2.17236 -1.29652)
(6.40372 -3.22665 -1.77962)
(10.5779 -0.0910213 0.0423257)
(10.0143 -0.278905 -0.0131512)
(10.5277 -0.109639 -0.00251202)
(9.9726 -0.276481 -0.0419525)
(11.4081 -1.963 -1.65055)
(9.97013 -0.217641 -0.00508005)
(11.931 -2.51383 -2.10994)
(12.5611 -2.25558 -1.70135)
(10.5262 -3.69915 -2.70406)
(12.0062 -3.14617 -1.72127)
(8.98595 -2.42872 -0.544456)
(12.6297 -3.54837 -1.4579)
(11.7833 -4.59663 -2.54603)
(10.3331 -0.102537 -0.00271512)
(10.4168 -0.0913828 0.0013725)
(10.1966 -0.101806 -0.00562142)
(10.1785 -0.0238099 -0.00427674)
(10.1226 -0.0662683 -0.0135278)
(10.2129 -0.0739259 0.0118419)
(10.8241 -2.29408 -1.43836)
(9.96725 -0.207239 -0.0112143)
(8.15608 -1.67645 0.614693)
(10.8112 -2.78408 -2.21686)
(10.739 -0.0786899 0.0208826)
(9.99897 -0.124549 -0.00140155)
(12.3058 -0.959033 -0.547027)
(10.1192 -0.180805 -0.0440649)
(9.96337 -0.236544 -0.00176782)
(10.4244 -2.57707 -1.28422)
(10.0393 -0.232455 -0.0131344)
(9.87245 -1.56159 -0.738312)
(9.87691 -0.735499 -0.388308)
(10.5453 -0.105519 0.00708857)
(10.5791 -0.0739585 -0.0276269)
(10.0334 -1.17198 -0.745418)
(10.5209 -0.210377 -0.025584)
(11.1785 -2.04933 -1.53352)
(10.9926 -1.88889 -1.44978)
(11.7373 -2.11018 -2.33523)
(9.59047 -0.849408 -0.147644)
(9.44873 -0.910519 0.337232)
(11.6002 -0.806688 -0.268788)
(11.8972 -0.843113 -0.392509)
(9.37292 -0.968221 0.431699)
(8.93477 -1.99532 -2.20203)
(12.0237 -0.697404 -0.231373)
(12.3571 -1.61946 -0.702388)
(9.53146 -1.55404 -0.800241)
(11.8319 -1.3961 -0.642222)
(12.1968 -1.59601 -0.712415)
(10.7898 -0.580959 -0.192751)
(9.9808 -0.341591 -0.00769033)
(9.89848 -0.513033 -0.0590174)
(10.721 -0.619712 -0.195583)
(10.6387 -0.641235 -0.203073)
(10.2273 -0.332341 -0.0807099)
(9.90707 -0.425345 -0.0171394)
(9.95384 -0.542222 -0.0704183)
(9.93697 -0.392595 -0.0157633)
(10.0298 -0.0278448 0.00167009)
(10.0241 -0.0208388 0.0150943)
(11.7094 -0.687449 -0.193432)
(12.3751 -1.31941 -0.84358)
(9.91434 -0.792592 0.119357)
(10.0983 -0.358731 -0.030429)
(10.1441 -0.332079 -0.00817395)
(10.2174 -0.27964 -0.0515515)
(10.1536 -0.422339 0.0026162)
(7.67394 -0.784374 -0.487659)
(10.0421 -0.585856 -0.199505)
(10.1122 -0.5172 -0.111522)
(11.6589 -2.91906 -0.934201)
(10.0732 -0.428356 -0.00849536)
(10.9066 -0.894002 0.215118)
(10.0551 -0.542438 -0.164485)
(10.6313 -0.863885 -0.209016)
(10.474 -0.199147 -0.0291468)
(12.7432 -0.521766 -0.411709)
(10.4279 -1.05642 0.350687)
(10.1828 -1.00721 0.414908)
(10.2394 -0.417336 -0.0737169)
(11.9059 -1.30239 -0.757395)
(10.5965 -0.181103 -0.0461892)
(9.75644 -0.345169 -0.0482058)
(10.8043 -0.180123 -0.0327259)
(9.68638 -0.369883 0.0907589)
(10.6732 -2.06157 -0.540592)
(12.5201 -0.499117 -0.4206)
(10.8893 -0.01133 0.00171909)
(10.8419 0.00193564 -0.0055564)
(10.8252 -0.55706 -0.121349)
(12.1583 -0.668569 -0.714457)
(11.9876 -1.15376 -1.12741)
(10.6158 -0.791785 -0.329289)
(10.6056 -0.254662 -0.0185465)
(12.564 -1.55548 -0.999263)
(11.1956 -0.4829 -0.0142296)
(11.6767 -1.01499 -0.83879)
(10.4627 -0.770081 -0.484484)
(10.2581 -0.435487 -0.0184748)
(7.55102 -2.29959 -0.21858)
(11.5465 -1.14598 -0.542784)
(10.3133 -0.898311 0.238729)
(9.57723 -5.62032 -1.75157)
(10.0159 -0.864585 0.394981)
(9.02672 -8.70421 -3.1725)
(12.9207 -1.05521 -1.12276)
(12.1142 -8.15455 -1.66739)
(12.2302 -2.0121 -2.18609)
(8.57002 -12.2964 -2.41511)
(10.3507 -0.897435 -0.517973)
(6.39775 -4.08509 -2.10323)
(1.17321 -5.57169 -2.67251)
(10.68 -1.34665 -0.750583)
(11.1388 -0.711583 -0.323225)
(11.5421 -0.776951 -0.438221)
(9.76946 -0.915982 0.00763515)
(9.29348 -2.03132 -2.16003)
(10.2683 -1.37338 -1.59956)
(9.29212 -1.6876 -0.813204)
(11.2825 -1.04299 -0.232784)
(5.7184 -3.44846 -1.25471)
(8.38184 -1.44933 -0.419481)
(11.3011 -1.88245 0.0732436)
(10.6412 -0.38809 -0.102043)
(9.97601 -1.47248 -0.153041)
(10.8045 -0.40588 -0.0989367)
(11.6692 -0.572039 -0.0751448)
(11.0411 -0.659522 -0.114351)
(11.0409 -0.900213 -0.293812)
(5.76358 -3.62996 -7.22534)
(10.4442 -2.62338 -2.15633)
(10.5587 -0.0376363 0.0067551)
(11.0026 -0.398506 -0.0806083)
(11.4804 -0.907041 -0.59262)
(6.07956 -3.24507 -3.22229)
(6.40291 -3.24704 -0.721161)
(11.0948 0.128841 -0.0546085)
(10.79 0.016963 -0.0400061)
(12.3735 -3.47037 -1.24457)
(10.8582 0.0154758 -0.0438192)
(10.1283 -0.0114636 -0.00337328)
(11.2218 0.13551 -0.0306489)
(10.5645 -2.58548 -3.29348)
(10.986 -1.92373 -0.794083)
(10.7875 -0.495462 -0.050485)
(8.53381 -2.16769 -1.87473)
(8.75536 -2.1191 0.0669032)
(11.347 0.10118 -0.181934)
(9.96258 -2.01339 0.105756)
(12.1907 -1.71315 -1.2715)
(3.19041 -4.54781 -3.54899)
(12.1512 -3.48224 -1.11951)
(11.4596 -2.347 -1.50452)
(8.20515 -4.8874 -0.289696)
(11.8575 -0.425762 -0.222469)
(10.7407 0.00305979 -0.00980274)
(10.9495 -0.568054 -0.0427113)
(9.95807 -0.509202 -0.0599746)
(10.2569 -0.287932 -0.0280397)
(12.4232 -3.07189 -0.693742)
(10.5198 -0.935888 -0.248141)
(4.48074 -4.92506 -0.133952)
(3.22106 -1.39938 -0.189358)
(6.42674 -6.58778 -4.18737)
(11.3682 -0.286894 -0.128862)
(10.92 -0.084571 -0.0214294)
(11.5286 -0.289522 -0.106936)
(10.0463 -0.246403 -0.029861)
(11.0415 -0.484194 -0.11421)
(8.92326 -1.11613 -0.612953)
(10.5465 -1.41183 -1.69905)
(11.0408 -0.25739 -0.0820475)
(8.65185 -5.52066 -1.42167)
(9.97224 -3.2894 -0.861121)
(11.3931 -0.808041 -0.767033)
(9.45599 -4.83677 -2.70973)
(9.418 -1.23106 0.39624)
(4.92791 -6.4629 -2.07195)
(10.2865 -0.396944 -0.0431326)
(10.6569 -0.890583 -0.767662)
(11.2019 -1.53853 -1.59391)
(12.1223 -0.161623 -0.21968)
(11.1679 -0.168284 -0.0179555)
(11.2141 -0.299281 -0.0579222)
(8.76606 -2.15976 -0.628999)
(10.6055 -1.9236 -0.915069)
(10.9939 -0.0258798 -0.0232839)
(10.6854 -1.75569 -0.968309)
(10.6489 -1.74994 -0.645934)
(11.0443 0.0243091 -0.073234)
(9.03393 -2.99454 -3.33566)
(11.2908 -0.304479 -0.0782224)
(5.47612 -0.427321 -2.70404)
(9.82608 -0.906986 -0.60215)
(11.3652 -0.381329 -0.143)
(11.1809 0.150132 -0.115661)
(11.5151 -0.48302 -0.166423)
(10.96 -1.08869 -0.253412)
(12.5447 -3.26838 -2.69215)
(2.32878 -6.77227 -3.35515)
(11.8953 -1.10228 -0.587119)
(10.0438 -0.880554 -0.20645)
(9.97359 -0.983439 -0.209748)
(10.9183 -0.00445637 -0.0308621)
(10.2385 -0.708978 -0.357591)
(9.59317 -0.950664 0.244158)
(11.3209 -0.0852827 -0.104092)
(10.6423 -0.0415633 -0.0217833)
(11.0682 0.0768288 -0.0328345)
(10.2244 -5.31563 -0.884451)
(10.4826 -1.66541 -1.73266)
(10.5918 -0.721682 -0.0376797)
(9.89563 -0.810189 -0.212428)
(10.1785 -0.108815 -0.0170222)
(11.183 -0.185758 -0.0703876)
(11.581 -1.81378 -1.06881)
(9.62726 -0.644264 -0.320389)
(12.5121 -0.614404 -0.258895)
(10.8171 -3.05424 -0.854573)
(9.83335 -0.895303 -0.277585)
(10.6347 -2.9966 -3.30621)
(11.2046 0.0853058 -0.128634)
(11.4211 -0.609687 -0.250516)
(10.0417 -0.812401 -0.222581)
(9.46525 -1.11024 -0.976488)
(9.25523 -1.34587 -0.53598)
(11.09 -0.751361 -0.401695)
(11.7919 -1.18886 -0.6213)
(11.2143 -0.727695 -0.359603)
(10.81 -0.035582 -0.0249471)
(10.7326 -0.184805 -0.0294484)
(10.7042 -0.22338 -0.0288827)
(3.12734 0.485737 -0.833878)
(8.54206 -3.82573 -2.36501)
(2.62955 -5.52269 -3.72232)
(10.6671 -0.313915 -0.0618678)
(9.9106 -1.35388 -0.197974)
(9.93738 -1.24964 -0.18317)
(9.82377 -1.08743 0.18728)
(10.0642 -0.855601 0.025948)
(11.3108 -0.167155 -0.0791422)
(12.6153 -1.3931 -0.952124)
(11.264 0.0401121 -0.00163534)
(11.223 0.0636151 -0.0124738)
(11.0863 0.149562 0.00994312)
(10.2212 -1.21689 0.185008)
(9.95333 -0.367728 0.0496085)
(10.0768 -0.505142 -0.138404)
(10.605 -0.863838 0.00440003)
(10.2235 -1.10023 0.0194687)
(10.1592 -0.381351 -0.0155436)
(10.5274 -1.0123 -0.026981)
(11.2926 -0.416755 -0.0884233)
(11.1964 -0.0585937 -0.0510794)
(11.181 0.0423188 -0.104994)
(10.8545 -0.0209186 -0.0295009)
(11.0586 -0.00439076 -0.0300213)
(10.959 -0.0190677 -0.046835)
(10.8016 -0.726673 0.0589651)
(11.2348 -0.436606 -0.0937684)
(10.7905 -0.573041 -0.000612275)
(11.6646 -2.25672 -1.68828)
(10.8388 -0.838997 -0.485552)
(11.3499 -2.55906 -1.92533)
(10.2456 -1.08069 -0.241028)
(7.9966 -2.72791 -0.602271)
(11.0319 -0.0198446 -0.01674)
(11.0565 -1.13948 -0.711209)
(12.1063 -1.73876 -1.55087)
(11.3763 0.0680794 0.00585098)
(12.5241 -0.567143 -0.608813)
(11.4573 -0.100092 -0.110522)
(13.0281 -1.38522 -1.11088)
(11.1834 -1.25049 -0.381111)
(0.459606 -1.25752 0.370783)
(8.36632 -3.58606 -2.93337)
(9.88649 -0.666099 -0.288706)
(10.2736 -0.653333 0.0685256)
(9.34169 -2.54079 -1.34603)
(11.1213 -0.864445 -0.22719)
(9.7373 -0.658708 -0.0379342)
(11.3042 -1.00055 -0.712553)
(8.38323 -1.91467 -0.756675)
(9.84033 -0.272729 0.0127679)
(11.2383 -0.231096 -0.0733575)
(10.9857 -5.58909 -1.35306)
(11.2256 -0.608497 0.015377)
(11.3504 -1.21525 -0.322188)
(9.92466 -0.642721 0.0180477)
(11.7738 -2.49297 -0.18559)
(11.8416 -0.0322208 -0.246593)
(11.7443 -0.280344 -0.205906)
(10.2267 -0.0490768 0.00527682)
(1.51638 -7.75686 -2.38746)
(10.3776 -0.775681 0.176322)
(11.3975 -0.0113149 -0.0183355)
(11.4278 0.00752017 -0.0780891)
(10.6722 -0.750069 0.092872)
(11.4899 -0.318486 -0.106305)
(10.1509 -0.0868177 -0.0285292)
(9.672 -1.11255 0.0560589)
(10.4641 -0.369253 -0.0712817)
(11.268 -0.0190777 0.000882724)
(11.4538 -0.205229 -0.0930148)
(9.14186 -1.74704 0.390816)
(10.9739 -0.586098 -0.0506795)
(9.73334 -2.03595 -2.0335)
(10.4587 -0.0821628 0.00339601)
(11.4048 -0.0491605 -0.0311927)
(11.1866 -0.0641384 0.00441326)
(9.97189 -0.252944 0.00834397)
(10.4722 -0.822561 -0.371433)
(10.2466 -0.591965 -0.233351)
(8.81553 -1.64073 0.0114504)
(10.4921 -1.47019 -0.0732853)
(10.8809 -0.0620816 -0.00290172)
(10.1734 -0.309214 -0.0158994)
(10.136 -0.333185 0.00605305)
(10.6587 -0.891763 0.193391)
(10.7558 -0.343254 0.0009207)
(10.1046 -0.562291 -0.163423)
(10.9704 -0.744918 -0.38945)
(11.3274 -0.632387 -0.00951878)
(11.5261 -0.11368 -0.0972366)
(9.38226 -1.3392 0.723367)
(10.4925 -0.667571 -0.256239)
(11.1517 -0.106322 0.000425657)
(9.9107 -0.770088 0.414148)
(10.3238 -1.16487 0.443823)
(11.0065 -2.36886 -0.175324)
(10.2328 -2.27085 0.0597863)
(11.1003 -2.08788 -0.402785)
(11.2748 -0.819016 -0.0476035)
(9.97286 -0.586551 0.16615)
(5.75148 -6.89372 -0.596407)
(9.18299 -6.08247 -1.38554)
(12.3601 -3.16687 -0.915862)
(11.7368 -1.36844 -0.428467)
(7.68991 -3.80544 -1.28859)
(10.4501 -2.4227 -0.774226)
(11.3336 -0.122797 -0.0721802)
(10.0826 -1.68714 0.341741)
(11.1456 -1.62961 -0.947767)
(11.8484 -2.26649 -0.575277)
(9.61896 -0.726963 0.116346)
(9.23217 -1.03192 -0.144492)
(10.5915 -0.423133 -0.0316301)
(9.20971 -1.29008 0.198821)
(10.8403 -0.0245988 -0.0245108)
(10.3969 -1.54044 -0.262004)
(9.1708 -1.94793 -0.308774)
(10.5276 -1.75384 -0.95468)
(10.4584 -0.9944 -0.0462014)
(8.07115 -3.96349 -0.579083)
(12.6837 -1.22323 -0.669088)
(1.09839 -5.30634 -0.710914)
(11.8153 -0.871127 -0.280822)
(11.7202 -0.973497 -0.299608)
(12.4609 -0.303497 -0.377287)
(12.4249 -0.708665 -0.488793)
(12.9095 -0.804341 -0.592396)
(12.8263 -0.957657 -0.674877)
(12.9656 -0.941474 -0.776759)
(10.1207 -0.254298 -0.0436758)
(10.1758 -0.2177 0.00235868)
(12.6391 -1.47995 -0.733036)
(10.1272 -0.209864 0.014109)
(10.2457 -0.700574 -0.455051)
(10.3724 -0.533445 -0.241656)
(10.4684 -0.578217 -0.178763)
(12.5652 -3.87056 -3.12178)
(11.9355 -1.45145 -0.756791)
(12.2582 -1.14735 -0.574713)
(10.767 -1.50416 -0.680537)
(12.6495 -1.05733 -0.775933)
(10.3782 -0.0944372 0.00776892)
(10.5093 -0.0657477 -0.00541365)
(10.4787 -0.161248 -0.0111096)
(10.4046 -0.16376 -0.00602655)
(12.5843 -1.11142 -0.920372)
(11.0924 -0.19985 -0.0700834)
(11.7198 -1.19217 -0.849601)
(11.7986 -0.791265 -0.474371)
(9.41775 -2.22247 -1.81163)
(10.3632 -1.18718 -0.290981)
(10.4517 -0.983102 -0.323271)
(10.3121 -1.20109 -0.532044)
(10.3797 -1.25168 -0.575865)
(12.3752 -2.48753 -0.760545)
(10.4678 -0.102111 0.0054005)
(12.7377 -2.07399 -0.672999)
(12.2678 -0.668665 -0.60435)
(9.34625 -1.59599 0.334076)
(9.51592 -1.27077 0.69176)
(10.1099 -0.867491 0.264011)
(11.3128 -0.203012 -0.0958923)
(10.3839 -4.03272 -2.45244)
(11.1386 -3.27363 -1.73318)
(10.228 -3.29782 -1.42249)
(10.7282 -1.62015 -1.8347)
(11.0641 -0.215349 -0.00954858)
(11.0049 -1.54466 -1.32958)
(8.47441 -3.59871 -4.86075)
(11.3642 -0.201772 -0.113297)
(9.43678 -1.60527 0.185219)
(10.0678 -2.01492 -2.15594)
(12.4975 -1.69944 -1.43353)
(10.0964 -0.85636 0.114031)
(12.3333 -1.54784 -1.20125)
(12.7616 -1.40819 -1.29586)
(11.216 -0.806907 -0.176804)
(11.9244 -1.38671 -1.09883)
(12.1587 -1.52992 -1.48165)
(9.25586 -1.71646 0.322377)
(10.7754 -0.884379 -0.69523)
(11.1128 -0.752227 -0.443715)
(11.1897 -0.755689 -0.481542)
(11.1297 -0.669317 -0.345583)
(11.2465 -0.701042 -0.388424)
(9.30432 -1.78129 0.157219)
(9.0211 -1.95568 0.0513149)
(9.98295 -0.376541 0.0137411)
(11.2724 -0.503493 -0.188415)
(11.1801 -0.582296 -0.188946)
(8.15007 -3.8181 -0.222985)
(9.47029 -1.51509 0.15619)
(10.0823 -0.299615 0.00359613)
(10.3359 -0.789144 0.133818)
(11.1405 -0.722434 -0.238205)
(11.073 -0.749214 -0.234547)
(9.93291 -1.80749 0.0736971)
(10.336 -2.03398 -0.0533626)
(10.9804 -0.684813 -0.206476)
(10.4874 -0.69869 -0.167955)
(10.8556 -0.686129 -0.1471)
(11.9931 -1.32674 -0.142589)
(10.1684 -0.50694 0.0324789)
(10.801 -0.912849 -0.0636055)
(11.3996 -1.17483 -0.245786)
(8.64412 -1.35106 0.538955)
(10.9527 -0.923187 -0.183275)
(12.8364 -1.34682 -1.03934)
(10.8125 -0.943306 -0.133157)
(13.007 -1.54565 -1.22263)
(12.7951 -1.56907 -1.44823)
(13.1697 -1.23414 -0.941007)
(11.1909 -0.712399 -0.427483)
(4.48167 -6.77044 -0.619475)
(9.46948 -1.02377 0.090453)
(10.3952 -1.16429 0.212817)
(7.4829 -6.98632 -0.684512)
(11.2603 -0.0775393 -0.0503616)
(11.7633 -0.75992 -0.195893)
(11.2747 -0.461217 -0.038606)
(10.3631 -0.359571 0.0113917)
(11.3503 -0.594662 -0.236545)
(11.251 -0.578319 -0.241682)
(10.1287 -1.08314 -0.0669533)
(11.1442 -0.539874 -0.128726)
(11.1929 -0.492486 -0.116806)
(11.1082 -1.14464 -0.051549)
(11.3508 -0.534895 -0.179793)
(11.566 -0.328998 -0.041526)
(11.4905 -0.228614 -0.0286942)
(10.6961 -0.783087 -0.0728079)
(10.6474 -0.697201 -0.0846331)
(10.7652 -0.712105 -0.168067)
(10.6477 -1.08775 -0.160281)
(8.07975 -2.38558 -0.226872)
(12.6903 -0.816369 -0.288014)
(10.6755 -0.939108 -0.964961)
(12.9608 -2.40906 -2.14621)
(8.41073 -2.97554 -1.38939)
(12.5911 -2.06495 -1.85389)
(11.0761 0.0846789 -0.00812441)
(11.0491 0.0395613 -0.018041)
(10.9222 -0.89128 -0.0140689)
(9.60173 -0.748698 0.317817)
(11.0673 0.0871204 -0.00902772)
(10.7912 0.0378868 -0.0102984)
(10.8382 0.0177498 0.00400541)
(10.985 0.0573639 -0.00583726)
(5.9925 -5.82463 -3.10341)
(6.93917 -4.01857 -1.95967)
(6.30805 -4.60185 -2.32095)
(10.1013 -1.1987 -1.12169)
(1.26961 -3.65335 -6.09418)
(11.3035 -0.203736 -0.080375)
(11.3628 -0.646192 -0.0576075)
(10.1462 -1.04227 -0.180055)
(11.2189 -2.50431 -0.205971)
(10.494 -0.364654 -0.095404)
(10.5645 -0.237238 -0.0135084)
(10.5058 -0.256067 0.00966237)
(10.5735 -0.344678 -0.0389667)
(10.1326 -0.204332 -0.043175)
(10.1103 -0.187533 -0.0168845)
(10.137 -0.233337 -0.0559925)
(10.0955 -0.197525 -0.0337581)
(8.84649 -3.76061 -4.62404)
(9.224 -3.07147 -3.9454)
(9.79065 -2.34974 -2.19929)
(9.87318 -2.73741 -2.84581)
(11.1879 -0.363949 -0.145194)
(11.0053 -0.500607 0.0101392)
(10.4667 -0.715533 -0.043494)
(10.4203 -0.696072 -0.149774)
(10.1176 -0.877385 -0.387666)
(9.31839 -0.831546 -0.411491)
(9.44703 -0.737657 -0.347336)
(10.0047 -0.530657 -0.267933)
(11.842 -1.51936 -0.0968564)
(12.4688 -0.906105 -0.589285)
(9.83271 -2.68465 -0.0202986)
(10.2521 -2.55239 0.0357783)
(9.92138 -0.670055 -0.0776297)
(9.85671 -0.84779 -0.114412)
(9.8597 -0.749279 -0.122833)
(9.81741 -0.843544 -0.149063)
(8.20133 -2.70047 -0.211452)
(8.57997 -2.48849 -0.059172)
(9.87046 -1.02294 -0.496772)
(9.90614 -0.798879 -0.33708)
(10.8642 -3.94069 -0.225721)
(9.92122 -3.55698 -0.242608)
(11.431 -1.33627 -1.09476)
(10.5088 -4.47225 -0.175797)
(11.1612 -3.98697 -0.779563)
(10.4712 -2.78546 -0.47898)
(11.85 -0.853458 -0.22469)
(11.3514 -1.866 -0.851375)
(10.7064 -2.38768 -0.859959)
(10.7994 -1.97894 -0.392473)
(11.0037 -1.65511 -0.528328)
(10.899 -0.920144 -0.0687005)
(10.8335 -1.3077 -0.40653)
(10.6143 -1.95642 -0.330034)
(7.74567 -3.56917 -1.22214)
(6.65234 -4.02253 -0.814968)
(7.67242 -3.17063 -0.6876)
(10.5346 -0.46541 -0.0420181)
(6.80617 -3.61032 -0.524247)
(10.842 -0.17575 -0.0369937)
(10.9762 -1.73844 -0.0559748)
(11.335 -1.18555 -0.376859)
(11.1571 -1.13545 -0.178066)
(11.4583 -1.66621 -0.254775)
(11.4738 -1.31185 -0.353131)
(10.6361 -0.377112 -0.0170926)
(10.2057 -0.687616 -0.153414)
(10.1988 -0.744386 -0.199439)
(10.2858 -0.883089 -0.287293)
(10.1758 -0.93518 -0.256479)
(10.3815 -0.639352 -0.148195)
(10.3002 -0.749415 -0.22043)
(9.76194 -1.71547 -0.719416)
(10.6705 -0.467446 -0.0566232)
(9.74585 -1.77472 -0.861443)
(9.48786 -2.22947 -1.05436)
(9.13158 -2.42863 -0.645681)
(11.631 -1.42698 -0.408783)
(11.5099 -1.52746 -0.471341)
(10.8461 -1.72115 -0.574684)
(11.0254 -0.749889 -0.415925)
(9.93193 -0.169758 -0.00928497)
(10.8963 -0.703968 -0.38078)
(9.79841 -0.971821 -0.0813361)
(9.91056 -0.27195 -0.00342062)
(9.86551 -0.233628 -0.0396685)
(12.6703 -2.22983 -1.12089)
(9.86891 -0.19684 -0.028251)
(9.85088 -0.252593 -0.0485355)
(9.81664 -0.334111 -0.0282343)
(11.1128 -2.03041 -0.935911)
(9.56574 -0.56864 0.201282)
(10.5789 -0.114558 0.0106663)
(9.71383 -0.543175 0.12446)
(9.92812 -0.675973 0.362019)
(10.1206 -0.088783 0.0191458)
(11.1527 -0.498684 -0.0290913)
(9.84722 -0.672362 0.121706)
(10.3746 -0.31578 -0.0248367)
(9.81465 -0.435747 0.0941515)
(11.6431 -2.19574 -1.48122)
(10.4309 -0.0248138 -0.00924071)
(9.68412 -0.477327 0.0893838)
(9.91154 -0.23687 -0.0271898)
(10.0892 -0.17024 0.0140359)
(11.5057 0.0256941 -0.205495)
(11.1575 -0.304383 -0.0432481)
(10.9305 -0.658848 -0.413172)
(10.2523 -0.0451399 0.0278313)
(10.36 -0.76399 -0.227669)
(10.6508 -0.255175 -0.0592267)
(10.2091 -0.356593 0.00426934)
(10.3168 -0.369365 -0.00494371)
(10.2047 -0.430702 0.0135738)
(10.5777 -0.227434 -0.0672446)
(10.0404 -0.0128266 -0.0110707)
(9.81739 -0.369517 0.0587237)
(10.7223 -0.488752 0.0423454)
(11.2815 0.0944541 -0.118331)
(10.5647 -0.212818 -0.00168378)
(10.1947 -0.785816 0.0323707)
(9.31864 -2.38725 0.0721664)
(10.6068 -0.0635391 0.0191676)
(10.9378 -0.802403 -0.455797)
(11.1475 -0.750393 -0.584443)
(10.3332 -0.615708 -0.23518)
(10.2807 -0.763982 -0.245926)
(10.3511 -0.615709 -0.230259)
(10.3213 -0.584094 -0.216268)
(10.5014 -0.386455 -0.074784)
(10.5497 -0.417215 -0.0954135)
(10.3711 -0.520786 -0.138858)
(10.5171 -0.513173 -0.151303)
(10.1053 -0.230823 -0.0484025)
(10.0319 -0.278553 -0.0548776)
(10.8528 -0.295095 0.00235341)
(11.2011 -0.0779601 -0.0365508)
(11.4755 0.0096975 -0.017368)
(11.267 -0.0313387 -0.0642888)
(10.7882 -0.0324285 0.00439551)
(9.07666 -2.05668 -2.33165)
(10.2153 -0.249249 -0.0530476)
(10.8871 -0.490011 -0.0640186)
(10.1626 -0.12612 -0.00633944)
(11.3031 -0.7015 -0.293334)
(10.179 -0.238576 -0.0486957)
(11.0875 -0.261996 -0.124578)
(10.2028 -0.204752 -0.0311044)
(9.13361 -2.157 0.446116)
(8.81904 -2.91886 -1.23817)
(9.97549 -0.144733 -0.00850006)
(11.2643 -1.29497 -0.336705)
(12.0234 -1.73183 -0.399966)
(12.5409 -2.70183 -2.62457)
(12.5035 -2.90826 -0.952428)
(5.10209 -4.96778 -3.24152)
(11.3315 -2.88943 -1.01662)
(9.27213 -1.30416 0.310145)
(8.97107 -1.32902 0.652111)
(11.2254 -0.564535 -0.0741168)
(9.90122 -2.01219 0.0782342)
(10.6521 -0.0903803 0.0156656)
(9.9295 -0.926621 0.194242)
(10.2484 -0.540388 -0.0515757)
(11.4526 -1.81627 0.0576531)
(11.0666 -0.0337819 -0.0419637)
(11.2903 0.0489512 -0.0511245)
(9.78163 -0.43171 -0.11399)
(10.4064 -0.522383 -0.101246)
(10.281 -0.382863 -0.0757611)
(9.99127 -0.57682 0.186953)
(10.3437 -0.0416821 0.0384332)
(10.8184 -0.341677 0.0153972)
(10.9014 0.038888 -0.0422048)
(11.7358 -2.84799 -1.45007)
(11.0286 0.0782825 -0.0566571)
(10.7854 0.0279184 -0.0056726)
(11.2997 -0.251701 -0.0786567)
(11.6955 -0.0211261 -0.128064)
(12.3283 -1.36771 -0.371782)
(12.1781 -1.78925 -0.286321)
(10.3267 -0.0216091 0.0056997)
(12.2427 -1.23882 -1.00166)
(10.2096 -0.960387 0.286717)
(10.8579 -0.940891 0.221189)
(9.88419 -0.691211 0.249469)
(12.4706 -2.99872 -1.19364)
(10.4297 -0.406998 -0.00851498)
(9.99328 -0.717709 0.242244)
(10.6872 -0.38239 -0.0138176)
(10.5945 -1.03681 0.236348)
(10.5779 -0.347086 -0.0195679)
(12.17 -2.24605 -1.84516)
(11.0115 -0.0550669 -0.0187542)
(11.0542 0.00445264 -0.0270306)
(10.0174 -0.775443 0.298356)
(10.9981 -0.0698705 -0.0402473)
(10.9339 -0.0298197 -0.0343283)
(10.06 -0.668656 0.169924)
(9.84398 -0.607953 0.232882)
(10.0754 -0.362901 0.0188135)
(6.61087 -6.72228 0.0650784)
(10.7446 -2.12306 -0.981745)
(11.8732 -6.1832 -0.592979)
(10.2249 -0.468606 -0.0687818)
(9.63835 -0.884781 -0.674499)
(10.668 -0.000330173 -0.019474)
(10.2344 -0.220442 -0.0456375)
(10.2435 -0.53739 0.0292526)
(9.77282 -0.694473 0.0961599)
(9.54445 -0.734418 0.570982)
(9.92223 -0.606498 -0.119929)
(9.9739 -0.304715 0.00794413)
(10.1949 -0.393579 -0.0926449)
(8.44976 -1.89227 0.0470788)
(9.57334 -1.07861 0.378067)
(9.77524 -0.951721 0.607721)
(10.3897 -0.489519 -0.132591)
(10.0881 -0.911949 0.330744)
(12.5142 -1.34949 -1.26311)
(10.5407 -0.929919 -0.327555)
(11.3716 -1.08028 0.00594648)
(12.2202 -2.56953 -0.304777)
(11.9621 -1.49198 -0.0733418)
(9.49929 -1.39643 -1.35428)
(10.2105 -1.40895 0.0590688)
(11.1954 -0.114208 -0.00446485)
(10.3152 -0.791957 0.108548)
(10.7922 -0.438444 -0.0505114)
(11.1742 0.119233 -0.00142069)
(12.653 -0.46939 -0.293529)
(12.0828 -0.745937 -0.38149)
(10.2774 -0.505115 -0.0369676)
(12.8751 -1.92635 -0.688076)
(11.6613 -3.91693 -0.870414)
(10.2901 -3.05066 -2.41011)
(1.51391 -6.6658 -0.197748)
(11.2618 -0.724052 0.0792873)
(11.1889 -0.830964 0.0576354)
(10.4189 -0.494607 0.031004)
(10.533 -1.07686 0.373126)
(10.8678 -0.146123 -0.0187576)
(0.251425 -9.11626 -3.59781)
(11.7101 -0.411035 -0.15979)
(12.804 -1.01345 -0.640684)
(12.7726 -1.75262 -1.00346)
(12.1252 -2.22237 -2.49062)
(11.3994 -1.31427 -0.932217)
(11.2718 -0.202274 -0.0700696)
(8.88874 -1.43567 0.156268)
(9.94246 -0.32154 -0.0925838)
(10.1989 -0.277013 -0.0534737)
(11.7403 -4.49638 -1.97973)
(9.29001 -3.30162 -0.192317)
(1.42432 -5.88816 -5.41588)
(9.63406 -0.850078 0.0738661)
(9.67112 -0.819456 0.125621)
(10.173 -0.537072 0.029784)
(9.78334 -1.54372 0.191035)
(9.30633 -2.38947 -0.249694)
(10.8261 -0.614561 -0.246998)
(11.2846 -1.23585 0.0562563)
(10.9437 -0.905717 -0.300181)
(10.3886 -1.4789 -0.786829)
(12.6055 -1.21842 -0.920123)
(11.5432 -0.219005 -0.106569)
(11.3579 -1.53449 -0.913332)
(10.9408 -1.12231 -0.152961)
(10.5963 -3.60338 -0.145796)
(9.88585 -4.11831 -0.614175)
(10.7737 -0.202632 -0.00683202)
(6.13154 -7.18893 -1.62814)
(10.3233 -0.786002 -0.503277)
(10.3291 -0.15062 -0.0112761)
(10.1833 -0.160838 0.000348205)
(10.1417 -0.100273 0.00159508)
(10.2188 -2.75357 -0.701001)
(10.3329 -0.0416033 0.0316437)
(10.3332 -0.0851602 0.00305376)
(10.0895 0.00227219 0.0019155)
(12.6748 -1.62115 -1.20118)
(11.1122 -1.53672 -1.53924)
(9.90321 -0.369657 -0.060466)
(11.1051 -0.0132106 -0.0625562)
(11.033 0.0450987 -0.0416788)
(11.0141 -0.159359 -0.0207831)
(10.0913 -0.0500729 0.00247851)
(10.7242 -0.0425382 -0.0100942)
(10.2993 -0.154873 0.0198429)
(10.059 -0.108638 0.000123356)
(12.8959 -1.3439 -0.492296)
(8.61626 -4.78942 -2.53631)
(11.2549 -2.41479 -1.71919)
(1.50177 -4.22812 -4.79718)
(10.6925 -0.0826867 0.0201472)
(12.5559 -0.842919 -0.492135)
(11.057 -0.0601992 -0.0314849)
(11.0837 -0.0653381 -0.0529207)
(11.0801 -0.0528963 -0.040634)
(11.0951 -0.0433426 -0.0536163)
(11.156 -0.342707 -0.0262485)
(11.1121 -0.215734 -0.0253015)
(10.9887 -0.299565 -0.0255694)
(9.83933 -0.389057 0.0737706)
(10.9315 -0.402289 0.0204562)
(10.9826 -0.777227 -0.0139902)
(11.132 -0.176196 -0.0536532)
(12.326 -1.65303 -0.252379)
(9.93305 -0.175027 -0.0140449)
(10.1276 -0.966697 -0.364762)
(11.0168 -0.245616 -0.0361903)
(11.062 -0.306886 -0.03076)
(12.2556 -1.38575 -0.247645)
(10.1449 -1.03101 -0.455911)
(10.5673 -1.10269 -0.008965)
(9.90219 -0.529671 0.113503)
(9.95016 -0.306607 -0.0773816)
(9.92519 -0.31834 -0.0990091)
(8.69033 -1.2745 -0.404088)
(10.7403 -1.28568 -0.316409)
(9.91387 -0.416927 0.0364932)
(11.059 -0.575614 -0.204335)
(10.6212 -0.832728 -0.271044)
(10.1167 -0.713213 -0.286577)
(7.0642 -4.99324 -1.96128)
(10.7626 -1.75541 -2.31596)
(9.95039 -1.34487 -0.151022)
(9.71079 -0.733321 -0.0758319)
(10.2012 -0.490729 0.0378336)
(10.0758 -0.434927 0.0166194)
(9.83511 -1.26279 -0.13892)
(8.7928 -1.52615 0.153349)
(9.82504 -0.858571 -0.540251)
(10.5676 -0.478507 -0.0285776)
(11.2275 -0.855568 -0.738756)
(9.82706 -0.373985 -0.0437274)
(10.9267 -1.12458 -0.691173)
(9.80903 -0.590141 -0.0092743)
(9.93227 -0.506299 0.0624757)
(10.1091 -3.11733 -3.70429)
(6.60697 -4.56094 -0.883238)
(8.82628 -0.513951 0.0100744)
(9.97703 -0.41048 -0.000254404)
(10.1087 -0.304568 -0.0406456)
(10.4175 -0.0432591 0.0157466)
(10.8036 -0.445421 0.00282411)
(10.1414 -0.953767 -0.467302)
(9.86532 -1.6977 0.0603183)
(11.3314 -0.684657 -0.368511)
(10.0214 -0.564428 -0.236374)
(11.5641 -1.17986 -0.304572)
(10.5222 -0.0408115 0.0269468)
(9.81072 -2.17268 -1.47694)
(9.39343 -2.03492 -1.94188)
(10.1868 -0.372944 -0.0258847)
(11.5081 -2.65039 -0.765267)
(11.2472 -0.252548 -0.0587442)
(9.67238 -0.810556 -0.527883)
(10.1932 -0.029749 0.0126521)
(9.8756 -0.162091 0.0041064)
(10.6227 -0.62703 -0.0836786)
(11.0621 -2.18242 -1.05601)
(11.0611 -0.287573 -0.0503226)
(11.5078 0.0765521 -0.187479)
(7.5368 -3.91117 -4.18535)
(11.432 -1.78207 -0.397576)
(11.4301 -1.16616 -0.379381)
(11.2068 -0.431614 -0.14471)
(10.4806 -2.18358 -0.163754)
(4.82703 -9.62088 -1.39722)
(10.0033 -1.99011 -0.92171)
(8.82046 -2.19413 0.15236)
(10.0574 -0.429974 -0.0897332)
(9.14068 -7.93897 -5.16883)
(11.4591 -0.456421 -0.221585)
(10.0331 -0.167776 0.00153546)
(4.7637 -4.22573 -3.79747)
(9.40364 -2.83704 -1.72231)
(11.5472 -0.953196 -0.333506)
(11.2232 -0.658333 -0.316526)
(10.5969 -0.751901 -0.323362)