/*--------------------------------*- C++ -*----------------------------------*\
| =========                 |                                                 |
| \\      /  F ield         | OpenFOAM: The Open Source CFD Toolbox           |
|  \\    /   O peration     | Version:  2506                                  |
|   \\  /    A nd           | Website:  www.openfoam.com                      |
|    \\/     M anipulation  |                                                 |
\*---------------------------------------------------------------------------*/
FoamFile
{
    version     2.0;
    format      ascii;
    arch        "LSB;label=32;scalar=64";
    class       volScalarField;
    location    "0.0207921";
    object      p;
}
// * * * * * * * * * * * * * * * * * * * * * * * * * * * * * * * * * * * * * //

dimensions      [0 2 -2 0 0 0 0];

internalField   nonuniform List<scalar> 
3919
(
0.231006
0.411834
0.275135
-0.0290208
0.0243948
0.419568
0.0065786
0.897812
0.935863
0.20387
0.322648
-0.183106
0.117049
0.312359
0.166475
0.215453
0.123408
-0.239808
0.218433
0.0238473
0.581783
0.219636
0.127707
0.263205
0.640419
-0.049865
0.77394
0.792312
0.919296
1.50367
0.0569735
0.147732
0.320086
0.357839
0.265807
0.0539455
0.419525
0.598414
0.480593
0.996122
-0.0562822
-0.0806112
-0.234527
0.82854
-0.128043
0.802636
-0.39537
0.368078
0.105524
0.0328179
0.385457
0.367813
1.1856
0.1331
-0.470393
0.34538
-0.446068
0.395608
0.40344
0.130508
2.18437
0.0232348
0.196712
0.207086
-0.0304273
0.131115
0.862047
0.456558
0.241576
0.19657
0.820195
-0.242195
0.127632
0.370884
1.47714
0.418425
-0.598328
-0.189487
0.451483
0.135779
0.103233
-0.589444
0.61909
0.783965
0.398116
0.0738829
0.564248
-0.195011
0.397007
-0.0356701
0.235277
0.268631
0.703078
0.394494
0.0508139
0.309709
-0.0579494
1.5403
0.241244
0.0981162
0.283059
0.0791647
0.474186
0.0646768
0.441996
-0.0197657
-0.641054
0.623253
0.413266
0.321309
0.387254
0.833326
0.0566624
-0.224634
0.848409
0.794355
0.218441
1.13554
0.574245
0.210696
0.756052
0.838227
0.972855
0.388509
0.453158
0.417335
0.854045
0.219551
0.163945
0.240362
0.45696
0.195218
0.268065
-0.249988
0.987269
0.728187
-0.0958295
0.0286926
-0.10332
0.412404
-0.0798711
0.180129
-0.408651
0.0676282
0.831522
0.278569
0.169551
0.0305274
0.318038
-0.0655719
0.0856449
0.272638
0.325074
-0.0885273
0.643514
0.366542
0.292322
-0.0882356
0.0313406
0.149716
0.100929
-0.0604582
0.289696
0.504364
0.301668
0.051902
1.30717
0.591462
0.212651
0.0185775
-0.233148
0.596159
-0.22325
0.487559
-0.0413305
1.08826
-0.0521558
0.688153
1.48178
0.541872
0.272172
-0.179612
-0.167785
0.0233455
0.904389
0.808359
0.0658191
0.481436
0.158071
0.210386
0.301309
0.0222946
0.0689728
0.124467
0.479983
1.0804
0.285621
0.579628
0.514505
0.0846844
0.164447
-0.104633
0.543891
-0.128358
0.643859
0.614289
1.15652
0.392631
0.842922
0.958671
0.575887
0.463308
0.204468
0.0530738
0.82683
0.325266
0.244793
-0.266915
0.670436
0.0506262
-0.93907
-0.114691
0.28386
0.0057142
0.150993
0.736553
0.174498
0.790472
0.117465
1.46967
-0.0563572
0.705244
0.117427
0.429678
0.36064
-0.0385739
0.347489
0.255137
-0.00368894
0.809925
0.0753383
0.860778
0.93749
0.883297
0.0672341
0.168383
0.506399
0.683044
1.23201
0.725686
0.518794
1.23447
0.0716451
0.341921
0.738608
1.0259
-0.0889269
-0.332126
-0.0315246
1.06443
0.0473687
0.574604
1.28452
1.69783
1.00699
0.765521
1.60427
0.29039
-0.0591801
0.553273
0.141822
0.526032
0.494214
-0.031561
0.774756
0.00772072
0.896449
0.672834
0.186435
0.0858068
1.01938
0.410115
1.08583
0.439945
0.666319
1.58923
-0.286716
1.38917
1.43939
-1.01311
-0.248232
0.429074
0.973074
0.687243
0.773313
1.65074
0.254356
0.323689
0.372349
1.07734
1.30533
0.360035
0.258224
0.16977
0.862017
1.13089
0.181572
0.367452
0.271048
0.197723
-0.366823
-0.215212
0.363093
0.513511
0.0504848
0.696714
1.96193
0.708816
0.587523
-0.0923084
0.870739
0.248383
-0.238808
0.569717
-0.752678
-0.0165462
0.10854
0.224272
0.951999
1.11974
0.41526
0.671041
0.216306
0.631203
0.614543
0.0472726
-0.126593
0.239019
0.179158
0.00170991
0.49857
0.174352
-0.0211767
0.13706
-0.162556
0.260489
1.49183
0.145108
0.215136
-0.0715039
0.546259
-0.124296
0.041782
0.79167
-0.576724
-0.253659
-0.321266
0.761395
0.466484
0.769494
0.778739
0.524314
-0.0504846
0.525044
-0.526722
0.450982
0.840522
0.793771
0.125706
0.302799
-0.143287
0.949074
0.0295086
0.89376
0.0578278
0.139035
0.575394
0.0391975
0.00865807
-0.353429
0.760327
0.917119
0.723018
0.802386
0.110811
0.167923
0.0533314
-0.0668859
0.560602
-0.0264552
-0.0231205
0.0309975
0.501744
2.56425
0.659727
-0.509893
1.30263
0.480819
0.51598
0.739487
0.921367
0.709224
0.411786
1.02247
-0.64548
-0.343974
0.738948
1.01288
0.767778
1.43555
0.233873
0.356235
0.794499
0.37174
1.00869
2.76123
0.490125
0.533104
3.30346
0.415602
0.33183
1.24938
0.338588
0.460193
1.00197
0.0910341
0.633945
0.696737
0.720422
0.855882
-0.645786
0.903185
0.596997
0.981254
0.092809
-0.323431
-0.737635
-0.314574
1.19222
1.07714
0.673048
-0.125672
0.646485
0.145774
1.34352
0.718382
0.739741
0.725581
-0.0682842
0.0195346
-0.100027
0.0235583
0.129889
-0.338828
-0.0989746
0.746693
0.537916
0.796215
0.365655
0.822982
-0.577352
1.15989
1.01828
0.507994
-0.520073
0.00853894
0.428603
0.294464
0.272911
0.816712
0.157892
0.494998
-0.12953
0.0786037
-0.761815
1.26374
-0.00720817
0.356167
-0.148843
0.73957
1.41078
0.807832
1.10319
0.65835
0.635728
0.566556
0.557202
-0.0445546
1.48428
0.152215
-0.142685
0.661301
0.10417
0.060242
-0.0723219
-0.231909
0.0390089
-0.106271
0.22486
-0.161628
-0.0108795
0.0929614
0.483088
-0.404611
0.272438
-0.457045
-0.198643
0.885438
-0.256951
-0.0307197
0.14152
-0.235745
-0.289112
0.0620034
-0.166786
0.169207
-0.0303452
0.330482
0.127074
0.00895449
0.0938889
-0.129218
1.03989
-0.0114915
0.151867
0.124602
0.244784
1.01309
0.305392
0.826121
0.466285
0.448624
0.436406
0.207636
1.04435
1.06267
-0.332128
-0.196743
1.30603
-0.371872
0.73776
0.138613
0.00551208
0.0410598
0.132379
0.238826
0.0727716
0.0687233
0.287222
0.283174
0.0290736
-0.38313
-0.422388
0.36871
0.411215
0.450193
-0.0366346
0.986838
0.391742
0.948981
0.400382
0.71805
1.12259
-0.136034
0.790546
0.527205
0.613677
-0.0707777
-0.177142
0.565529
0.733398
0.471697
0.803134
0.500315
1.29305
1.33982
0.686718
0.280976
0.788105
1.07263
0.620586
0.911376
1.71642
0.692056
0.168957
0.785325
0.401262
0.250503
1.62168
1.25414
-0.00339384
-0.429751
0.0268488
0.326652
-0.0608617
1.37531
0.661059
0.611444
0.426675
1.17457
0.892689
0.961544
-0.217925
0.76841
1.36872
0.794095
0.606398
0.575396
1.30368
-0.0650455
0.355463
0.258921
0.122551
0.187093
0.767939
0.343588
0.269453
1.51179
0.833857
0.489958
0.420826
0.444282
1.60888
1.33518
0.595859
0.455893
0.660924
-0.110495
0.804124
0.70503
0.865818
0.669621
0.378069
1.26668
0.879244
-1.41651
1.35343
-0.274533
0.355447
0.123385
0.691097
0.520577
0.0427494
-1.01968
0.39534
0.0895201
0.0842287
0.277171
-0.548222
0.922013
0.0721092
0.226733
0.97223
0.18863
0.443426
0.513163
0.551204
0.510049
0.138531
1.63515
0.649632
0.199483
0.115227
0.677552
0.835855
0.527771
0.201252
1.85213
0.0554902
0.596041
0.798785
0.91719
0.683564
0.916484
0.2849
0.764776
0.984673
-0.347848
1.03084
1.1551
0.878335
0.044354
0.90383
0.2552
0.784557
1.02414
1.13926
0.734124
0.910531
0.971251
0.585157
0.502644
-0.256203
-0.0834386
0.391395
0.0161471
0.927259
0.942466
0.0892519
0.351654
0.975985
0.832338
0.73636
0.514859
-0.0778083
0.147939
-0.157435
0.612825
0.50341
0.670725
1.71875
1.02881
0.247989
-0.24084
0.447293
0.0519528
1.34451
0.356924
-0.0117371
0.226548
0.271682
0.454323
0.387144
0.066809
0.303768
0.701764
0.0344409
1.4157
-0.0283851
-0.471792
1.35843
-0.118564
0.675694
0.51119
0.915204
0.117645
-0.203213
0.388884
0.357995
0.30005
-0.419765
0.176917
1.51175
0.930819
0.84803
1.28937
0.224854
1.45196
0.361252
0.656168
0.116682
-0.0976452
-0.147315
1.1112
-0.580444
0.182945
1.47407
0.33114
0.592924
0.392384
0.152863
0.805914
0.785957
0.383681
0.476932
0.197205
0.114401
0.486845
-0.231755
0.361735
0.321312
0.0458822
0.277535
-0.146233
0.675817
0.515053
-0.061291
0.298266
0.0571868
0.832739
0.25955
0.713909
0.894275
0.020209
0.978309
0.949812
1.07745
0.465672
0.151835
1.05777
2.25486
0.839751
0.408729
1.1663
0.303202
-0.236857
1.11931
0.351053
0.524918
-0.191084
-0.322036
0.566673
-0.0404878
1.37967
-0.239741
0.596971
0.315151
0.967644
0.229689
0.581746
-0.105931
0.673004
0.635832
0.2362
-0.195152
1.05916
0.838479
0.0929243
1.42733
0.602918
0.478779
0.728342
0.189023
0.776399
0.281407
0.77172
0.569866
0.10021
0.661931
0.927671
0.33409
1.06732
1.11222
0.864161
0.190008
-0.133989
-0.0329168
0.262424
0.20107
0.406023
0.139275
-0.250564
0.076944
-0.570466
-0.13502
0.0330418
0.317086
0.313937
-0.245837
0.409434
0.86943
0.0510195
0.757064
-0.100379
0.930239
0.168264
1.53814
0.77213
1.0414
1.1023
0.622535
0.477356
1.2386
0.200623
0.156961
0.308153
0.464991
0.274755
0.245283
0.259408
0.764135
0.341742
0.748981
0.771885
0.535182
0.863655
0.509641
0.0179519
0.261563
0.928474
0.865657
0.943277
1.30502
0.76091
0.199716
0.970772
0.281211
0.380348
0.813242
-0.640366
0.893429
0.112545
-0.128537
0.182905
0.907395
-0.0998384
-0.0369148
0.630858
-0.20674
0.15709
-0.0644207
-0.948348
0.0726282
0.463679
0.300109
0.607243
-0.014119
0.545779
0.619778
0.0761038
-0.260337
0.725684
0.467618
0.932189
1.74959
0.988422
0.553763
-0.375694
-0.145567
-0.186761
0.572148
0.130884
0.537529
0.588829
0.459614
-0.710044
0.388788
0.489433
0.819586
0.816389
0.0280837
0.270706
0.448983
0.30501
0.270926
0.349
0.192504
0.230509
0.606563
0.545384
0.864677
1.16987
0.57043
0.802965
1.84851
1.19169
1.35619
1.276
0.85209
1.19229
0.797928
0.824571
0.319369
1.13709
0.2117
0.633495
0.769969
0.195633
1.17316
0.214864
0.623414
0.255339
1.08845
0.584871
1.38857
1.08226
1.05661
-0.275201
0.320249
0.428479
1.10302
1.04267
0.546394
0.558636
-0.0951634
0.211575
0.239965
0.166871
0.0618701
1.00603
0.0064239
1.1237
1.30052
0.226466
1.28372
1.22213
0.73168
1.4396
0.313007
-0.062322
0.439557
0.557001
0.895882
0.478298
0.0843821
1.68975
0.390058
0.99398
0.785621
0.960696
0.379703
0.31185
0.259308
0.573175
0.0925919
0.141873
-0.064403
-0.3526
0.0984482
1.09102
-0.263369
1.28868
0.853415
0.978972
0.712438
0.962724
0.515317
0.565889
0.718621
0.597383
0.611708
0.635821
0.68374
0.530649
-0.00637319
0.239294
-0.406664
-0.336602
0.509718
-0.158005
-0.385083
0.864648
0.993139
0.623678
0.748703
1.48091
0.850766
1.16391
0.421376
0.139172
0.761072
1.15801
0.66138
0.687136
0.775484
0.801805
0.734976
0.229836
-0.0363403
-0.13483
0.402941
0.420397
0.466059
0.519829
0.676746
0.914509
0.456325
0.352175
0.851287
0.132244
0.243665
-0.00375354
0.50525
0.0382698
0.263014
0.049373
0.875889
-0.236831
0.0463981
-0.0371222
0.625999
0.238584
0.399487
0.660268
0.928022
0.894019
0.633329
0.819458
0.390811
1.17514
1.3632
-1.2435
0.566129
-0.00387771
0.229696
0.694793
1.26936
0.580422
0.269392
0.729134
0.921338
0.812882
0.7936
0.668829
0.550457
-0.420764
0.608886
1.41903
0.756177
0.014594
0.350468
0.682148
1.12593
-0.100856
0.441234
0.433901
0.559153
1.27305
1.59582
0.358268
1.06253
1.12154
0.855869
1.12373
0.529456
1.57974
0.71344
1.24906
1.31558
0.971323
0.89922
0.22128
-0.0416893
0.628648
0.36374
1.27741
0.897749
0.956792
0.874903
0.593543
2.11232
-0.12477
0.112566
0.417447
1.1563
0.677898
0.762427
0.380703
-0.214214
-0.2282
0.0299568
-0.0232752
0.481725
0.372319
-0.0153369
0.205697
-0.424427
0.66723
0.754912
0.189012
0.453306
1.25818
1.34757
-0.380346
0.751131
0.750899
-0.644385
-0.0133699
0.023886
0.614502
-0.201705
0.255695
0.72683
0.362712
0.213062
-0.533887
0.592416
0.393728
0.0643239
0.534282
1.37223
0.19375
0.379784
0.821166
0.065795
0.77927
0.821976
0.323956
0.133732
0.815294
-0.461266
0.244638
0.551493
0.891891
0.717629
-0.0512799
0.473193
0.26108
1.15661
0.400218
0.12181
0.815794
-0.289589
0.437559
-0.272307
-0.0278849
-0.0662154
0.326425
0.189649
0.266738
0.901682
1.04701
-0.586236
-0.309616
0.513326
1.19546
0.956097
0.676521
1.5298
0.892813
1.28508
-0.0398112
0.433261
0.917436
0.018689
1.0826
1.23172
0.897711
1.13624
1.12141
0.271787
0.629322
-0.312031
-0.081728
0.168149
0.0533522
0.149121
0.476701
0.807338
-0.198931
0.247119
0.319938
0.705921
0.0343007
0.594393
-0.000323546
0.786909
0.00761305
1.65002
1.33717
1.5434
1.44073
0.0355957
0.433883
-0.43519
-0.0375813
-0.0929615
0.277833
0.413917
1.36129
-0.175302
0.551795
0.786543
0.239705
0.397815
1.06309
-0.098204
0.537324
1.20527
-0.148968
0.891815
0.304288
0.486179
-0.523322
1.12782
-0.471177
-0.252762
0.31076
0.200087
0.766002
0.34024
0.879592
0.544001
-0.256928
1.00727
1.37827
1.23008
0.873743
0.810553
1.37583
0.402017
-0.248156
-0.0103254
0.566805
0.264786
0.461522
0.30231
1.01981
0.0854022
0.628025
-0.0256532
0.321537
0.296047
0.0392255
0.690741
0.816088
0.0470482
0.254473
0.158494
-0.122787
0.222542
0.390905
0.211299
0.70888
0.765046
-0.0351993
0.472737
0.638728
0.466887
0.0666047
0.271809
0.244856
0.854823
0.627274
0.128252
0.999222
0.374915
0.645466
0.300473
1.4529
0.349686
0.817013
1.04799
-0.0299703
0.648296
0.712741
0.30831
0.879329
0.8312
-0.20023
0.386318
0.200785
0.139003
-0.0132363
-0.175519
0.401841
-0.26977
0.0264811
0.254565
0.534552
0.59583
0.244111
1.52721
0.153263
0.267569
0.734409
0.781928
0.847779
0.657699
0.76855
0.6235
0.484987
0.799476
0.397201
0.423911
1.14941
0.0205952
-0.122321
0.996718
0.116284
-0.109677
0.0512824
-0.806228
0.934284
0.297818
0.816384
0.456454
0.427559
0.671562
0.132314
1.01664
0.164757
0.894805
0.236546
0.088167
-0.0133197
0.457174
0.504734
0.692521
0.21781
-0.324947
0.810633
0.560805
0.133676
0.451839
0.434174
-0.430071
0.542381
0.412049
-0.307314
-0.310832
-0.111062
0.185111
0.715715
0.40402
0.836454
0.650252
0.1791
0.0535117
0.0623853
0.238925
1.02792
0.78865
0.413725
0.542611
0.903908
0.247943
-0.131974
0.78521
1.9368
0.919779
1.17486
0.622086
0.294594
0.816748
-0.315652
0.266432
0.400681
1.07903
0.733129
0.554187
0.809944
0.393709
0.952822
-0.51633
0.296379
0.581852
0.658637
0.00500581
0.0821063
0.720528
1.23611
0.662752
0.917566
0.817472
0.725895
0.929063
0.56881
1.22308
0.60486
0.993492
-0.236603
0.248194
0.27452
0.64377
0.0540576
0.332793
1.03525
0.716396
0.682434
0.66019
-0.100158
0.8143
1.17128
1.18815
0.746347
1.06522
0.941161
0.161209
1.30141
0.440646
1.21765
0.0029241
0.332403
-0.0852433
0.664438
0.985133
0.892468
-0.247398
0.749302
1.62775
0.36227
0.937675
0.785013
0.432114
0.173951
0.346332
1.02763
0.75124
-0.312277
0.597994
-0.116273
-0.137058
0.56707
0.652443
0.7188
1.12406
-0.0177762
0.829005
0.917582
0.325578
0.306494
0.380823
0.205817
0.303465
0.684793
0.305532
0.606274
0.858558
0.581393
1.45657
0.823577
0.336737
0.894952
0.794272
0.376513
1.49706
1.19321
0.532334
0.935018
1.03966
0.584619
0.540239
1.06634
0.245926
0.1127
0.106615
-0.238552
0.11687
-0.216296
0.224845
0.366376
0.123627
0.395574
-0.0508648
-0.0603035
-0.34417
-0.36874
0.275174
1.08638
0.79742
1.07958
-0.0696284
0.559578
0.603405
0.82362
0.416896
0.833304
0.679814
0.369883
0.470607
0.225988
0.451061
0.420029
0.369554
0.192968
0.670457
-0.266773
0.770092
0.683531
0.454374
0.532863
0.881626
0.874985
0.700392
0.744685
0.101282
0.329685
0.104612
0.909525
0.37915
-0.187788
0.183792
0.0468825
0.462268
0.006469
0.4419
1.0077
0.515612
3.21238
0.460268
0.469388
0.0155592
0.632249
0.940965
0.799577
0.0476516
0.616373
1.18858
0.371862
0.677143
-0.238809
-0.40883
0.0872379
0.72075
1.4042
0.0250553
0.67394
0.17489
0.486187
0.333922
0.749492
0.252548
0.638271
1.51937
0.356454
0.45905
0.396359
0.753819
0.408178
0.941223
0.0545474
1.08239
0.597199
0.700533
-0.0257506
1.68491
0.951687
0.199249
0.446113
0.932461
-0.158086
0.299565
0.914105
0.679701
0.215192
0.0464219
0.510634
0.649617
0.639481
1.23395
0.914508
-0.191551
-0.300913
0.262481
0.207459
-0.0256979
-0.138949
-0.0688889
-0.384686
0.0678914
-0.0291238
-0.0249382
-0.139763
-0.238932
0.632947
-0.602924
0.392915
0.642013
-0.263183
-0.0404071
0.894666
1.01927
0.977357
0.490121
0.871121
0.970011
0.0234985
0.444997
0.431429
0.783532
1.08208
0.100873
0.809694
0.775215
0.406267
0.409854
0.664557
0.475208
1.50072
0.569445
1.42045
1.12359
1.22114
0.219962
0.526566
-0.35693
0.0313968
0.760967
1.35834
0.338653
0.440002
0.771527
0.184356
0.0731134
0.696169
1.57587
0.549479
-0.637534
0.929862
1.40511
1.01533
0.468312
0.860608
0.220266
0.156548
0.83597
0.538018
1.74745
0.511645
0.489972
-0.63633
0.0841327
0.284447
0.250867
0.41792
-0.386127
0.672137
0.023624
0.275893
0.727308
-0.00452724
0.0534282
1.92753
0.98264
1.03375
-0.605481
1.42248
0.905064
1.18695
0.55465
0.712039
0.929593
0.526024
0.0970041
0.70103
0.123217
2.3562
1.03042
0.00750534
0.313789
-0.0682359
0.523796
1.25418
0.991568
0.65595
0.699959
0.721063
0.84769
0.809758
0.996281
0.745722
0.109168
0.161562
0.323787
0.535406
1.01227
0.274814
0.24633
0.123089
0.492689
-0.143505
-0.195719
0.153026
0.320084
0.543817
0.458706
0.31585
-0.0894775
0.600934
0.877122
0.520415
-0.481379
0.504311
0.72369
-0.058379
-0.261854
-0.357493
0.297688
0.268938
0.740114
-0.022583
0.0323164
0.0439314
0.772037
0.302051
0.42208
2.47445
0.519071
2.37956
-0.0717462
0.644023
0.578526
0.902162
0.159356
0.303436
0.283243
0.171776
0.702226
0.796119
0.887916
0.865626
0.933748
0.95871
0.646531
0.367037
0.740935
1.00476
0.860741
0.749015
0.544561
0.547301
0.13377
0.245251
0.873427
1.24861
0.910987
0.354827
0.242061
0.575421
0.827913
0.656669
0.366947
1.19376
0.527198
0.651482
0.26546
0.77139
0.317767
0.362674
0.361872
0.250313
-0.350279
0.250898
0.124578
0.35861
-0.254893
0.26602
0.249679
0.196179
0.171557
0.401957
0.445669
0.137604
0.0691435
0.0292698
0.720381
0.439894
1.01059
0.914987
1.1172
0.837147
0.779387
0.878599
0.458715
0.208266
0.238987
0.58953
-0.359473
0.777781
0.0706058
0.38218
0.78684
0.0147302
0.138683
0.492478
-0.0981594
-0.352763
0.376341
0.0158211
0.457088
0.618015
0.417818
0.424929
0.518887
0.630953
0.762769
0.847092
0.757325
1.22634
1.58386
1.48605
-0.00177481
0.619061
0.49746
0.440283
0.624937
0.930694
1.09011
1.73766
0.824668
0.518635
0.673867
1.28658
0.798047
0.387476
0.353254
0.393223
0.6697
0.139979
0.525829
0.443689
-0.0414031
0.575154
0.588117
0.813842
0.763306
1.57058
0.810873
-0.0796885
0.507323
0.335827
0.700193
0.0746777
0.951381
0.526589
1.33528
0.441937
0.942224
0.505389
0.93668
0.613012
0.086942
0.92684
0.331832
0.165024
0.599873
1.06762
1.06793
1.31392
0.558827
0.0667593
1.29107
0.420731
-0.106194
0.525583
1.11323
0.0441517
0.22816
0.39211
0.114344
-0.537693
-0.060804
0.727889
0.577336
0.355636
0.0584435
0.358203
0.733648
1.06361
0.989366
0.890234
0.530096
0.87037
1.13022
0.712671
0.779036
0.901195
0.778859
0.49206
0.463555
0.230387
0.771965
0.510549
1.06446
0.896259
-0.0782591
1.37285
0.154222
0.135134
0.482185
0.600004
0.725922
0.582299
0.761925
0.347357
0.318015
0.31477
0.568063
0.685526
0.743379
0.312827
0.0318248
-0.00730732
0.786466
0.954813
1.02231
1.97353
1.62181
1.3587
0.93856
1.13961
1.0684
0.834777
0.674334
0.509321
0.707117
0.871896
0.359109
-0.723338
0.45208
0.741384
1.10999
0.5432
0.817511
0.966987
1.44998
-0.252779
1.56555
0.765639
0.520051
0.124673
-0.144849
1.34047
1.93541
0.432434
0.0221935
0.494502
0.573373
-0.0921938
0.155657
1.08509
0.568083
0.611374
0.46638
0.720138
1.07489
1.0438
0.625618
0.169987
0.566932
0.466836
0.320386
0.898801
0.867314
-0.184335
1.02569
0.925148
0.461601
1.06723
0.895746
0.33611
0.439427
0.28078
0.224016
0.164599
0.127327
1.03892
0.640856
-0.00306592
0.0945393
0.434189
1.47478
0.472658
-0.281361
-0.128352
0.444359
0.394504
0.287763
0.00729562
-0.0831967
0.0568631
0.484703
0.639535
0.0124038
0.735977
0.21175
-0.0758891
0.219271
0.883132
0.899601
0.747746
0.595441
0.470926
0.66739
0.61774
0.709987
0.700344
0.356574
0.326421
0.739847
0.375247
0.150914
0.391993
0.555444
0.739782
0.0413074
1.85366
0.00896186
0.394535
0.514116
-0.219742
1.2456
0.698928
0.567501
0.173063
-0.0278641
0.0177604
1.11811
0.51188
0.851448
0.551383
1.11124
0.704731
0.841542
-0.183967
2.32711
0.701972
0.314996
0.878406
0.939979
0.578744
0.185486
0.364316
0.408994
-0.141513
0.12456
0.0528721
0.284904
-0.0996245
0.0650749
0.203636
0.381257
-0.00773877
1.35703
-0.112131
0.363838
1.12226
0.854319
-0.351419
0.836413
0.797898
0.306254
0.42613
0.391739
0.126478
0.483625
-0.253012
0.043502
0.30401
0.591581
0.343601
0.389121
0.796926
0.565001
0.152675
0.156217
0.529291
-0.246913
-0.389695
-0.204854
-0.0351736
-0.160267
0.00358833
0.551368
-0.805853
0.681612
0.309476
0.342337
1.3821
0.645522
-0.183256
0.0403672
0.445326
1.09303
-0.273498
0.224485
2.31252
0.73306
0.317499
0.896746
0.574887
-0.458754
1.21844
0.150258
0.479453
-0.590619
0.114684
0.259865
-0.526664
0.733803
0.277602
0.0321951
-0.120064
0.026827
-0.272449
0.260854
0.797364
0.782779
0.790153
0.899983
0.529288
0.637421
0.76863
0.257607
-0.187186
-0.191542
-0.521645
0.0633495
-0.234196
0.727124
1.02414
-0.210262
0.808813
0.0847167
0.866066
0.431026
0.57152
-0.0452046
0.606393
-0.0711648
0.78051
1.41437
1.03147
0.438524
1.54413
1.85982
0.0265838
0.506739
0.598496
0.406719
0.588872
0.786551
1.90079
0.593135
1.50984
0.646857
0.560597
0.0629309
0.291373
0.739463
0.332113
0.578328
0.858403
0.410462
0.422983
0.11541
-0.0475225
1.37335
0.483253
0.317412
0.245237
0.214727
0.556756
0.326828
0.510861
0.108963
1.17714
0.802584
0.355505
0.481128
0.685813
0.192785
0.351914
0.25793
0.618874
0.836805
0.84416
0.717926
0.553449
0.465734
1.22699
1.15845
1.19959
0.584664
0.44689
0.386877
0.616843
-0.259439
0.572588
0.301504
0.450114
0.537867
0.825846
0.0484324
0.383918
0.0519555
1.0257
0.455268
0.652654
0.816968
0.499978
0.745179
0.702106
0.53318
0.501182
0.142509
0.564068
0.878284
0.975938
-0.0814721
0.425688
0.167306
0.880913
0.848703
0.363433
0.75024
1.25557
0.691132
0.518346
0.81152
1.09381
0.668103
0.215511
0.812811
1.05387
0.998723
0.0891203
0.550725
0.152054
0.38338
0.172413
0.485318
0.162291
0.58382
0.899645
0.174647
0.377329
-0.0542089
0.130658
0.201921
0.644822
0.262024
0.475381
0.124895
0.172182
0.0101581
0.397797
0.447186
-0.106827
0.525468
0.251433
0.857338
0.544892
0.0249074
0.807383
0.642469
0.688107
1.37896
0.74327
-0.356432
0.691266
0.559022
1.19113
1.41168
-0.0692205
-0.0434879
0.113333
1.23238
0.22037
0.396883
0.86996
0.320065
0.875721
0.786432
0.641621
0.813177
0.754663
0.145324
0.298653
-0.0781342
1.26134
0.95385
0.614127
0.199926
0.224705
0.0942767
0.250034
0.406194
0.838344
0.437734
0.68052
0.438852
-0.18752
0.430109
0.658469
0.840141
-0.282923
0.583816
1.40219
0.546271
0.298411
1.00775
0.585399
0.894193
0.398021
0.612724
1.07468
0.348217
0.484606
1.61841
0.737664
1.10321
0.626173
0.182777
0.100336
0.1323
1.061
0.601273
0.541151
0.493288
0.157323
0.895474
0.980831
0.212713
0.668016
0.763769
-0.128178
0.524622
0.478869
0.970421
0.833387
0.463898
0.751159
0.158335
0.632488
0.533139
0.354272
0.568525
0.332909
0.910091
0.606822
1.04085
0.817154
1.34203
1.45944
0.392122
0.891681
1.19142
1.327
0.567074
1.09985
0.957667
0.693034
1.2716
0.340208
0.622634
0.192428
0.0923644
0.728321
0.877212
0.0599738
1.91075
1.21418
1.00721
0.0708153
-0.14441
1.27666
0.309542
0.980909
0.829926
0.92004
1.3361
0.882497
1.55704
1.01095
0.167442
0.472791
0.0952565
0.13044
0.539521
0.838135
0.382283
-0.0970463
0.389226
0.393968
0.272509
0.284127
-0.260392
0.0204438
1.02534
0.782418
0.301118
0.722066
0.715541
0.980886
1.14895
0.451445
-0.0899032
0.705429
0.544382
0.4914
0.727243
0.644945
0.151436
0.323247
-0.161266
0.405243
0.419823
0.157525
0.806381
0.308937
0.376818
0.694927
0.442298
0.857737
0.308406
0.192567
0.654092
0.00872663
-0.246501
0.361847
0.467066
0.863929
0.710702
0.682796
0.771128
-0.149626
-0.104299
0.148412
0.509188
0.689819
1.06079
0.823222
0.57681
0.234976
0.50301
0.202477
0.204412
0.695903
0.497002
0.685662
0.312568
0.294859
0.500841
0.490531
0.139407
0.478995
0.347408
-0.550303
0.54259
1.21287
1.74062
0.540804
-0.249363
0.246611
0.526455
-0.194646
0.376347
0.304452
0.412449
0.470243
0.278774
0.565647
1.0428
0.364549
0.107798
0.999214
0.500937
0.682139
0.322107
1.25524
0.286764
0.656813
0.00586369
0.255722
0.556257
0.967979
1.1448
1.3085
1.41411
0.65805
0.280432
1.10296
-0.0495114
0.414917
-0.207183
-0.0962368
0.818639
-0.0852697
-0.0763852
0.826552
0.176701
0.672343
0.0444191
0.549979
0.69331
-0.0345331
0.0796641
0.508204
0.319321
0.447203
0.532225
0.561131
0.530021
0.519461
-0.109545
0.428371
0.605707
0.466194
0.323113
0.247019
0.307507
-0.179173
2.55763
0.835311
0.879062
0.374171
0.383653
0.644055
0.78014
0.962496
0.805222
0.487928
0.0923387
0.723467
0.280667
0.368731
0.101304
-0.280929
0.104574
0.749182
-0.342677
-0.259595
1.28094
0.158811
0.178473
0.332174
0.608308
0.230317
0.0334321
-0.131768
0.0160643
0.130418
0.250964
0.138881
0.57499
-0.297206
0.342516
0.0908769
-0.232476
0.270706
-0.0337005
-0.234847
-0.247523
0.18512
0.4558
0.414857
-0.250964
0.728102
0.919088
0.878652
0.993308
0.735573
0.926498
0.895089
1.05302
0.45553
0.694112
0.919348
0.769235
0.386561
0.605845
0.612337
0.662184
0.496658
0.339428
0.42323
0.173324
0.798917
0.0872143
0.649263
1.04693
0.725836
1.11348
1.09175
0.918552
0.887061
0.596774
-0.183611
0.49729
-0.0529145
0.0127143
0.00865705
0.817893
0.682926
0.333942
0.671126
0.287187
0.664361
0.192201
1.22382
0.401233
-0.00107614
-0.0572036
-0.00197679
1.38236
0.800341
0.895536
0.331148
0.563941
-0.0687464
1.01318
0.481883
0.988446
0.482892
0.702873
-0.207129
0.229308
0.336186
0.551074
0.43311
0.0989433
-0.437152
0.52099
0.70629
0.548333
0.488806
0.404022
0.526312
0.599645
0.342449
0.494375
0.764155
0.834165
0.838543
0.344146
1.02124
0.992176
1.18232
0.6891
0.88147
0.781368
0.324207
0.596341
0.854221
0.0537293
0.930578
0.625845
0.322107
0.9967
0.731965
0.917678
1.11196
0.824249
0.560526
1.06765
1.30614
0.680038
0.230603
0.513004
0.46769
0.756618
0.60889
0.26116
0.0853281
0.05035
0.251826
0.28417
1.06913
1.43424
0.460965
0.743163
0.752665
0.915534
0.449785
0.849308
0.678977
1.25909
0.714184
0.831378
0.506603
0.607341
-0.341399
0.267186
0.735394
0.624348
0.0646632
0.492625
0.40598
0.450332
0.54201
0.419709
0.156526
0.705683
0.853377
1.15363
0.412823
0.532899
-0.00977267
0.480095
0.611235
0.770984
0.730456
0.78723
0.386659
0.463963
0.141811
1.17832
0.624452
0.787372
1.05597
0.786504
-0.288039
-0.117837
1.05611
1.39479
1.10689
0.703857
-0.190438
0.184085
-0.0964538
0.292678
-0.00418411
-0.260307
0.218475
1.1356
0.835867
0.379674
0.851183
0.647882
0.376022
0.666096
0.815011
1.09053
0.915747
0.615426
0.260013
0.799224
0.327848
-0.522601
0.665509
-0.801004
0.510968
0.736078
0.698122
0.157608
-0.0356699
0.981596
0.524307
0.220553
0.334873
0.132529
-0.0885092
0.111571
0.0526683
-0.0693216
0.068765
0.356342
-0.0219186
-0.136467
-0.0165187
0.0425089
-0.795282
0.0591291
0.127348
-0.202977
-0.119165
0.165542
-0.00629213
0.28128
0.537376
0.0429812
0.100094
0.547984
0.483257
1.11363
0.282495
-0.0384411
-0.347908
0.762783
0.533387
0.785546
0.387732
0.324475
0.342492
-0.112612
0.355765
0.533714
1.6518
0.0852117
0.627252
0.689566
0.975502
-0.543
0.0703747
0.816774
1.14982
1.13856
0.790453
1.09198
0.700218
0.830387
0.501147
0.922467
0.580133
0.496643
0.922326
1.13947
1.09731
1.30656
0.71532
0.202298
0.36282
1.2207
0.346335
0.533371
0.685725
0.313233
0.116433
1.33611
0.563477
1.30624
0.545183
0.121557
0.752536
0.532578
1.93588
1.09545
0.796204
0.312554
0.588486
1.24118
0.224238
-0.186451
-0.0545173
0.272204
-0.808202
-0.301945
1.01089
1.00991
0.310901
1.31283
0.159269
0.656199
1.24962
0.784785
0.503974
0.554204
0.287322
0.844757
0.568753
0.112786
0.816458
1.00118
0.691841
0.790562
-0.0183235
0.98081
0.414347
0.681311
0.76028
0.472424
0.479045
0.804737
0.324644
0.527955
0.0778232
-0.768435
1.67099
0.689943
1.10022
2.00558
0.590461
0.273933
1.24319
1.31668
0.747644
0.26807
-0.40067
0.300636
2.37397
0.661478
0.102801
0.221545
0.98856
0.49448
0.477232
-0.155829
0.556203
0.257425
0.304311
-0.444403
1.50638
0.541516
1.24839
1.13496
0.561636
0.670471
-0.258797
0.636053
0.491706
0.123882
0.462219
-0.0387258
0.309075
0.9125
0.328508
0.809517
0.809663
0.0585387
0.653184
0.486665
1.14882
0.194269
-0.283822
1.23668
0.825598
0.819163
0.519999
0.114082
0.217875
0.455375
0.795578
0.973453
-0.0679868
0.948238
0.740257
0.721138
0.357648
-0.0287601
1.06959
0.591326
-0.0775998
0.145076
0.107685
0.604335
0.826499
0.490774
0.119243
0.625678
1.73988
0.586297
0.253846
-0.117131
0.0536241
0.1054
0.0845554
1.5675
0.0861588
0.426784
0.343239
-0.35476
-0.360643
0.898907
0.530972
0.531712
0.182019
0.644838
1.33778
0.644052
0.4844
0.573966
0.921734
0.116705
0.890182
0.451274
0.653372
-0.116389
0.937543
0.473105
0.263924
0.697812
0.656366
0.567603
-0.504161
0.62967
1.01206
0.686312
0.64051
0.256366
0.996577
0.633425
0.497413
0.764191
1.90578
0.592238
0.502007
0.287633
0.23725
0.212361
-0.418819
0.975153
0.324156
0.54192
0.922926
-0.0796815
0.0268099
0.660561
1.34094
0.447367
0.274546
0.272083
0.513629
0.365848
0.0294052
0.393019
0.307415
0.446516
1.89628
-0.499824
0.451895
0.127432
0.757641
-0.423698
0.329345
0.299
0.0625895
-0.907459
0.118723
0.125292
0.270802
-0.0997763
-0.166447
0.114769
0.430381
-0.0877939
0.0749391
0.678927
0.453806
0.355112
0.433841
0.190057
-0.0123743
0.230967
0.750357
0.858594
0.681676
0.833213
-0.203813
1.05935
0.670368
0.166019
0.293482
0.26514
0.532422
0.700455
0.374188
0.659198
0.417031
0.677231
0.497265
-0.0295536
0.380087
0.721042
0.637027
0.500963
-0.47939
0.762283
1.10801
0.71019
0.987988
1.44963
-0.035353
0.366406
0.204467
0.00673639
0.12901
0.839163
1.10434
0.704209
0.894599
0.714802
0.381934
0.725786
0.637723
1.00568
0.520837
0.596017
0.511738
1.36526
0.218188
0.228543
0.460424
0.836637
0.397606
0.768029
0.313088
0.138497
0.668689
-0.141139
0.032094
0.0675967
1.26998
1.11473
1.03367
0.843626
0.805738
0.831152
0.752105
1.43804
1.15746
0.650319
0.455677
0.35067
0.578764
0.558651
0.551826
0.870963
0.0789534
0.177832
0.595777
-0.135458
0.102605
-0.0571075
0.224252
0.324152
0.242706
-0.145238
-0.070117
0.234225
0.938526
1.05319
1.2064
0.549656
-0.0598331
0.536501
0.117688
0.0631642
0.474948
0.674964
0.589172
0.819693
0.563513
0.247092
0.397236
-0.57337
0.994043
-0.372717
1.5426
0.332585
1.19709
-0.265666
0.482993
0.83548
0.587992
0.0188643
0.251437
0.336062
0.182791
0.480422
0.557325
0.580567
0.547337
0.852958
1.11515
0.587932
0.791502
0.385189
1.13736
0.375101
0.482356