/*--------------------------------*- C++ -*----------------------------------*\
| =========                 |                                                 |
| \\      /  F ield         | OpenFOAM: The Open Source CFD Toolbox           |
|  \\    /   O peration     | Version:  2506                                  |
|   \\  /    A nd           | Website:  www.openfoam.com                      |
|    \\/     M anipulation  |                                                 |
\*---------------------------------------------------------------------------*/
FoamFile
{
    version     2.0;
    format      ascii;
    arch        "LSB;label=32;scalar=64";
    class       volScalarField;
    location    "0.01535";
    object      k;
}
// * * * * * * * * * * * * * * * * * * * * * * * * * * * * * * * * * * * * * //

dimensions      [0 2 -2 0 0 0 0];

internalField   nonuniform List<scalar> 
3991
(
0.367001
0.422706
0.360891
0.844229
0.389893
0.686972
0.397578
0.421312
1.96732
0.389628
0.569579
0.676432
0.391986
0.988019
0.390602
0.950796
0.396079
0.42883
0.950818
0.497536
0.603674
0.393941
0.575564
0.673911
0.555151
0.825402
0.499063
0.785541
0.403786
1.01195
0.643005
1.02264
0.451146
0.475391
0.753189
1.018
0.631555
0.433057
0.966634
0.429813
0.524389
0.395425
0.481865
0.381263
0.4374
0.525095
0.412877
1.19462
0.600749
0.435803
0.379469
0.493182
0.384523
0.585346
0.383784
0.608309
0.525194
0.379867
0.401736
0.636256
0.395396
0.43214
0.651851
0.295465
0.603442
0.981901
0.619082
0.687106
0.413279
0.393329
0.338945
0.498565
0.375626
0.557753
0.393581
1.03382
0.413694
0.781021
0.397656
0.371693
0.619786
0.483161
0.53363
0.632734
0.530845
0.677149
1.17113
0.390542
0.466243
0.445925
0.436797
0.65294
1.09896
0.612311
0.689521
0.40186
1.02422
1.11308
0.380952
0.519356
1.16595
0.548769
0.470142
0.268196
0.384426
0.398355
0.620107
0.393682
0.402505
0.392221
0.396681
0.392899
0.390216
0.406679
0.4052
0.405219
0.361545
0.361452
0.360958
0.362352
0.381094
0.631343
0.391668
0.542589
0.75793
0.535636
0.377075
0.372652
0.383894
0.401989
0.382761
0.38914
0.408648
1.14203
1.39141
0.586961
0.378361
0.389034
0.393609
0.398181
0.41949
0.794443
0.500026
0.783069
0.64865
0.417283
0.377562
0.415889
0.695714
0.381951
0.382466
0.376945
0.379313
0.552857
0.651919
0.597718
0.495899
0.686814
0.699176
0.697196
0.377653
0.397409
0.385383
1.05537
1.11233
0.872527
0.648992
0.70404
0.706302
0.41518
0.39819
0.596078
0.578433
0.425279
0.383617
0.443575
0.553332
0.531268
0.395064
0.366681
0.440936
0.63254
0.610587
0.382153
0.450839
0.372544
0.436769
0.555491
0.475685
0.38738
0.457863
0.510185
0.625829
0.45974
0.480756
0.859129
0.445838
0.889392
0.377121
0.443842
0.606168
0.512782
0.969763
0.530109
0.661426
0.637858
0.751796
0.838393
0.690528
0.397409
1.01266
0.538134
0.860823
0.468752
0.895205
0.444159
0.737987
0.628854
1.08661
0.781849
0.285093
0.956633
0.703834
0.596037
0.852011
0.829926
0.48296
1.08625
0.663595
0.368618
0.651537
0.398699
0.495346
0.403682
0.581275
0.681612
0.423256
0.815312
0.648093
0.422301
0.529089
0.478019
0.321799
0.40324
0.560721
0.677189
0.37515
0.625966
0.393339
0.712154
0.803736
0.576894
0.433248
0.464854
0.735448
1.06704
0.361006
0.542065
0.450955
0.416083
0.513224
0.441437
0.595637
0.495315
0.944419
0.543558
0.53789
0.826885
0.816562
0.668912
0.652665
0.722536
0.608315
1.02687
1.3592
1.1747
1.04639
0.97813
0.434821
0.484898
0.448243
0.590826
0.499336
0.501394
0.581241
0.529841
0.515964
0.446124
0.436417
0.426823
0.443203
0.391076
0.75599
0.472124
0.611186
0.635599
1.11153
0.391984
0.931344
0.379545
0.612383
0.854871
0.394363
0.815174
0.645403
0.615247
0.792055
0.373514
0.390521
0.74553
0.396454
0.392781
0.680696
0.401617
0.401671
0.383629
0.558738
0.462704
0.385585
0.443435
0.519293
0.37929
0.486402
0.915905
0.460753
0.472556
0.432153
0.397813
0.391685
0.398819
0.486468
0.457368
0.367452
0.367322
1.17776
0.95255
0.518694
0.432964
0.405194
0.618759
0.412668
0.393596
0.377009
0.407795
0.4274
0.411439
0.38686
0.464822
0.449622
0.570093
0.68596
0.406801
0.646164
0.50325
0.375574
0.746423
1.08199
0.596916
1.05195
0.366084
0.383919
0.484631
0.980764
0.407361
0.429794
0.407941
0.972692
0.564916
0.716512
0.454601
0.443704
0.458328
1.34333
0.516558
1.04446
0.396577
0.428495
0.700092
0.457936
0.413158
0.386212
0.367636
0.837754
0.402687
0.399146
0.402149
0.736931
0.392075
0.385984
0.473724
0.422256
0.884909
0.384161
0.448709
1.02035
0.3641
0.656448
0.873844
1.0311
0.587221
0.408477
0.525796
0.791342
0.60152
0.449319
0.613907
0.388907
0.822236
0.535379
0.852412
0.409406
0.481326
0.399849
0.430558
0.400169
0.427499
0.493475
0.372308
0.501117
0.405253
0.379824
0.464024
0.420542
0.857495
0.433902
0.537247
0.40984
0.431353
0.466939
0.377222
0.536409
0.727667
0.55077
0.404295
0.46909
0.411749
0.542249
0.675181
0.448994
0.395135
0.456161
0.378477
0.372993
0.594945
0.516028
0.65968
0.494656
0.61903
0.502649
0.686038
0.872173
0.572452
0.390063
0.434474
0.607157
0.456249
0.41601
0.768221
0.548494
0.414826
0.649408
0.393867
0.384943
0.673254
0.4431
0.796621
0.444224
0.394866
0.406671
0.387173
0.568986
0.406049
0.44595
0.667047
0.375919
0.550917
0.476743
0.428075
0.394836
0.374572
0.39511
0.517781
0.371185
0.7561
0.65389
0.40323
0.42256
0.384945
0.383978
0.372098
0.416691
0.394467
0.385946
0.398032
0.421663
0.404501
1.20671
0.412135
1.16929
0.416194
0.386228
0.683773
0.441439
0.641064
0.385953
0.422579
0.400669
0.666229
0.390412
0.390394
0.400576
0.571117
0.716391
0.763681
0.63286
0.556275
0.467303
0.398801
0.579325
0.580767
0.473647
1.00413
0.777196
0.625973
0.506498
0.575025
0.730693
0.384212
0.373288
0.394586
0.368023
0.513777
0.488591
0.965837
0.587185
0.44098
0.533339
0.377415
0.403398
0.554723
0.393417
0.746669
0.509496
0.432762
0.386625
0.386353
0.567275
0.956484
0.783207
0.377532
0.587621
0.548189
0.706529
0.622754
0.516644
0.549093
0.36259
0.544279
0.653537
0.492852
0.581155
0.736678
1.29656
0.488952
0.941603
0.511611
0.644253
0.831891
0.50215
0.469385
0.468029
0.398432
0.397448
0.399418
0.400922
0.404231
0.720156
0.505631
0.474762
0.467033
0.532844
0.485414
0.88631
0.775348
0.629177
0.716007
0.842692
0.366894
0.411743
0.377711
0.40046
0.406412
0.368735
0.385069
0.436413
0.382946
0.363517
0.37802
0.372206
0.39265
0.369814
0.378108
0.984417
0.560792
0.737578
0.416242
0.594906
0.656993
0.538332
0.536097
0.408905
0.426909
0.413607
0.509226
0.533794
0.531668
0.41794
0.401785
0.401543
0.393289
0.406411
0.41775
0.412203
0.397543
0.409094
0.488144
0.446887
0.415395
0.696932
0.500512
0.772111
0.414198
0.497499
0.643905
0.479511
0.401277
0.408482
0.409438
0.393572
0.414263
0.417654
0.42886
0.438224
0.388378
0.451829
0.43642
0.550396
0.390077
0.51206
1.24403
0.413862
0.478718
0.60449
0.383989
0.385776
0.376939
0.395154
0.596525
0.84439
0.797207
0.677345
0.864376
0.897399
1.07454
1.07003
0.409362
0.407084
0.594647
0.697526
1.08095
0.402845
0.397748
0.404424
0.376746
0.405501
0.443514
1.15662
0.583491
0.488396
0.482136
0.459469
0.373977
0.404539
0.506582
0.617877
0.373435
0.403388
0.403385
0.399966
0.44601
0.362696
0.379379
0.383914
0.384864
0.396388
0.385612
0.477511
0.394937
0.802842
0.828714
1.14666
0.379967
0.435684
0.383979
0.365183
0.448972
0.384094
0.660001
0.615832
0.580603
0.392145
0.446353
0.466499
0.41972
0.386014
0.588043
0.398779
0.469421
0.449245
0.894957
0.734905
0.948376
0.405949
1.0457
0.389748
0.685155
0.401926
0.483288
0.590828
0.644294
0.465771
0.635247
0.366843
0.581856
0.935046
0.642309
0.402634
0.372612
0.411202
0.547042
0.392877
0.430069
0.364778
0.403106
0.359727
0.453166
0.982994
1.09882
0.946052
0.890173
0.416782
0.455213
0.486346
0.394678
0.509025
0.872094
1.19066
0.943512
0.924956
1.06545
0.85178
0.462985
1.22813
0.39434
0.773692
1.17378
0.771575
0.890369
0.980374
0.705875
0.903815
0.732641
0.954596
0.492271
0.486088
0.36388
0.357649
0.415338
0.416883
0.414673
0.383887
0.406344
0.525231
0.550007
0.485081
0.416179
0.446104
0.47352
0.458173
0.482261
0.423206
0.433346
0.425136
0.404788
0.378527
0.375747
0.439373
0.439396
0.384271
1.08127
0.369192
1.10759
0.429168
0.365173
1.00679
1.14368
0.436235
0.437207
0.460274
0.466136
0.405954
0.766239
0.389049
0.643136
0.631114
0.442708
0.385622
0.566798
0.380145
0.450904
0.477884
0.668267
0.674455
0.552232
0.404809
0.384277
0.686625
0.572975
0.47272
1.00554
0.449373
0.814327
0.814157
0.623638
0.377252
0.37534
0.496542
0.610064
0.66521
0.431724
0.394374
0.40012
0.839992
0.557683
0.379366
0.384766
0.46065
0.376779
0.37251
0.372695
0.389835
0.372457
0.372385
0.379807
1.05744
0.695781
0.91125
1.02892
1.12788
1.13717
0.851592
1.17003
1.16548
1.24347
1.37566
0.432054
0.409366
0.462226
0.442799
0.669941
0.383043
0.475172
0.478149
0.677706
0.628595
0.616234
0.534004
0.576469
0.654998
0.613102
0.649106
0.838286
0.756668
0.796757
0.933292
1.39427
0.371418
0.376097
0.90192
0.658556
0.378982
0.373829
0.425607
0.423254
0.776869
0.425195
0.449813
0.404782
0.399385
0.988027
0.369994
0.390874
0.395693
0.39319
0.438355
0.427513
0.398001
0.934501
0.775471
0.549281
0.592216
0.683868
0.60346
0.429528
1.16805
0.433098
0.503405
0.369767
0.414633
0.373867
0.394802
0.384824
0.41275
0.391741
0.397215
0.603083
0.391142
0.430841
0.558114
0.441679
0.444037
0.676786
0.542286
0.42358
0.479123
1.33827
0.676602
0.432006
0.511515
0.381635
0.621605
0.594068
0.439368
0.40115
0.495029
0.490817
0.530622
0.826591
0.659484
0.600752
0.55538
0.464502
0.510812
0.390134
0.393607
0.418256
0.380087
0.436959
0.416297
0.733236
0.495949
0.834503
0.905792
0.858314
0.729316
0.648691
0.713956
0.791042
0.620751
0.805902
0.526181
0.492826
0.413119
0.532109
0.453411
0.368912
0.36256
0.409632
0.394957
0.432195
0.406528
0.481266
0.405341
0.372899
0.846967
0.599973
0.384445
0.476278
0.398877
0.696305
0.394272
0.401124
0.3731
0.496628
0.371082
0.415442
0.408058
0.702216
0.45464
0.800965
0.906189
0.577952
0.802069
0.436831
0.474862
0.7818
0.746288
0.432274
0.414692
0.479594
0.980076
0.433285
0.581093
0.473656
0.471732
0.44033
0.535202
0.448315
0.409387
0.447905
0.438009
0.489794
0.387168
1.54355
0.640435
0.45645
0.84955
0.407529
0.38553
0.892645
0.424251
0.672602
0.859825
0.643616
0.76861
0.408719
0.703913
0.574086
0.428171
0.514898
0.724896
0.60434
0.695829
0.691782
0.758136
0.656819
1.37274
0.927617
0.925888
0.415682
0.637051
0.708314
0.840846
0.485233
0.999529
0.521055
0.549284
0.415109
0.408706
0.852748
0.798991
1.05205
1.41851
1.10772
1.04411
0.673489
0.549661
0.422234
0.740011
0.576513
0.52505
0.539312
0.695551
0.637136
0.799476
0.385971
0.407572
0.712877
0.39118
0.377105
0.455432
1.22298
0.431049
0.410101
0.528875
0.421841
0.409243
0.686748
0.583806
0.446649
0.793709
0.376441
0.378638
0.498929
0.366943
0.40472
0.519605
0.614209
0.402201
0.445414
0.403945
0.416459
0.387288
0.475419
0.461321
0.504782
0.757827
0.514493
1.15648
0.462271
0.751354
0.853757
0.714919
0.58149
0.53677
0.997746
0.503467
0.833293
1.2388
0.599159
0.88218
0.754994
0.548868
0.606807
0.764159
1.21237
0.771741
0.752224
0.441426
0.462885
0.469859
0.361005
0.461161
0.462067
0.400116
0.387911
0.416572
0.878459
0.40965
0.578456
0.579242
0.377571
0.382962
0.616067
0.539049
0.400752
0.511686
1.58636
0.737808
0.553239
1.06129
0.471843
0.600125
0.513692
0.607802
0.887976
0.525055
0.394066
0.40291
0.440535
0.399687
0.442932
0.614078
0.979441
1.04466
0.637183
0.657109
1.02609
0.610576
0.381436
0.404059
0.415447
0.613194
0.401526
0.390396
0.396039
0.545608
0.576811
0.526264
0.379976
0.482588
0.455123
0.370968
0.375003
0.37251
0.366593
0.386189
0.693392
0.409375
0.423921
0.514927
0.660528
1.11957
0.525944
0.490057
0.45651
1.06977
0.842046
0.427295
0.444784
0.449983
1.02192
0.884006
0.469391
0.530932
0.489203
0.395277
0.402714
0.392884
0.395817
0.399243
0.397866
0.396075
0.400823
0.40256
0.39884
0.412811
0.397491
0.39171
0.565047
0.497907
0.474605
0.319185
0.272338
0.573798
0.592029
0.395891
0.404398
0.412707
0.422854
0.454023
0.472729
1.12159
1.15704
0.417755
0.592041
0.898535
0.487811
0.249903
0.891395
0.558142
0.871649
0.407606
0.901511
0.987947
0.600802
0.881099
0.468905
0.801932
0.503995
0.955645
0.668998
0.553081
0.500645
0.447856
0.674443
1.01883
0.499946
0.655683
0.564623
0.550694
0.411086
0.47726
0.495552
0.727862
0.830874
0.696314
0.468159
0.607322
0.463647
0.644328
0.469464
1.25674
1.14879
1.05046
0.444232
0.43534
0.562031
0.988315
1.05441
0.849933
0.557667
0.918316
0.566917
0.508373
0.606161
1.40308
1.40142
1.24687
1.9526
0.370112
0.37506
0.364959
0.784092
0.372212
1.0985
0.662915
0.460299
0.363048
0.378255
0.376003
0.452349
0.552023
0.63766
0.916632
0.374097
0.814462
0.360558
0.730274
0.75343
1.13733
0.801489
0.824635
0.41786
0.422347
0.378398
0.565951
0.895769
0.895233
1.08691
0.681468
0.806656
0.379057
0.39379
0.3775
0.382506
0.381612
0.391137
0.389016
0.444963
0.401537
0.449382
0.940084
0.850496
0.546899
0.402643
0.383806
0.429224
0.53062
0.38981
0.378487
0.38846
0.377035
0.439845
0.437194
0.44835
0.789922
0.421379
0.613097
0.876499
0.486795
0.407478
0.429922
0.50951
0.406865
0.417143
0.433858
0.408828
0.44018
0.709744
0.629694
0.36986
0.365622
0.707137
0.543764
0.873221
0.380307
0.394999
0.930161
0.482295
1.25591
1.09662
0.55702
0.817678
0.457114
0.429608
0.689067
0.750027
0.515033
0.521942
0.498228
0.689099
0.506438
0.560145
0.489643
0.694579
0.864505
0.43253
0.383224
0.507005
0.615588
0.466238
0.465146
0.646616
0.985433
1.14903
0.367138
0.449497
0.372977
0.379353
0.417533
0.394267
0.410912
0.372617
0.802302
0.730618
0.788402
1.35969
0.84736
0.90143
1.21943
0.675851
0.858702
1.1049
0.778085
0.407643
0.991193
0.435359
0.421012
0.545712
0.939053
0.433437
0.460507
0.391031
0.493464
0.4328
0.635278
0.684126
0.428014
0.450958
0.534115
0.560756
0.526374
0.687677
0.631364
0.568194
0.529064
0.447897
0.400535
0.482008
1.25286
1.33186
0.538831
0.627107
0.678499
1.03852
0.734211
1.12566
0.525572
1.03319
0.658025
0.513671
0.629815
0.728696
0.664207
0.681912
0.699544
0.408065
0.398325
0.388228
0.42996
0.404528
0.398591
0.411724
0.559898
0.474255
0.376456
0.369445
0.369091
0.383733
1.32659
1.29517
1.27826
0.641288
0.362005
0.36135
0.375422
0.363467
0.367066
0.360805
0.369751
0.362017
0.413883
0.404302
0.746214
0.482104
0.547821
0.376079
0.483465
0.39648
0.552502
0.393674
0.507146
0.515641
0.493675
0.538269
0.367732
0.406464
0.889371
0.684338
0.571975
0.372656
0.882481
0.37309
0.384007
0.874
0.884925
0.632467
0.815463
0.829404
0.51886
0.83575
0.633035
0.509785
0.376509
0.462285
0.36215
0.401793
0.875665
0.490885
0.394136
0.936259
0.5774
0.40126
0.569709
0.71221
0.396754
0.406958
0.391705
0.4239
0.95274
0.473206
1.14401
0.389262
0.553709
0.426314
0.525402
0.594233
0.574968
0.870928
0.493231
0.636069
0.626685
0.817999
0.369512
1.29166
0.607798
0.583031
0.652954
0.470126
0.462862
0.446453
0.40466
0.424313
0.410908
0.654814
0.420039
0.401457
0.398205
0.402666
0.490641
0.451671
0.504033
0.43339
0.422424
0.433702
0.390333
0.416214
0.369055
0.388278
0.396233
0.383738
0.418838
0.370968
0.427973
0.461575
0.502953
0.460158
0.426931
0.367634
0.383637
0.384311
0.391307
0.656529
0.379418
0.401484
0.498352
0.428088
0.385869
0.736817
0.539636
0.454216
0.396767
0.406998
0.399402
0.393417
0.368146
0.826619
0.365754
1.08842
0.386681
0.39611
0.376367
0.988874
0.805572
0.447519
0.726054
0.370951
0.811899
0.710522
0.441331
0.614751
0.503035
0.910508
0.428737
0.442491
0.458631
0.425241
0.39245
0.967304
0.976968
0.4334
0.664609
0.388942
0.421585
0.391621
0.408359
0.78422
0.53359
0.448263
0.386225
0.464403
0.404453
0.417041
0.542433
0.583832
0.974737
0.3792
0.441478
0.883396
0.445633
0.390916
0.420625
0.394747
0.388475
0.445562
0.373752
0.387002
0.421474
0.43582
0.375228
0.390227
0.399384
0.383245
0.383132
0.382031
0.384595
0.38979
0.541045
0.369716
0.371222
0.947444
0.845898
0.496167
1.16789
0.397744
1.78269
0.377131
0.439383
0.38131
0.373262
1.19071
0.398182
0.638725
0.375407
0.457099
0.79758
0.543099
0.6289
0.958857
1.0077
1.15215
0.905595
0.98941
0.785651
0.459422
0.523571
0.392564
0.370772
0.88682
0.654634
0.491085
0.490399
0.405907
0.573608
0.435628
0.954301
0.462715
0.452592
0.447507
0.954206
1.04465
1.39974
0.987948
1.0113
1.52209
0.597895
0.385282
0.871509
0.402129
0.387031
0.390543
0.393019
0.412429
0.383452
0.379899
0.411303
0.423002
0.943827
0.602843
0.777051
0.425874
0.721485
0.461854
0.452286
0.417939
0.424839
0.602309
0.463758
0.417271
0.479791
0.616744
0.816252
0.473609
0.63397
0.938379
0.821462
0.964826
0.945625
0.77418
0.670994
0.415675
0.76599
0.888947
0.454182
0.860695
0.896494
0.603305
0.536499
0.519526
0.64095
0.671748
0.689367
0.682411
0.723852
0.692223
0.368138
0.474833
0.693389
0.943959
1.05027
0.511745
0.412354
0.497789
0.394643
0.378835
0.916744
0.596488
0.565689
0.821658
0.437184
0.391434
0.395379
0.42474
0.42982
0.526225
0.389006
0.516117
0.512531
0.450261
0.473804
0.376761
0.382496
0.412915
0.435118
0.419245
0.446427
0.402202
0.428462
0.416959
0.422158
0.405479
1.10114
0.484869
0.470684
0.818142
0.470767
0.657075
0.492685
0.619176
0.700187
0.634867
0.697793
0.56404
0.458154
0.497913
0.393691
0.488251
0.474199
0.399065
0.384956
0.434269
0.450107
0.398487
0.423402
0.410586
0.434346
0.417631
0.750257
0.819837
0.714859
0.747013
0.469394
0.365118
0.363545
0.374245
0.397146
0.392063
1.21219
0.369025
0.368704
0.391951
0.670896
0.392955
0.40138
0.384796
0.42178
0.53612
0.507848
0.371146
0.685208
0.467503
0.486563
0.451759
0.489079
0.440739
0.434077
0.441746
1.19822
1.19165
1.02925
1.45275
1.0193
0.889305
0.858695
1.0014
0.988363
1.0142
1.06483
1.03003
0.506881
0.802951
0.793218
1.05397
0.531382
0.472233
0.546427
0.404893
1.04448
0.542122
0.885165
0.879735
0.400337
0.395306
0.609318
0.372593
0.422775
0.772294
0.515798
0.719232
0.434276
1.03545
0.52379
0.711842
0.690357
0.385231
0.460835
0.387158
0.411454
0.388066
0.403336
0.506398
0.941122
0.439788
0.567715
0.685923
0.45092
0.488741
0.501884
0.382565
0.476971
0.561412
1.01198
1.05447
0.578779
0.935834
0.383458
0.379663
0.623658
0.646246
0.61619
0.488127
0.659745
0.52896
0.506827
0.485255
0.36779
0.3842
0.364127
0.392875
0.361728
0.365164
0.695469
0.686643
0.573005
0.520715
0.389744
0.370344
0.560607
0.804044
0.907896
0.545432
0.53412
0.799597
0.553703
0.47394
0.518082
0.555373
0.610286
0.640033
0.667141
0.511726
0.517222
0.810148
0.558917
0.524783
0.606077
0.879132
0.56029
0.417724
0.407287
0.374702
0.385392
0.636861
0.563281
0.385974
0.449946
0.539194
0.410664
0.416609
0.410657
0.421662
0.409903
0.430521
0.437502
0.444023
0.611893
0.676528
0.380189
0.388899
0.365622
0.701208
0.432308
0.949944
0.420338
0.661941
0.698388
0.554863
0.474221
0.679126
0.494844
0.795201
0.509906
0.475309
0.639095
0.426521
0.458111
0.809396
0.564363
0.603388
0.473375
0.56895
0.458779
0.683834
0.500519
0.554886
0.476091
0.464302
0.532914
0.495389
0.379631
0.83738
0.837992
0.400026
0.398802
0.400329
0.413641
0.948809
0.956889
0.592842
0.702376
0.416504
0.422833
0.429593
0.407249
0.641435
0.515659
0.627809
0.423803
0.845463
0.473898
0.597953
0.419583
0.391987
0.883975
0.526589
0.589273
0.562832
0.771226
0.809249
0.750914
0.58304
0.390015
0.395907
0.708708
0.424715
0.39943
0.55098
0.533928
0.5292
0.53729
0.76716
0.448935
0.462932
0.423207
0.854253
0.419221
0.376984
0.380509
0.385642
0.387687
0.391764
0.422602
0.408492
0.385031
0.428935
0.437865
0.447308
0.433811
0.403997
0.412866
0.412515
0.708047
0.369667
0.6345
0.375428
0.532197
0.483754
0.37196
0.400271
0.473316
0.811701
0.585526
0.430234
0.40312
0.443951
0.443803
0.461555
0.538909
0.450158
0.455935
0.594897
0.471595
0.401282
0.434651
0.519795
0.540821
0.660463
0.635305
0.789181
0.754868
0.570526
0.448263
0.443479
0.479783
0.43293
0.448157
0.429842
0.66359
0.400675
0.489239
0.478041
0.513189
0.48167
0.404683
0.954077
0.810114
0.819391
1.25625
1.16922
0.7328
0.719724
0.409266
1.22931
0.518859
0.458007
0.443654
0.434266
0.391972
0.383338
0.374421
0.372094
0.399541
0.376274
0.647205
0.67002
0.915254
0.953078
0.468052
0.430003
0.429103
0.410683
0.39569
0.395132
0.600327
0.485663
0.691259
0.390674
0.601731
0.382952
0.793495
0.499721
0.379924
0.390432
0.899717
0.552674
0.787164
0.428443
0.369399
0.756221
0.402767
0.419215
0.388904
0.394351
0.400544
0.366455
0.39128
0.839941
0.385599
0.709969
0.636874
0.369171
0.379571
0.899574
0.443048
0.409712
0.807169
0.524029
0.416181
0.406694
0.441855
0.420232
0.546437
0.717853
0.621049
0.653619
0.657038
1.57252
0.723218
0.606285
1.00228
0.652809
0.724553
1.03294
0.40276
0.40374
0.407252
0.609611
0.653098
0.370426
0.813747
0.542761
0.363547
0.422121
0.426016
0.40122
0.590452
0.952874
0.514603
0.507936
0.779454
0.607407
0.677789
0.874128
0.401782
0.489447
0.432114
0.464037
0.473919
0.615813
0.593046
0.581442
0.664624
0.629553
0.36062
0.382831
0.448181
0.420832
0.407826
0.673002
0.607711
0.60969
0.960083
1.03599
0.394269
0.402632
0.421878
0.412776
0.418243
0.378723
0.418604
0.571253
0.672608
0.752075
0.671767
0.671361
0.521411
0.551289
0.628252
0.842074
0.931844
0.501871
0.522554
0.790043
0.382308
0.379278
0.430251
0.497281
0.739221
0.617264
0.809556
0.45251
0.56977
0.648084
0.444764
0.446419
0.428338
0.553183
0.638503
0.376819
0.572312
0.389439
0.395204
0.454555
1.10578
0.88853
0.38542
0.482196
0.392661
0.377664
0.390707
0.402297
0.372334
0.450191
0.424181
0.640823
0.494588
0.524049
0.65299
0.607736
0.64781
0.409889
1.07549
1.10134
0.966314
0.704231
0.546394
0.700701
0.516537
0.583961
1.06438
0.684014
0.813002
0.785445
0.643233
0.433296
0.413481
0.387723
0.388885
0.450399
1.87303
0.408214
0.387528
0.394938
0.650669
0.375948
0.362024
0.759422
0.543652
0.866559
0.874647
0.786119
0.523621
0.536026
0.783228
0.444104
0.435653
0.6724
0.428054
0.426113
0.450878
0.399464
0.563811
0.407947
0.411256
0.392658
0.389179
0.455719
0.606242
0.470714
0.553167
0.427072
0.784791
1.06179
0.797742
0.418301
0.522738
0.939927
0.394736
0.446249
0.504816
0.50817
0.655863
0.573945
0.615254
0.437937
0.434285
0.425424
0.426889
0.490305
1.06244
0.806273
0.48866
0.403786
0.545132
0.621289
0.759167
0.783714
0.708977
0.943652
0.536531
0.45368
0.548326
0.967089
1.14189
0.382787
0.442879
0.853651
0.728486
0.761017
0.44785
0.778398
0.443669
0.624427
0.513891
0.392219
0.394915
0.385456
0.391431
0.39691
0.385532
0.358805
0.37592
0.366245
0.490611
0.378019
0.411667
0.394832
0.397645
0.407991
0.420983
0.508971
0.550788
0.484528
0.592182
0.72334
1.01111
0.546747
0.814736
0.436308
0.452143
0.528596
0.545402
1.0392
0.394452
0.394403
0.414094
0.716493
0.569916
0.57475
0.441178
0.641479
0.62933
0.587813
0.435661
0.39293
0.785217
0.587782
0.475653
0.987363
0.387418
0.492361
0.426242
0.702238
0.400767
0.422782
0.406442
0.437938
0.914283
0.724127
0.472516
0.475325
1.14901
0.416788
0.884743
0.673249
0.635754
0.938951
0.600385
0.397574
0.462425
0.756872
0.404278
0.637607
0.566333
0.515391
0.750849
0.661519
0.625739
0.440979
0.395995
0.515078
0.398073
0.417224
0.518413
0.448484
0.463202
0.403926
0.409033
0.734617
0.672496
0.509994
0.406658
0.588426
0.433268
0.630947
0.610061
1.05467
0.69794
0.778103
0.783757
0.417081
0.443756
0.594998
1.08085
0.714538
0.436048
0.657239
0.429022
0.386398
0.428302
0.442776
0.698232
0.667432
0.513078
0.712152
0.76814
0.3892
0.909607
0.643325
0.700192
0.860006
0.599352
0.632725
0.392018
0.384324
0.567138
0.755546
0.7041
1.22252
1.02953
0.573951
0.788588
0.759529
1.20418
0.919216
0.656319
0.583887
0.499911
0.649895
0.705093
0.403174
0.538171
0.389223
0.45065
0.43283
0.588232
0.777107
0.579459
0.412369
0.446983
0.428334
0.679814
0.983826
1.22185
0.934617
2.49896
0.764609
0.933494
0.677591
0.383655
0.494697
0.832341
0.430679
0.768413
0.446887
0.532795
0.373106
0.531994
0.371588
1.07818
0.909988
0.912021
0.865759
0.960061
0.373702
0.468452
0.454047
0.468142
0.480459
0.376226
0.427843
0.426581
0.902077
0.672424
0.524386
0.770571
0.522687
0.488009
0.53292
0.408041
0.398048
0.290488
0.403891
0.386665
0.380811
0.408375
0.407699
0.397077
0.397178
0.388921
0.398807
0.40467
0.381385
0.555854
0.82222
0.761233
0.36276
0.714795
0.466352
0.374244
0.377554
0.395058
0.381295
0.814894
0.369916
0.393824
0.407023
0.425849
0.368407
0.369033
0.368385
0.388552
0.397026
0.390824
0.383221
0.389654
0.39754
0.373985
0.384608
0.598476
0.7366
0.757711
0.32273
0.413069
0.45788
0.271803
0.373014
0.553963
0.617222
0.86851
0.552427
0.603
0.674152
0.927967
0.770323
0.667414
0.838314
0.576301
0.558735
0.438512
0.56142
1.09153
1.30947
0.394804
0.687165
0.55897
0.388602
0.522133
1.05691
0.886838
1.22339
0.495785
0.850205
0.559823
0.668674
0.498459
0.386108
0.962178
0.973434
1.00236
0.464235
1.08186
0.90739
0.685094
0.777815
0.685898
0.632323
0.43613
1.00218
1.12802
0.74772
0.859304
0.701389
0.773611
0.381777
0.555784
0.393742
0.432614
0.447667
0.395612
0.481112
0.398375
0.401987
0.432882
0.404767
0.467735
0.403522
0.398292
0.365611
0.368118
0.417541
0.443888
0.394591
0.433281
0.405517
0.889447
0.74648
0.539599
0.80018
0.362741
0.369663
0.396104
1.57286
0.76908
0.741694
0.757606
0.36412
0.762776
0.371886
0.392797
0.556286
0.702772
0.51743
0.478708
0.659579
0.395935
0.392205
0.445897
0.427376
0.391551
0.874186
0.665116
0.650994
0.533752
0.723466
1.18176
0.705907
0.597854
0.561639
1.00648
0.768651
0.413141
0.387043
0.400112
1.46442
0.429778
0.411561
0.411
0.823253
0.438611
0.418198
0.393542
0.384864
0.369316
0.605072
0.800321
0.547565
0.741724
0.39713
0.368236
0.4127
0.520847
0.418627
0.558717
0.472885
0.99088
0.416874
0.610787
0.937024
0.922266
0.38589
0.569351
0.568484
0.640308
0.576123
0.557564
0.624423
0.510606
0.429775
1.1374
0.912506
0.783292
0.933488
0.622249
1.1234
1.13377
1.23573
0.638195
0.806743
0.401453
0.387051
0.394973
0.400935
0.555473
0.402581
0.372141
0.719213
0.646943
0.371224
0.785809
0.357911
0.441797
0.363879
0.61751
0.470516
0.403187
0.394952
0.507419
0.48035
0.397408
0.574078
0.477418
0.708615
0.705127
0.385682
0.839011
0.855638
1.02555
0.943748
0.893355
0.658484
0.703738
0.961742
0.485717
0.941049
0.444726
0.537234
0.564126
0.614541
0.521494
0.469576
0.428803
0.442047
1.1174
0.37778
0.696488
0.661826
0.851012
0.433736
0.975781
0.910949
0.413306
0.471902
0.413593
0.844442
0.846426
0.468852
1.13022
0.410823
0.43668
0.468464
0.458683
0.372065
0.812905
0.512335
0.458668
0.63937
0.504762
0.514633
0.512938
0.552394
0.402483
0.490788
0.425354
0.394931
0.402086
0.459093
0.367183
0.37345
0.581673
0.639379
0.441931
0.506568
0.783305
0.652335
0.663356
0.727322
0.75269
0.745392
0.755447
0.494991
0.451492
0.663314
0.929408
0.855684
0.595104
0.878848
1.11281
1.00586
1.09989
0.539461
0.435822
0.573795
1.17042
0.951933
0.436829
0.39891
0.607609
0.44178
0.452677
0.401319
0.400912
0.415953
0.42899
0.542054
0.411545
0.902999
0.727448
0.910244
0.807259
1.02346
0.554247
0.387167
0.632188
0.667645
0.366132
0.375727
0.414704
0.395057
0.565692
0.517189
0.682943
0.695363
1.10277
0.664279
0.82929
0.71586
0.721171
0.844689
0.828007
0.701779
0.915092
0.908273
1.05983
0.75986
0.88824
0.758139
0.543349
0.56858
1.0103
0.412036
0.422231
0.455231
0.417344
0.405976
0.435876
0.408222
0.376392
0.403703
0.459975
0.509781
0.411785
0.378861
0.409903
0.485749
0.410512
0.475505
1.0387
0.815329
0.572099
0.445511
1.03627
0.960224
0.791508
0.899589
0.661101
0.639199
0.871102
0.709057
0.770555
1.1802
0.727545
0.501689
0.421137
0.417838
0.400709
0.424115
0.451028
0.412315
0.439142
0.431414
0.412287
0.393661
0.370986
0.445281
0.437806
1.04745
0.483025
1.00153
0.568934
0.630912
0.380087
0.386305
0.437847
0.532726
0.440663
0.391258
0.437738
0.441359
0.435311
0.445196
0.444015
0.716143
0.594135
0.646406
0.476444
0.583825
0.977108
0.904753
0.397064
0.426427
0.49806
0.925867
0.916011
0.400949
0.383733
0.395936
0.412116
0.467354
0.533962
0.859738
0.4541
0.572388
0.548241
0.473663
0.481533
0.459259
0.397343
0.434493
0.397938
0.411155
0.451802
0.399279
1.02821
0.611119
0.824918
0.628944
0.617782
0.58309
0.520945
0.651614
0.692706
0.417254
0.704613
0.706008
0.483774
0.810296
0.746377
0.657891
0.383069
0.788753
0.437828
0.432057
0.415044
0.39789
0.516277
0.438259
0.370258
0.635165
0.381364
0.382698
0.397603
0.411408
0.393562
0.41247
0.374126
0.377464
0.407829
1.54908
0.502526
0.509802
0.422602
0.398169
0.47933
0.375489
0.438769
0.876047
0.517264
0.727572
0.561816
0.431191
0.501693
0.43822
0.708148
0.475809
0.425862
0.54239
0.441336
0.447364
0.537622
0.507666
0.427766
0.426291
0.413557
0.446823
0.443418
0.435404
0.490329
0.673708
0.799586
0.51031
0.534725
0.640423
0.555039
0.491528
0.720549
0.59183
0.374931
1.2929
1.43874
0.859394
0.947003
1.23197
0.70274
0.627937
0.94793
0.724574
0.78666
0.636502
0.588401
0.425916
0.380236
0.387436
0.396392
0.645815
0.406328
0.722533
0.370231
0.36573
0.390907
0.38051
0.383823
0.384639
0.421154
1.12323
0.587366
0.789969
0.514073
0.385773
0.60656
0.376632
0.407614
0.403478
0.608953
0.446009
0.915739
0.497506
0.698676
0.767002
0.497717
0.819225
0.3754
0.444916
0.735934
0.512512
1.20489
0.860401
0.981791
0.927197
0.926878
1.34653
0.503712
0.404001
0.390647
0.422789
0.396415
0.434436
0.47254
0.739696
0.483046
0.471332
0.748595
0.596753
0.607943
0.811817
0.474155
0.694813
0.895384
1.11657
0.961495
0.945174
0.670924
1.21094
1.05381
0.904499
0.564565
0.943381
0.81262
0.882771
0.659188
0.652332
0.588609
0.379019
0.368815
0.391094
0.395864
0.398423
0.39696
0.404453
0.397174
0.45064
0.466558
0.425311
0.407242
0.413098
0.386204
0.376396
0.398376
0.370505
0.361845
0.456432
0.378903
0.383404
0.42628
0.358413
0.375724
0.365754
0.391768
0.361148
0.379578
0.378105
0.381411
0.382364
0.434851
0.36933
0.362376
0.740903
0.780995
0.52504
0.59889
0.968323
0.975022
0.776646
0.66759
0.47116
0.46138
0.77796
0.53646
0.721496
0.966773
1.00972
0.685543
1.10445
0.566521
1.09438
0.444864
0.312083
0.722783
0.444188
0.823536
0.608007
0.503873
0.47438
0.907085
0.654184
0.747258
0.53165
0.590528
0.291444
0.669855
0.94105
0.725687
0.696497
0.516294
0.713817
0.755616
0.446324
0.418165
0.436507
1.22033
0.372209
0.381408
0.361291
0.485
0.764391
0.491331
0.488915
0.455169
0.398655
0.36987
0.388058
0.360588
0.396382
0.3905
0.409106
0.400486
0.399916
0.380006
0.360819
0.533421
0.500491
0.469301
0.632615
0.517976
0.364459
0.366386
0.376567
0.402355
0.428451
0.462138
0.384222
0.396946
0.726838
0.823176
0.760708
0.810297
0.60283
0.562721
0.42726
0.383292
0.371387
0.887377
0.409765
0.417836
0.56834
0.78452
0.413655
0.415075
0.406237
0.459315
0.71525
0.416887
0.406154
0.99192
0.408399