/*--------------------------------*- C++ -*----------------------------------*\
| =========                 |                                                 |
| \\      /  F ield         | OpenFOAM: The Open Source CFD Toolbox           |
|  \\    /   O peration     | Version:  2506                                  |
|   \\  /    A nd           | Website:  www.openfoam.com                      |
|    \\/     M anipulation  |                                                 |
\*---------------------------------------------------------------------------*/
FoamFile
{
    version     2.0;
    format      ascii;
    arch        "LSB;label=32;scalar=64";
    class       volScalarField;
    location    "0.01535";
    object      nut;
}
// * * * * * * * * * * * * * * * * * * * * * * * * * * * * * * * * * * * * * //

dimensions      [0 2 -1 0 0 0 0];

internalField   nonuniform List<scalar> 
3991
(
0.00516842
0.0042756
0.0042409
0.000894547
0.00480595
0.00252609
0.00457173
0.00362361
0.00153955
0.00467999
0.000527376
0.000781454
0.00670394
0.00155364
0.00439666
0.000214131
0.00403139
0.00123172
0.000596538
0.00214649
0.000444847
0.00551123
0.00102642
0.00213253
0.000759968
0.00106826
0.00135285
0.000339568
0.00517471
0.00131123
0.000489377
0.00131266
0.00109116
0.000924321
0.00152153
0.00125833
0.000895877
0.000785355
0.00118165
0.000780948
0.000446043
0.000220447
0.000786524
0.000449709
0.00236694
0.00167653
0.000504058
0.00119624
0.00232941
0.00281548
0.0017829
0.00394423
0.00559484
0.0025646
0.0049946
0.000681393
0.00109429
0.000574414
0.000501008
0.000731615
0.00626688
0.00112462
0.00028304
0.000514387
0.0003207
0.00113019
0.000303453
0.000416099
0.00147364
0.00341402
0.000829239
0.0010631
0.00268342
0.00111425
0.00658228
0.00126199
0.00213814
0.00126738
0.00426951
0.00388279
0.000780273
0.00143052
0.00106771
0.000299281
0.00067968
0.000578463
0.000838559
0.00565055
0.00214674
0.00346221
0.000949891
0.000971037
0.000629527
0.000376712
0.000654624
0.00322598
0.000425751
0.00049987
0.00482924
0.00325726
0.000429635
0.00044018
0.000588496
0.000290124
0.00340135
0.00332726
0.00160024
0.00441156
0.00249905
0.0070773
0.00412938
0.00649552
0.00712786
0.00279757
0.00316214
0.00347131
0.00375974
0.00408878
0.00391206
0.00283731
0.00450405
0.00033352
0.00453279
0.000488937
0.000340939
0.000474018
0.00223914
0.0055572
0.00633139
0.00428015
0.00465219
0.00463013
0.00338488
0.000535866
0.000913576
0.00203167
0.00593835
0.0069041
0.00501185
0.00525497
0.00291346
0.000906084
0.000657053
0.000701036
0.00157089
0.00150534
0.0029698
0.0026885
0.00104316
0.00689669
0.00692205
0.00675962
0.00691101
0.00165268
0.00156588
0.00218204
0.00232692
0.00141538
0.00109646
0.00116847
0.00597749
0.00622799
0.00620008
0.000662242
0.00158578
0.000113463
0.000816464
0.00108389
0.00115886
0.00170375
0.00411969
0.00128331
0.00118514
0.0014946
0.00518249
0.00188756
0.000436141
0.00291714
0.00353255
0.00555725
0.0012576
0.000853169
0.000676119
0.00647019
0.00223047
0.00554034
0.00206359
0.000534341
0.000913489
0.00505665
0.00164386
0.00115076
0.000434345
0.000901524
0.00113485
0.000866686
0.00191324
0.000448362
0.00674173
0.00196409
0.00245141
0.000824287
0.000552554
0.000488204
0.000703794
0.00189195
0.00067337
0.000532016
0.00025593
0.0039287
0.000454096
0.000475208
0.000702224
0.000665662
0.000749167
0.00117808
0.000732511
0.000673429
0.000671942
0.00205149
0.000266053
0.000564919
0.00196046
0.000903137
0.00105003
0.000354565
0.000904413
0.00132575
0.000671712
0.00474335
0.000577391
0.0046032
0.00108484
0.00366178
0.00111914
0.000713393
0.0018812
0.00101378
0.000588361
0.00351205
0.00178321
0.00317711
0.000545335
0.00636247
0.00209011
0.00101771
0.00685907
0.00078464
0.00568747
0.0015721
0.000457638
0.000594774
0.00129853
0.00147745
0.00127415
0.000408738
0.00269525
0.000683924
0.000746796
0.00222942
0.000513677
0.00140967
0.0021462
0.00133319
0.00170262
0.000681479
0.0027216
0.000753911
0.000175371
0.000484717
0.0011524
0.00131802
0.0015767
0.00110372
0.00122033
0.00118647
0.00133065
0.00132699
0.00239851
0.00259726
0.00198228
0.00186027
0.00181617
0.00129026
0.0011504
0.00136595
0.00150007
0.00276212
0.00264887
0.00271757
0.00267508
0.00389093
0.00119277
0.0011009
0.00306663
0.00195987
0.0011124
0.00456658
0.000828571
0.00672239
0.00209985
0.00176731
0.00467988
0.000151316
0.000362291
0.000572617
0.000145592
0.00541712
0.00636456
0.00130108
0.00411363
0.005079
0.000477282
0.00363804
0.00283667
0.00603308
0.00219919
0.00118253
0.00525921
0.00160744
0.00105339
0.00523182
0.000567585
0.00057663
0.00218564
0.00164386
0.00126147
0.00373445
0.00170859
0.00349665
0.00133512
0.00136283
0.00228345
0.00445476
0.00166828
0.000863601
0.00178942
0.00179882
0.00371288
0.00112594
0.00294819
0.00347719
0.00683369
0.00375331
0.00225176
0.00257796
0.00546158
0.00201979
0.00230899
0.00106613
0.0013191
0.00315427
0.000362149
0.00094232
0.00650166
0.00114994
0.000433216
0.00249564
0.0017573
0.0046928
0.00703605
0.00092434
0.00096448
0.00337748
0.00130362
0.00231224
0.000461316
0.000738192
0.0013233
0.00209521
0.00120583
0.00102806
0.000746806
0.000244837
0.000541549
0.00673687
0.0018499
0.000644617
0.00192942
0.0019759
0.00555978
0.00423599
0.00107511
0.0044448
0.00295128
0.00448656
0.000735668
0.00580522
0.0053882
0.000763088
0.00181388
0.000213871
0.00518364
0.00266398
0.00118154
0.00279339
0.000266184
0.000216219
0.00106624
0.00112656
0.0022488
0.00117696
0.000424553
0.00146315
0.0010026
0.00147546
0.00530631
0.000266682
0.00139387
0.00102354
0.00364357
0.00103717
0.00315266
0.00234346
0.0026281
0.00128061
0.00137704
0.00312903
0.000547333
0.00313909
0.00640813
0.00201856
0.00233053
0.00176138
0.00180717
0.000468025
0.00372554
0.00170938
0.000907879
0.00683467
0.00116619
0.000976117
0.00120235
0.00264808
0.000768902
0.00174879
0.000976696
0.000406263
0.00099231
0.00449086
0.00118407
0.00708543
0.00621124
0.000955393
0.000537417
0.000483852
0.0008132
0.000911916
0.000420794
0.00041055
0.000448913
0.000432074
0.00480392
0.00132085
0.000567222
0.00165719
0.0016641
0.000470786
0.00056317
0.00281692
0.00185944
0.0038816
0.00631918
0.00123352
0.000970865
0.000404511
0.000615291
0.00449461
0.00309935
0.00413165
0.000846212
0.00333291
0.00174554
0.00163249
0.0057342
0.00117013
0.0014218
0.00133583
0.00466148
0.00421369
0.00510626
0.00143936
0.00349477
0.000232852
0.000936271
0.00319982
0.00267412
0.00672757
0.00701249
0.00474946
0.00589216
0.00428986
0.00217638
0.00260711
0.00158247
0.00288237
0.00065422
0.00234997
0.00156208
0.00209319
0.00404902
0.000519263
0.0018515
0.00031374
0.00541603
0.00163502
0.00496059
0.0020862
0.00642929
0.00616046
0.00590817
0.000545193
0.000808155
0.000832469
0.000388027
0.00134742
0.001273
0.00491606
0.00189892
0.000493515
0.00174029
0.000102682
0.000893052
0.000710764
0.00198293
0.000560651
0.00161818
0.0067963
0.00527676
0.00400006
0.00407719
0.00213323
0.000673812
0.000125259
0.000431919
0.00141192
0.000578353
0.00671314
0.00326985
0.00147014
0.00466094
0.000949216
0.000961785
0.00166949
0.00472763
0.00566759
0.000468206
0.000921794
0.00126888
0.0005627
0.000689051
0.000581557
0.00052668
0.000381771
0.000483831
0.00108374
0.00263683
0.000577807
0.000462506
0.000803131
0.000605301
0.00172189
0.00139739
0.00102713
0.000288329
0.0010645
0.000430743
0.0006521
0.00163469
0.000714069
0.000761356
0.0038318
0.00536921
0.00417349
0.0039557
0.0025962
0.000178471
0.000568131
0.000892692
0.000870013
0.000577603
0.000753418
0.000362622
0.00236625
0.00169602
0.00217269
0.00233747
0.00237542
0.00290779
0.00600952
0.00423328
0.00182572
0.00567248
0.0044307
0.00240461
0.00701587
0.0044381
0.00668025
0.00485655
0.00588583
0.00433623
0.00572642
0.000742583
0.000543543
0.00134792
0.00230966
0.00303604
0.00329338
0.000618697
0.00247722
0.00358085
0.00120781
0.0017053
0.000899087
0.000757533
0.000920731
0.00242624
0.00433789
0.00428423
0.00424324
0.00426281
0.00182258
0.00257641
0.00212167
0.00197833
0.00111993
0.000822803
0.00179531
0.000346761
0.000777448
0.00129425
0.00217448
0.000821602
0.000703053
0.00110816
0.00435628
0.00270162
0.00313746
0.0039784
0.00264257
0.00206492
0.00298877
0.0029867
0.00438462
0.00268879
0.00236761
0.00109751
0.00436494
0.00226782
0.000809949
0.00300016
0.00265815
0.00137928
0.00607886
0.00554995
0.00545312
0.00233827
0.000956861
0.000260517
0.00015172
0.000235363
0.000155235
0.00023838
0.000288171
0.000714699
0.00162403
0.00224603
0.00218703
0.00141013
0.00234308
0.00201501
0.00385148
0.00321601
0.000506061
0.00240795
0.00128382
0.000590779
0.000600221
0.000832406
0.000681574
0.00117328
0.00359923
0.00305587
0.00296735
0.00117405
0.00463184
0.003105
0.00209783
0.00276539
0.000964311
0.0039534
0.00561774
0.00188598
0.00591905
0.00357156
0.00495969
0.000705666
0.00384689
0.000877638
0.000862548
0.00174449
0.00652757
0.001304
0.00599109
0.00414074
0.0010242
0.000471669
0.00055844
0.00048242
0.00239226
0.00533627
0.00202622
0.00100648
0.00379515
0.00695936
0.00318594
0.00280525
0.00165006
0.000874051
0.00029902
0.00104058
0.000852591
0.00266605
0.00155951
0.00277322
0.000232316
0.00314964
0.00169934
0.000725919
0.00092411
0.00258639
0.00254227
0.00535228
0.00117695
0.000758025
0.000254272
0.00352974
0.0027056
0.00215818
0.000440223
0.00452556
0.00175237
0.00261891
0.00232316
0.000459637
0.000243811
0.00138516
0.000782754
0.000589967
0.00138847
0.00308636
0.00322539
0.00295823
0.00484022
0.00259583
0.00114733
0.00133371
0.000722058
0.000954058
0.000824423
0.000545163
0.00268911
0.000799032
0.00475211
0.000894506
0.000247138
0.000883487
0.000187765
0.000795553
0.000713406
0.000477062
0.000369508
0.000550856
0.000883367
0.00241713
0.00250697
0.000754965
0.00343365
0.00243673
0.00229974
0.00369397
0.00377597
0.000826871
0.00108838
0.00137683
0.00435581
0.00224871
0.00235258
0.00179095
0.00157034
0.00204784
0.00207677
0.00172846
0.00380245
0.00572081
0.0036457
0.000938083
0.00215317
0.00302141
0.00161116
0.0051362
0.00100097
0.00207631
0.00224852
0.00187785
0.00109894
0.00122228
0.00143782
0.00102538
0.00114364
0.00289374
0.00042205
0.00460996
0.000593371
0.000558488
0.00247855
0.00578633
0.0015184
0.00645542
0.00078561
0.00184043
0.0016827
0.000862685
0.000548125
0.00381222
0.00667839
0.000624941
0.00152887
0.00354023
0.00184045
0.0021039
0.00195717
0.00247171
0.000508325
0.00677937
0.00563019
0.00119
0.00173086
0.00201746
0.00251286
0.00654293
0.00558804
0.00129139
0.00390775
0.00688991
0.00698812
0.00119333
0.00686638
0.00611123
0.00549971
0.00338551
0.00615722
0.00637201
0.00682981
0.00100831
0.000891634
0.000995333
0.000940842
0.00111612
0.00087738
0.00137337
0.0010119
0.000955892
0.000846567
0.00136088
0.00214882
0.00459939
0.00172817
0.00229034
0.00295229
0.0065803
0.00263829
0.00393262
0.00123204
0.00237561
0.00199504
0.0024412
0.00254755
0.00134584
0.000507945
0.00147445
0.000150593
0.00103893
0.000572182
0.000282742
0.00128788
0.00548042
0.00681336
0.000593471
0.000967586
0.00707163
0.00612197
0.00151043
0.00136827
0.00177444
0.00268334
0.0011084
0.00224023
0.00283808
0.000358999
0.00290539
0.00501571
0.00417859
0.00154403
0.000974774
0.00294265
0.00366304
0.000801258
0.000818244
0.000817422
0.00202374
0.000398943
0.00160663
0.00185917
0.000674902
0.00145831
0.00111662
0.00592549
0.00282764
0.00599048
0.00284818
0.0069571
0.00532096
0.00665665
0.00269828
0.00112079
0.00364519
0.0011776
0.00269917
0.00207728
0.00163172
0.00221634
0.00103745
0.00218555
0.000717331
0.000544541
0.00119759
0.00151573
0.00107867
0.00685417
0.00231317
0.000740439
0.00100931
0.00253027
0.000663831
0.000994336
0.000760288
0.000219721
0.00137506
0.000781691
0.000932693
0.00127355
0.000852914
0.00461208
0.00660853
0.00140288
0.00393134
0.00191463
0.00264143
0.00168746
0.00170325
0.00159465
0.00066787
0.000857806
0.000172652
0.00135299
0.00091266
0.000633885
0.000980188
0.00102183
0.0007262
0.000604097
0.00217019
0.00366626
0.00125151
0.00524893
0.00347968
0.00304475
0.00414082
0.00252048
0.00327113
0.000642575
0.00285799
0.00666359
0.00159251
0.000476281
0.00601348
0.00111043
0.00340791
0.000424597
0.00359001
0.00248539
0.00613499
0.00129168
0.00588165
0.00222298
0.00268642
0.00154676
0.00206948
0.000364985
0.0011803
0.000962838
0.000959921
0.00132963
0.00104152
0.000891544
0.0011702
0.00211298
0.00232617
0.00070446
0.0011159
0.00133031
0.000678784
0.00188746
0.00170924
0.00207114
0.00212335
0.00166666
0.00257137
0.0020758
0.00194325
0.000743569
0.00565849
0.000416334
0.000361841
0.000995994
0.000278233
0.00309212
0.00604984
0.000851947
0.00170375
0.00165117
0.000274524
0.000402738
0.000379639
0.00286571
0.00039924
0.000534444
0.00153147
0.00053242
0.00133566
0.00054801
0.000819981
0.00126032
0.00103353
0.000668144
0.00102031
0.000776138
0.00115679
0.00194817
0.00123135
0.000724147
0.000882857
0.000986614
0.000483548
0.000635864
0.000284995
0.00147067
0.00134992
0.000887946
0.00109757
0.000875476
0.00108849
0.00107204
0.00122507
0.00109571
0.00271247
0.00319589
0.00112872
0.00364688
0.000774252
0.002526
0.00320501
0.0034999
0.00256413
0.00668209
0.000595026
0.000994068
0.00667806
0.00673033
0.000975266
0.00127912
0.00178247
0.00339741
0.00100843
0.00362368
0.00197513
0.00100817
0.000740005
0.00156922
0.000360965
0.00597701
0.00475302
0.000626346
0.00390495
0.00304543
0.00186022
0.00150589
0.00266983
0.00126888
0.00221372
0.00299375
0.00624391
0.000913045
0.00167306
0.000633506
0.000944492
0.00273774
0.00142318
0.00324616
0.00109971
0.00215982
0.00170846
0.000867883
0.000795002
0.00144393
0.00431878
0.00108932
0.00138859
0.00229788
0.000880571
0.00142795
0.000380082
0.000613615
0.000321309
0.000725718
0.000349477
0.000952606
0.00263253
0.00447627
0.00139662
0.00378574
0.00262721
0.00198251
0.00482676
0.00189143
0.00290362
0.00191266
0.00307183
0.00286598
0.00257127
0.00691671
0.00702013
0.00185921
0.00338602
0.00367477
0.00166983
0.000980178
0.00125715
0.00214776
0.00146039
0.00064057
0.0010813
0.00116193
0.00195932
0.00115622
0.00201947
0.00367921
0.00246971
0.00167641
0.00235237
0.00192632
0.00172301
0.000148933
0.000722196
0.00198805
0.000593876
0.00125226
0.000721586
0.0052539
0.00418453
0.00358121
0.000710717
0.00484441
0.00631958
0.00345572
0.000948854
0.000789837
0.000882129
0.00671295
0.000780278
0.00113201
0.00583287
0.00645158
0.0049876
0.00233567
0.00701194
0.00216738
0.00261536
0.00302802
0.000737284
0.000977126
0.000910445
0.000675941
0.000802013
0.00109794
0.000921233
0.000564956
0.00183498
0.000883729
0.00128635
0.000986613
0.00104204
0.0015119
0.000499742
0.000827041
0.00428855
0.00225381
0.00481524
0.00384014
0.00422514
0.00331376
0.00453182
0.00344691
0.00280005
0.00449223
0.00128414
0.00419272
0.00266288
0.000451358
0.000704266
0.000828157
0.000480014
0.00054249
0.000315064
0.000442806
0.00569583
0.00234653
0.0018737
0.00203747
0.00231692
0.00246366
0.00137697
0.00126544
0.000646935
0.00124343
9.18584e-05
0.000691438
0.000388849
0.000228635
0.00201981
0.000222126
0.000202852
0.000318053
0.00116124
0.000726402
0.000224054
0.00162263
0.00026155
0.000929083
0.000107728
0.000487819
0.00097464
0.000652565
0.00147146
0.000282024
0.000505137
0.000729487
0.000618299
0.00108456
0.000904445
0.00133513
0.000642306
0.000830967
0.000346055
0.000331287
0.00166376
0.000749379
0.000754429
0.0011719
0.000429165
0.000997299
0.00225978
0.000704964
0.000556869
0.00145105
0.00137198
0.000569709
0.0012148
0.000448005
0.000210137
0.000667137
0.000889698
0.00254022
0.000834119
0.00077463
0.000958745
0.000766589
0.000796844
0.0011323
0.00620733
0.0065581
0.00539861
0.000316662
0.00625619
0.00162196
0.00076848
0.00124196
0.000259833
0.00640812
0.00678781
0.0023061
0.000799857
0.00190995
0.00106547
0.00656134
0.000707379
0.00390015
0.000558193
0.000209113
0.00147427
0.000318278
0.000529283
0.0031798
0.00182892
0.00682856
0.000601926
0.00015226
0.000548408
0.000173796
0.000428254
0.000455891
0.00694605
0.00352616
0.00676911
0.00423794
0.00711099
0.00489373
0.0058008
0.00192036
0.00336409
0.00197356
0.000235858
0.000598673
0.00101388
0.00270094
0.00692876
0.00159029
0.00290683
0.00401801
0.00630106
0.0018182
0.00559188
0.0014563
0.00153427
0.00187447
0.000497251
0.00194166
0.00161843
0.000869164
0.000926906
0.0038366
0.00183284
0.00084011
0.00268899
0.00247493
0.00199253
0.00217674
0.0028864
0.000363478
0.00096548
0.0018654
0.00511041
0.0014884
0.00281489
0.00155644
0.00685491
0.00458
0.00113911
0.00430873
0.000585265
0.000699582
0.00244247
0.0016203
0.003349
0.00320252
0.00234052
0.000942159
0.00129298
0.000773497
0.000675831
0.000602525
0.000856941
0.00117311
0.000920761
0.00127867
0.00029519
0.00203701
0.00704765
0.000827554
0.000915424
0.00134215
0.000899052
0.000230365
0.00113964
0.00103148
0.00242786
0.000915227
0.00633187
0.00674595
0.00392409
0.00656596
0.00349975
0.00452539
0.000994689
0.0004013
0.000956419
0.00101898
0.00109188
0.00098536
0.000877002
0.000959221
0.000943711
0.0012449
0.000977943
0.00315684
0.00117579
0.00266982
0.0028387
0.000728386
0.000558155
0.00268356
0.00229533
0.004856
0.000714461
0.00186346
0.000590024
0.000641381
0.00166732
0.000675664
0.000547113
0.000504763
0.000446393
0.00117019
0.000678538
0.00126375
0.000866444
0.0019648
0.00295009
0.00114356
0.00101674
0.00112538
0.00125901
0.000789123
0.00140652
0.00075107
0.000653074
0.00112464
0.00252061
0.000380226
0.00152267
0.00194935
0.00126987
0.00116884
0.00139695
0.0013934
0.00135748
0.00379419
0.00322275
0.00433465
0.00164633
0.00327975
0.00458974
0.00333449
0.000413475
0.000835513
0.00687548
0.00614592
0.00604015
0.00591574
0.00108833
0.000963047
0.000855267
0.00144163
0.0040916
0.00348085
0.00280359
0.00322787
0.00253381
0.00400741
0.00540967
0.00389479
0.00223262
0.00442544
0.000588806
0.0023135
0.000762647
0.00425885
0.00143184
0.00575999
0.00282727
0.00262177
0.00060276
0.00214693
0.00139291
0.00105481
0.00585067
0.00225423
0.000162256
0.00132412
0.000929923
0.0048857
0.00142351
0.00471735
0.00193511
0.000821729
0.000790322
0.000989392
0.000935178
0.000941419
0.0017007
0.000880284
0.00182937
0.00326904
0.00592737
0.00491046
0.00347623
0.00453532
0.00156117
0.000890207
0.00664355
0.000843492
0.000344854
0.00259161
0.00211217
0.00168354
0.00436651
0.00323236
0.00644066
0.00286205
0.00117185
0.00214117
0.00199416
0.00657772
0.00182684
0.00224988
0.00129433
0.00243613
0.00391414
0.00142617
0.000911396
0.000615412
0.000645593
0.00187792
0.000373521
0.00104123
0.00277941
0.00143615
0.00162368
0.000869095
0.00100127
0.00192875
0.00345288
0.00178804
0.00207642
0.000877476
0.00134883
0.00367148
0.00303835
0.00307494
0.00266256
0.00114616
0.000817995
0.00423642
0.00254749
0.00136881
0.00682424
0.00269501
0.00594879
0.00431407
0.0035731
0.00705045
0.00255628
0.00589864
0.00115769
0.000786295
0.000713164
0.00101596
0.00330022
0.00228184
0.00633839
0.00497806
0.00550529
0.00136657
0.00685817
0.00329831
0.0026173
0.00283989
0.00563512
0.00102942
0.00152854
0.00111349
0.00349076
0.00420551
0.00427553
0.00525427
0.00253073
0.000865592
0.00545228
0.00145069
0.00434175
0.00368452
0.0064414
0.00106735
0.000802249
0.00202928
0.00161196
0.00619632
0.000118569
0.00107879
0.000936352
0.000747732
0.000864829
0.000246798
0.00350448
0.00179223
0.000752448
0.0010367
0.00551947
0.000737382
0.000575402
0.00113848
0.000409788
0.00324607
0.00224092
0.00553146
0.00226515
0.000535017
0.00133989
0.00121146
0.00645376
0.00214603
0.0030593
0.00456118
0.0013156
0.000623288
0.000697933
0.0070032
0.00123621
0.00139464
0.0022787
0.0068348
0.0023406
0.00428815
0.00656772
0.00112378
0.00620135
0.00531609
0.00154344
0.00220266
0.00661576
0.00326182
0.00631476
0.00229941
0.00191596
0.00693799
0.00542705
0.00296426
0.00132073
0.00225158
0.00635899
0.000995122
0.000722279
0.00106652
0.000416081
0.00283896
0.000465306
0.00674476
0.00122776
0.00236603
0.00586071
0.00139345
0.00405179
0.0017998
0.00624599
0.00135145
0.00113321
0.000854243
0.000351111
8.7524e-05
0.000412722
0.000730962
0.000160977
0.00024172
0.000721161
0.00203976
0.000343307
0.00375221
0.00589005
0.000223852
0.000247754
0.000551637
0.00082493
0.0036222
0.00103502
0.00246817
0.00124541
0.000785556
0.00091047
0.00100882
0.000416786
0.0007809
0.00103987
0.000680749
0.00010756
0.00115325
0.000872729
0.00663153
0.000202422
0.00305641
0.00702382
0.00620756
0.0041277
0.00263991
0.00702061
0.00681
0.0020418
0.00138756
0.000233844
0.00142212
0.000894212
0.00206206
0.000886087
0.00131741
0.00121937
0.00133746
0.00199501
0.000412059
0.000851906
0.00253043
0.00154639
0.000447749
0.00017979
0.000859363
0.000453178
0.000422155
0.000631874
0.000911759
0.000995624
0.000878824
0.00133766
0.00149366
0.000963057
0.000654062
0.000901692
0.000720379
0.0013111
0.000883254
0.00228068
0.00281861
0.00216398
0.00203058
0.00218146
0.00249136
0.00166875
0.00122099
0.00413036
0.00446525
0.00039664
0.000115826
0.00021217
0.000925574
0.00178457
0.000616504
0.00254946
0.00587659
0.000225417
0.00053724
0.00078513
0.000340399
0.00106535
0.00329944
0.00256946
0.00150792
0.00152185
0.000789837
0.00666738
0.00124885
0.00106249
0.002156
0.000648556
0.00610306
0.00649066
0.00276745
0.00117831
0.00247822
0.00170927
0.00277873
0.0014645
0.00178489
0.00159313
0.00419612
0.000310647
0.00088946
0.000695383
0.000634038
0.0010872
0.00068888
0.00103474
0.000487349
0.000953827
0.000612925
0.000446499
0.000484004
0.000664347
0.000813742
0.00619781
0.00172726
0.00224879
0.00662244
0.0061841
0.00209161
0.00218712
0.0051441
0.0037707
0.00471562
0.00173235
0.00359292
0.00091699
0.000823954
0.00107558
0.00093579
0.00208942
0.00335547
0.00344573
0.00221757
0.00423753
0.00482739
0.00123398
0.00487623
0.00471993
0.00657438
0.000539063
0.00618147
0.00431818
0.00670976
0.00310992
0.00144953
0.00148528
0.0062115
0.00128821
0.00174699
0.00089087
0.00116459
0.0011248
0.00155599
0.00144828
0.00142595
0.00102292
0.00094111
0.00128389
0.000751872
0.000558674
0.00143316
0.000748421
0.00126622
0.000918351
0.000449603
0.000897261
0.000258927
0.0024678
0.000585443
0.000519496
0.00134294
0.00075715
0.00108711
0.000423967
0.00301618
0.000233115
0.00128359
0.000968235
0.00115821
0.00497638
0.00468184
0.00241284
0.00560356
0.00188077
0.00141489
0.00109502
0.00140865
0.00240507
0.00104931
0.00243866
0.00135821
0.00132769
0.00579146
0.00127655
0.00620483
0.00323673
0.00464453
0.00327744
0.000851791
0.000272641
0.00228957
0.0005617
0.0015622
0.00115505
0.00165143
0.00191669
0.00673191
0.00112974
0.00178504
0.00115908
0.000602325
0.000915329
0.000776187
0.00670109
0.00680912
0.00271996
0.00233338
0.000324356
0.000852656
0.00148118
0.000616293
0.00144439
0.000932248
0.00355541
0.00551013
0.00265853
0.0058715
0.00274548
0.00274078
0.000323294
0.000250832
0.000582782
0.000785374
0.00487834
0.00582632
0.000675605
0.000358534
0.00024309
0.000594209
0.000730222
0.000263673
0.000496776
0.000797257
0.000537969
0.000547086
0.000378057
0.000441136
0.000353029
0.00074447
0.000750997
0.000334097
0.000539863
0.00172129
0.000350195
0.000659266
0.00079163
0.00204706
0.00266968
0.00610373
0.00478418
0.00048422
0.000823796
0.00483933
0.00115803
0.00115555
0.00242573
0.00164234
0.00243429
0.00113149
0.00182151
0.00133797
0.00155137
0.00133829
0.00071632
0.000619227
0.00652776
0.00193035
0.00405119
0.000504878
0.00434573
0.000820451
0.00206306
0.00164668
0.00120255
0.000174597
0.000839851
0.000595215
0.000520811
0.00109689
0.000624022
0.00102029
0.000435453
0.00148749
0.00105008
0.000955216
0.000475174
0.00260916
0.000815686
0.0006725
0.0010558
0.000261728
0.000631967
0.000473617
0.000687294
0.000844483
0.000986112
0.000741776
0.0068709
0.000304218
0.000259266
0.00220955
0.00275857
0.00367312
0.001874
0.000242255
0.00022198
0.000592596
0.00129153
0.00178203
0.0016359
0.00190923
0.000822324
0.00111248
0.000828072
0.00112361
0.00156557
0.00079959
0.00080081
0.000781097
0.000336245
0.00496102
0.000175237
0.00042057
0.000415897
0.00050582
0.000331961
0.000240335
0.000400037
0.000404289
0.00468904
0.0050266
0.000463009
0.00163951
0.0033203
0.000768376
0.00136843
0.000916767
0.000938562
0.000461411
0.000790426
0.000946404
0.00161052
0.000299278
0.00203779
0.00678661
0.00700416
0.00697766
0.00468725
0.00441234
0.00208527
0.00304081
0.00630212
0.00239455
0.0019877
0.00188331
0.001399
0.0036658
0.00383995
0.0023375
0.0012081
0.00554792
0.0017035
0.00610406
0.000903082
0.00231861
0.00634763
0.00329631
0.00155672
0.000903427
0.00128424
0.00165623
0.00356491
0.00108917
0.00152403
0.00131524
0.00111494
0.00167394
0.00119854
0.000759614
0.000677757
0.00298671
0.0014388
0.000754289
0.000464886
0.000704464
0.00088957
0.000262711
0.000377674
0.000489818
0.00156298
0.00182201
0.00127168
0.00196951
0.00157552
0.00167983
0.000575682
0.00303081
0.000968371
0.00126918
0.00153626
0.00116425
0.00263434
0.00129234
0.000961145
0.000961617
0.000714958
0.0012307
0.00117945
0.00160964
0.00411711
0.000965969
0.000895456
0.000795504
0.0013983
0.00163311
0.00687616
0.00695742
0.00582134
0.00603554
0.00390854
0.00590844
0.0015696
0.00142984
0.000756786
0.00120928
0.00199246
0.00354005
0.00333062
0.00452883
0.00519602
0.00567206
0.00144354
0.00171397
0.000332733
0.00688516
0.00284497
0.00704461
0.00032001
0.00128435
0.00672288
0.00625315
0.000390698
0.000775421
0.000690035
0.00182509
0.00552078
0.00130684
0.00313098
0.00256209
0.00448686
0.00245693
0.00383537
0.00498741
0.00397064
0.00154176
0.00731564
0.00177332
0.00375846
0.00492244
0.00633452
0.000187564
0.00137027
0.00193206
0.000148321
0.00174983
0.00231715
0.00208794
0.00262695
0.00213954
0.000804087
0.00047263
0.000490797
0.000434397
8.32022e-05
0.000993337
0.000473659
0.000740911
0.00229576
0.00120389
0.000496868
0.000646737
0.00320879
0.00496177
0.0032298
0.000505372
0.000542377
0.00211633
0.000960132
0.00327103
0.00304043
0.0041886
0.00283024
0.00287203
0.00069945
0.000296754
0.000802081
0.000725086
8.55394e-05
0.000401372
0.000498172
0.000667303
0.00303836
0.000763575
0.00204614
0.00160818
0.00140214
0.00202537
0.00224063
0.00227848
0.00169359
0.00190539
0.004055
0.00548507
0.00107346
0.00130221
0.00145322
0.000605714
0.000600598
0.000853942
0.0018419
0.00220721
0.00262923
0.00262257
0.00199665
0.00202723
0.00285851
0.00492423
0.00298905
0.00249039
0.00154023
0.0011536
0.000423918
0.000220011
0.000568633
0.0013179
0.00354244
0.00166045
0.000792829
0.00317297
0.000490208
0.00128463
0.000380597
0.00441675
0.00110433
0.000779093
0.000289952
0.00104063
0.000750361
0.00178288
0.000937185
0.000936248
0.00295793
0.00157905
0.00400782
0.00104002
0.0014491
0.00616123
0.00273571
0.00658057
0.00654154
0.00127501
0.00153887
0.00119499
0.0066815
0.00263681
0.00568606
0.00641797
0.00632193
0.00443339
0.00655821
0.0041273
0.00582434
0.000278599
0.00112395
0.00256225
0.00129337
0.00199641
0.00275757
0.00466126
0.00137005
0.00149241
0.00159108
0.00129689
0.000774631
0.000999985
0.00120078
0.00135494
0.000248419
0.00125793
0.00124347
0.000963474
0.00162591
0.00144594
0.00204223
0.005369
0.00403093
0.00102011
0.000228302
0.00233963
0.0069891
0.00513708
0.00094832
0.00235547
0.00246293
0.000899062
0.000544035
0.000974581
0.000795545
0.000637802
0.0015877
0.00137
0.000537517
0.00254268
0.00183685
0.000323965
0.00251838
0.00250952
0.00127893
0.0042223
0.000980622
0.00310545
0.00283015
0.0040424
0.00442237
0.00156986
0.000781836
0.00117922
0.000971059
0.00222465
0.00184872
0.000530989
0.00133286
0.00324233
0.000455076
0.000318355
0.00483272
0.00152972
0.000532753
0.000644854
0.000345216
0.00039088
0.0003245
0.00116797
0.0015752
0.00298678
0.00225236
0.0012438
0.000287719
0.000752767
0.000724826
0.00281791
0.000607648
0.000566674
0.000276557
0.000282619
0.000814894
0.000166067
0.00048811
0.00358991
0.00355371
0.000103339
0.00120326
0.00698582
0.00196861
0.00101955
0.00104462
0.00112377
0.00195266
0.000925488
0.00131388
0.000938374
0.000767028
0.00486126
0.00403065
0.00633406
0.00418809
0.00395899
0.00688291
0.00271236
0.00677041
0.00492438
0.00151258
0.0065059
0.0033515
0.00297739
0.00249883
0.0027978
0.00167482
0.000748422
0.00145318
0.00113261
0.000696975
0.00328848
0.000202723
0.000848469
0.000987775
0.00156706
0.00128981
0.000747136
0.000543488
0.000487525
0.00657243
0.00472837
0.00223825
0.000605291
0.000824084
0.000794345
0.00126636
0.000622488
0.000300569
0.000555768
0.00136508
0.00454633
0.000480746
0.000843537
0.000880102
0.000120143
0.00697294
0.00089169
0.00137656
0.000486724
0.00248538
0.00148573
0.00261735
0.00104719
0.000165913
0.000433482
0.00195581
0.00109022
0.000540767
0.000613383
0.00044557
0.00134081
0.00172348
0.000305648
0.000566048
0.0039441
0.00088811
0.000232185
0.00302243
0.000350133
0.000371544
0.00104979
0.000293567
0.000666991
0.000438432
0.000957523
0.00386119
0.00138239
0.00313471
0.00185534
0.00119494
0.00137448
0.00144804
0.00359014
0.00249201
0.000407409
0.000690513
0.000809175
0.00208435
0.00300831
0.00147051
0.000442059
0.000650575
0.000656625
0.000714388
0.000361898
0.000322661
0.00219385
0.000989086
0.000515764
0.000314315
0.000551842
0.00325965
0.00100263
0.00274638
0.00480545
0.00373018
0.00148133
0.000663734
0.00169614
0.00313594
0.000601578
0.000854446
0.00607352
0.00015259
0.000388451
0.0014029
0.00193001
0.000505084
0.000842751
0.00546794
0.00614968
0.00106519
0.00253059
0.00127326
0.00113508
0.000114636
0.000825121
0.000288805
0.00105455
0.000901366
0.000915195
0.0025764
0.00131507
0.00113636
0.000532633
0.000882764
0.00318591
0.00161401
0.00455828
0.00200125
0.00155272
0.00131642
0.000996545
0.00151012
0.00224962
0.00125113
0.00186156
0.00235262
0.000507448
0.000332607
0.00079604
0.000229388
0.000931186
0.0007147
0.000626415
0.00561063
0.00111618
0.000139842
0.00393456
0.00107773
0.00150505
0.00145731
0.00437129
0.00157119
0.00594188
0.000983679
0.000272871
0.000299868
0.000392319
0.0004663
0.00544928
0.00180134
0.00212706
0.00138823
0.00170409
0.00687552
0.00125009
0.0014452
0.000846859
0.000610929
0.00048903
0.000699807
0.00327218
0.000811184
0.000842845
0.00324413
0.00665426
0.000454234
0.00245516
0.00335524
0.00251456
0.00230074
0.00367614
0.00519667
0.00447493
0.00584025
0.00382345
0.00308428
0.00642389
0.0035283
0.000609632
0.000543838
0.00428438
0.000563156
0.000818794
0.00487072
0.00457983
0.00317543
0.00642925
0.000889236
0.00608496
0.00664022
0.00244629
0.00210079
0.00592533
0.00591452
0.00538367