/*--------------------------------*- C++ -*----------------------------------*\
| =========                 |                                                 |
| \\      /  F ield         | OpenFOAM: The Open Source CFD Toolbox           |
|  \\    /   O peration     | Version:  2506                                  |
|   \\  /    A nd           | Website:  www.openfoam.com                      |
|    \\/     M anipulation  |                                                 |
\*---------------------------------------------------------------------------*/
FoamFile
{
    version     2.0;
    format      ascii;
    arch        "LSB;label=32;scalar=64";
    class       volScalarField;
    location    "0.01535";
    object      omega;
}
// * * * * * * * * * * * * * * * * * * * * * * * * * * * * * * * * * * * * * //

dimensions      [0 0 -1 0 0 0 0];

internalField   nonuniform List<scalar> 
3991
(
71.0085
71.7947
85.0977
943.751
59.4634
271.951
56.9158
69.9157
1209.3
83.2539
228.848
460.589
55.0851
567.456
52.9251
1774.5
57.1905
70.5702
1238.4
138.67
247.002
56.9883
560.749
316.015
195.187
772.659
136.493
697.607
64.0833
771.756
350.33
779.056
81.4197
107.492
495.021
809.006
606.367
551.416
818.035
550.374
161.485
815.32
109.92
801.027
75.7468
188.347
484.673
998.638
257.897
74.5172
212.838
117.025
55.3339
228.241
76.8399
287.62
152.427
661.312
801.856
664.117
55.8698
72.6021
379.751
483.491
304.027
868.789
1204.95
378.493
61.4442
55.2188
408.742
125.645
139.98
205.532
59.7941
819.204
61.5346
616.248
57.5059
95.7283
314.39
111.232
141.743
346.027
184.709
1139.65
1396.6
58.1874
96.5745
78.2995
75.8263
371.35
1745.69
1238.23
1053.31
57.7653
1785.62
2122.38
78.8845
150.509
1872.96
582.529
589.635
519.03
113.022
55.9099
306.324
55.1046
58.0604
55.4195
56.3875
54.9911
54.7452
59.49
58.9283
58.9307
96.1622
88.401
92.268
127.71
84.6114
341.052
56.2112
187.541
687.843
179.389
168.401
67.0575
55.1917
58.4087
55.5065
55.0652
61.1095
1773.29
1335.64
263.137
55.2508
56.3482
58.4581
58.6691
67.1179
876.788
134.026
866.884
412.919
63.4549
127.134
61.6588
589.331
55.3818
55.2532
55.7641
54.8853
192.77
416.328
273.926
124.441
485.249
637.667
596.676
63.1792
63.8102
54.0977
1593.63
701.441
1736.65
447.268
649.548
609.479
61.9386
60.9833
287.017
256.543
66.4972
74.0218
79.2768
205.8
178.794
55.7427
65.9823
76.1599
331.845
876.003
55.4183
85.8672
67.242
74.2885
188.597
104.419
54.8135
88.37
135.891
341.536
90.7661
107.93
522.747
80.9705
1351.59
55.9383
79.8986
247.273
133.627
1755.06
585.292
490.449
337.142
566.712
1085.16
943.194
56.8693
2009.02
179.91
1225.85
103.805
1194.93
78.7248
644.804
566.149
1614.42
381.113
513.337
1693.4
359.015
216.379
811.418
681.807
116.143
819.347
292.894
77.7126
701.681
59.4246
121.804
58.1131
187.562
382.361
67.5762
804.228
288.717
69.8631
148.69
103.298
314.607
63.3779
196.648
407.454
54.6941
243.33
55.5342
452.995
581.86
204.592
72.2525
93.9546
577.205
2148.27
133.941
173.578
88.7645
63.3813
150.697
78.9434
277.531
123.084
554.686
187.531
197.637
773.82
746.698
658.794
566.354
548.196
284.173
930.373
1113.8
990.075
786.377
737.103
74.7238
114.705
85.5507
262.062
129.753
128.965
272.641
162.732
147.907
81.1743
75.6616
71.8096
76.366
53.765
633.811
101.436
199.302
324.306
999.211
54.6185
1124.04
56.4597
291.632
483.714
57.8696
1127.34
376.998
315.583
1080.93
68.9507
61.3587
484.466
59.4948
61.556
529.858
62.7961
57.393
52.389
207.543
91.9882
55.101
77.7782
146.693
72.4966
119.738
1468.05
91.17
99.1998
71.3881
57.781
229.245
57.4738
113.493
89.9675
160.92
82.456
705.975
1103
149.994
72.8938
62.8259
354.454
62.391
55.5561
55.1693
58.9301
69.3314
62.6605
54.9679
95.9573
82.365
251.956
520.02
60.315
970.147
128.628
57.7658
649.097
1533.74
239.183
598.621
78.0098
54.5645
107.422
1016.88
61.3015
69.8758
60.5663
1804.61
232.411
541.459
88.3021
76.764
92.7599
1798.77
834.776
1723.72
58.8666
70.5145
626.548
94.0851
62.1951
65.7936
86.7888
779.229
60.6297
56.9142
59.0683
740.959
58.3623
54.8983
107.948
65.0059
1056.21
53.9113
82.7945
863.574
130.343
402.904
1007.95
967.049
263.953
59.5795
160.179
579.397
411.114
83.6823
309.473
54.1605
848.838
175.836
832.811
65.143
109.945
58.0636
72.4908
57.0632
69.0494
126.76
118.985
140.991
59.6258
59.2722
95.6138
66.6064
486.833
73.7107
178.38
61.881
72.3013
103.082
55.1924
179.011
745.471
202.861
59.0556
98.4816
62.5001
190.244
429.619
85.1738
57.5954
90.5863
53.4163
60.0512
228.672
145.138
391.463
119.99
348.299
137.573
390.427
948.979
240.634
55.8938
72.2896
251.752
87.4738
62.5442
749.979
766.384
64.3559
349.249
55.6101
55.1018
515.591
80.5456
872.515
721.973
60.3456
59.047
52.1176
184.234
60.506
78.1972
408.606
65.5573
190.769
107.516
70.1248
57.0627
88.894
59.7198
150.586
106.212
645.158
400.557
59.1346
67.0833
57.219
53.8716
78.3453
70.039
54.5454
177.334
55.7315
65.7429
57.2547
1184.36
63.3073
748.547
63.0158
54.2668
575.049
75.5632
334.99
71.2613
65.8149
64.7354
319.35
60.724
63.371
61.7687
1047.55
818.619
917.369
399.558
199.684
95.7809
59.2977
204.292
256.016
102.327
2547.42
865.504
395.461
129.638
246.334
451.552
54.8372
70.7418
57.1355
90.2638
138.888
121.51
1717.15
1212.62
77.4583
186.685
56.2204
58.9671
211.138
56.0575
786.617
139.392
72.1145
55.2734
55.2973
237.02
1037.63
617.242
582.23
529.783
205.678
634.61
366.823
164.942
197.115
137.51
200.161
339.477
116.642
216.224
427.831
927.844
116.229
1243.95
160.034
314.751
1011.9
126.639
102.583
101.682
57.8333
57.5425
58.1235
58.2317
59.5131
1295.44
137.546
104.777
97.262
168.055
108.689
1115.06
327.67
370.973
329.549
360.514
154.454
60.5494
62.8521
59.6935
58.1969
65.0042
86.9094
71.6802
54.5829
81.9081
56.5877
76.6401
58.0459
85.2846
66.0286
1325.66
195.637
547.196
61.8052
195.948
199.489
158.236
162.77
62.5167
69.7535
61.7518
128.608
150.807
145.515
62.7302
59.6964
64.8987
67.2476
58.9597
63.523
61.0596
55.4213
59.8445
116.723
81.5004
62.0607
409.557
140.531
596.572
61.7912
122.049
268.855
98.5551
56.781
60.4791
60.0373
55.1978
62.4914
63.5107
70.8577
75.1795
61.5532
82.2983
73.2226
164.164
54.1766
225.794
1535.94
62.7523
101.664
291.697
63.168
63.7187
69.1235
168.994
502.382
1006.16
1185.73
427.41
1173.56
1266.76
2073.55
1497.17
59.3755
59.0802
271.897
316.279
461.335
57.6493
55.661
58.7763
744.468
59.0362
77.843
1102.38
218.126
116.389
109.914
89.6801
103.905
57.2895
124.527
313.596
80.6234
57.9133
56.9689
56.4291
83.2776
91.7429
55.9418
203.562
53.2251
57.1009
52.248
109.36
56.1689
914.776
774.555
657.307
58.2095
74.9914
52.9215
88.1927
85.0029
452.138
346.311
261.637
242.7
56.251
82.1414
101.369
69.8108
55.4669
184.574
142.154
97.7792
84.2533
1199.42
706.247
1112.35
57.8696
670.532
140.54
1462.6
57.7131
109.474
617.448
451.619
95.8382
249.874
68.5396
290.451
1233.53
1110.62
57.2137
137.719
60.8095
205.921
54.153
69.6679
139.286
57.419
452.799
918.469
709.663
935.464
782.088
641.116
68.6158
91.2007
109.618
59.7202
131.18
760.11
892.744
1130.47
969.496
1292.36
1358.49
90.1738
1537.02
82.982
864.938
2046.44
873.329
1166.68
1232.32
572.561
1177.92
630.555
1236.85
119.029
118.201
145.147
378.016
64.7778
65.2592
64.2148
103.923
61.1601
158.435
207.051
111.477
65.806
80.0927
99.6947
89.8474
112.698
67.7238
72.8228
68.2792
60.2473
66.1667
103.066
78.877
79.2015
127.183
577.342
71.8804
931.373
68.378
162.406
536.14
1040.71
229.076
304.076
91.1424
95.9132
58.415
647.593
52.8372
325.694
283.651
79.1274
59.2291
215.062
58.8876
490.248
106.626
397.139
397.476
359.177
61.0278
57.5404
435.264
178.493
95.7757
546.353
84.5114
416.075
329.391
295.877
55.647
66.6656
131.838
278.051
329.727
72.2076
60.2747
62.0381
650.454
142.712
55.061
55.06
93.0769
54.873
60.9549
67.7663
53.5379
60.4911
58.4407
55.6102
1048.72
404.05
915.524
1093.61
1010.54
1296.1
620.077
1156.28
1219.25
1257.73
1010.86
72.7726
62.9745
90.5426
78.482
226.923
58.2105
102.966
97.5109
379.575
264.603
246.883
147.723
183.775
486.684
250.262
440.238
1406.92
728.316
984.022
1276.34
1082.61
67.7717
55.1999
1142.81
404.043
53.5919
61.0635
66.683
66.493
437.81
68.1631
82.4692
57.8724
56.0452
1415.59
127.347
55.844
56.4397
254.652
77.7197
70.6567
57.4846
957.849
882.288
204.013
274.071
1221.37
273.239
71.3901
1730.69
73.1553
136.828
62.4027
62.5539
62.4101
54.8881
55.3138
67.5976
53.9314
55.5572
302.606
53.4793
71.1686
206.773
77.7838
79.6403
305.362
184.345
68.2224
109.93
2136.41
454.635
72.7633
144.798
55.6792
268.724
258.286
78.0185
57.3391
130.94
113.289
157.267
1194.87
479.603
271.825
212.528
100.148
144.906
55.7344
58.1321
65.2417
55.6392
75.2735
66.2666
434.521
122.742
523.315
1356.24
1000.59
1322.18
442.452
782.281
1247.93
633.298
788.682
166.361
123.327
61.7224
123.517
85.46
70.2833
104.194
61.9761
56.3849
77.3602
63.1759
110.554
58.8893
55.9607
531.843
284.395
53.9405
413.674
56.496
482.658
55.1309
56.8731
60.815
113.079
63.0915
64.7973
60.8664
453.993
85.1974
928.99
767.763
271.27
835.557
72.7299
107.264
876.906
637.744
71.0201
63.1672
109.925
878.282
73.1856
291.145
101.818
97.8928
76.8416
167.437
80.9814
61.7815
82.9317
75.7186
118.005
54.2843
2213.52
371.515
87.6985
1148.42
60.9442
53.6806
1047.77
67.6434
407.347
1256.39
344.68
622.367
61.1449
596.692
260.582
70.3556
144.075
542.724
291.689
592.187
548.893
733.543
983.05
1345.41
1195.17
800.393
63.9137
414.655
453.25
952.415
116.268
1369.43
154.759
636.905
62.2776
61.5571
960.361
727.965
1201.69
1303.19
1033.28
852.287
614.657
180.215
66.8398
655.622
158.084
678.138
138.422
217.02
171.401
311.793
54.9384
684.966
717.131
58.577
54.8357
86.8005
956.107
71.8578
60.6608
154.078
68.7051
59.8587
681.179
352.62
80.7825
892.352
62.9815
79.6626
130.327
93.9688
60.1377
145.067
238.098
58.0115
82.3522
57.5916
63.2724
53.6705
102.415
95.8948
135.229
802.365
156.094
812.6
87.6965
683.229
395.29
418.459
194.98
152.979
690.992
109.343
764.965
892.122
260.744
1001.83
528.726
217.129
230.584
885.678
1670.58
908.783
789.648
78.3406
87.3038
102.203
95.3594
89.0768
95.9126
62.657
205.089
65.2303
459.286
65.0292
201.835
196.95
54.5882
54.5519
318.505
159.198
58.666
138.301
1618.44
421.199
187.519
726.713
736.599
304.347
155.846
310.212
768.001
146.348
55.5738
58.4486
78.9028
57.3552
76.1685
257.397
1729.15
1446.5
320.506
385.595
819.39
227.165
72.6006
63.3464
67.6436
234.281
63.0888
61.7756
55.8177
159.158
190.372
142.803
56.6034
108.534
85.2645
63.5996
58.1258
74.6873
156.954
55.0759
319.922
60.9859
71.5048
137.477
318.482
1229.69
149.896
115.766
87.3568
1161.24
1157.14
68.4129
79.4685
81.3084
1035.79
848.338
101.825
184.286
118.998
56.3811
58.9255
56.2747
56.4036
57.5293
56.6537
56.0513
57.5843
58.1334
56.9707
62.8411
56.9856
54.2729
241.936
136.744
106.114
542.69
502.015
257.602
286.149
56.346
58.9989
62.2245
67.3807
87.026
96.9755
814.533
914.334
645.745
254.172
1546.97
116.976
501.336
1055.9
189.818
1607.47
871.01
1455.82
812.374
242.464
1405.53
94.5296
740.005
137.714
1822.48
329.326
209.381
684.671
81.2801
384.404
1939.42
125.639
289.504
285.763
167.108
61.5438
477.624
122.538
709.246
819.651
418.519
99.0895
224.022
91.6778
346.236
93.1374
556.135
1364.44
1560.12
78.5741
74.8355
246.462
813.56
1925.3
904.399
216.312
1031.98
205.317
139.463
331.552
1463.45
1828.13
1564.76
1641
59.6249
57.1903
67.6025
1247.18
59.495
677.27
672.425
221.197
570.852
56.5644
55.3939
85.8509
218.639
333.862
860.311
57.0154
900.849
92.4472
1308.28
1426.07
771.451
1470.02
1389.75
65.6826
67.6021
55.414
239.21
1484.83
1327.13
2257.06
432.456
1033.72
54.5717
56.7367
55.7681
55.0725
53.6651
55.4256
54.7899
80.3809
57.5485
82.5986
1294.68
799.348
184.914
57.3955
52.3506
68.6136
182.542
53.2855
56.8002
213.65
67.4255
78.4433
76.0483
85.9534
573.385
66.5667
337.124
1008.44
118.574
60.6941
70.5458
151.414
59.8911
64.5497
74.3204
59.2186
77.3316
766.507
394.154
198.273
71.5445
475.1
120.807
561.038
55.4795
55.4817
816.568
111.934
1908.19
1567.53
184.163
504.647
90.8388
69.2262
294.408
796.072
157.371
143.113
125.993
551.641
125.693
169.316
117.393
543.206
925.063
71.3251
54.3762
130.641
347.889
93.6544
465.089
377.271
733.79
1113.96
151.219
83.3514
58.9046
56.2341
65.1376
60.0472
66.9456
82.3393
806.586
864.891
485.391
1334.37
776.055
914.823
1390.46
704.583
719.953
887.535
795.634
60.1789
843.002
74.1765
66.221
241.192
883.428
72.358
89.5007
56.0693
126.291
71.8475
263.032
461.308
69.7335
90.5365
174.836
212.553
171.095
517.688
389.33
234.542
174.354
85.6119
57.8789
107.544
1232.24
1183.48
180.656
326.401
482.396
1210.58
1124.24
1000.91
147.566
1869.96
432.151
155.526
325.953
623.434
475.469
489.386
515.324
64.2385
56.7134
54.5858
69.9151
58.2015
57.6378
62.3893
201.693
99.9289
54.7534
60.1123
61.1063
52.488
1218.93
1344.86
1494.58
444.836
88.4752
103.811
133.907
112.603
144.867
90.0345
68.35
92.9491
62.5322
59.8853
890.655
108.574
472.509
88.3052
116.98
64.3751
195.419
54.3075
622.465
161.821
343.023
189.104
62.853
57.5839
1360.48
516.827
183.185
76.2749
619.935
79.0889
198.442
1063.61
1119.7
639.248
871.987
881.015
145.334
949.41
346.04
135.012
63.5205
94.143
104.179
63.0834
560.905
128.128
59.3261
1109.98
250.155
56.6129
239.804
423.044
54.8858
61.8362
58.5424
69.9209
813.019
103.351
573.68
59.1788
186.711
66.0445
158.518
243.925
146.435
610.675
128.164
292.72
308.226
435.587
583.4
1240.51
218.679
241.807
402.146
103.054
95.5488
78.0961
57.768
68.8923
60.4631
377.305
65.3683
56.7831
55.7167
57.3087
117.155
84.2441
129.763
77.3245
67.9249
72.2894
57.1979
62.5067
62.0388
55.5062
56.9207
54.4274
65.7906
62.8905
70.5637
95.3444
130.428
91.8586
74.1448
161.113
60.5259
55.5079
62.7117
480.422
55.3235
57.917
126.696
72.4629
54.9543
665.43
196.845
86.4528
57.1989
63.5469
59.574
57.5903
145.47
771.153
67.0827
750.275
54.5351
57.2349
58.4294
926.472
1004.14
80.7002
450.418
59.8664
1774.53
648.382
78.0729
317.781
137.795
1579.66
72.0867
79.3996
90.3966
69.8497
56.8018
1311.81
1697.89
72.4383
373.298
52.9828
66.9833
54.5984
60.3794
776.119
178.254
83.8544
59.845
98.9276
60.4542
68.8654
195.508
265.157
1066.99
54.1466
78.6351
633.423
79.688
56.9144
66.0705
55.9749
55.4832
80.0599
60.2694
55.4178
66.4654
75.1853
56.7174
119.635
63.2462
166.671
199.969
55.0637
54.4981
55.0873
186.967
164.203
58.3775
952.088
1094.05
126.912
2129.3
55.4294
2516.44
55.9147
76.6464
161.16
63.6889
854.508
57.1282
354.887
60.1037
88.0086
703.826
161.794
1171.89
1821.44
1998.16
1576.21
1770.89
1698.76
731.736
91.1616
1071.05
54.5289
62.9488
1419.19
1195.87
121.875
126.383
59.6437
232.204
74.4345
766.254
98.2881
88.3395
84.5182
1091.42
1337.76
1291.79
1451.27
1940.62
1319.83
299.334
57.8202
914.521
59.1366
55.1026
57.0284
55.9596
62.0818
54.618
55.7855
61.4452
67.6609
1534.36
311.019
863.52
68.5057
685.605
96.3415
84.0742
65.2519
67.9375
299.063
93.3669
63.2247
109.18
349.248
1509.68
104.857
294.085
1538.14
1048.96
1058.2
949.78
880.927
501.616
62.6811
795.373
1359.12
89.6822
1194.78
683.771
564.972
174.745
147.042
258.609
330.816
316.012
273.911
433.769
566.938
89.1298
106.34
408.455
1807.49
2172.35
288.613
61.0794
122.702
54.9646
64.4651
1128.49
280.777
214.82
762.307
73.9966
54.9142
55.0307
67.7522
69.809
150.952
54.374
144.292
144.016
80.1987
414.331
61.7332
55.5703
62.3973
72.2327
64.6252
81.1725
58.1113
68.4672
63.1112
65.1663
60.0663
2196.31
114.415
105.615
786.661
95.1981
392.06
124.938
324.342
609.667
318.942
439.584
200.879
93.5362
123.333
63.5209
117.257
102.068
60.2596
55.0642
73.8444
82.5351
63.4713
72.3329
63.8708
71.9989
67.2573
818.174
995.003
664.626
798.27
99.5722
108.813
105.506
168.764
55.1877
56.4359
982.336
75.6784
78.1164
59.6179
413.36
62.1911
63.1146
57.3487
69.1768
173.956
131.957
59.7513
531.905
99.8321
126.366
86.8651
122.494
77.1958
72.5586
80.8962
1171.37
1196
801.662
1324.03
1824.5
620.52
1147.34
790.854
1076.24
1750.71
1186.75
1880.61
134.504
1371.53
983.409
784.823
162.788
103.545
196.379
57.9517
1946.62
186.447
914.205
759.562
60.0131
59.1089
252.532
66.4922
67.2552
545.832
148.232
510.582
75.9542
986.785
147.687
524.102
519.968
55.1891
91.6378
55.2658
62.5944
55.4816
59.4125
141.154
1602.13
76.6122
196.951
333.98
81.6175
118.484
127.965
56.8286
112.039
214.741
873.091
1422.86
241.256
1026.18
57.2232
55.7581
229.29
276.957
300.905
116.096
445.419
155.468
133.8
113.822
103.445
69.7261
136.965
65.7515
131.754
133.233
444.666
438.244
227.858
151.524
56.3806
63.5639
185.282
620.996
922.73
170.499
175.164
718.996
194.532
102.01
159.146
199.17
300.502
342.086
396.877
136.318
143.088
807.869
201.4
162.088
287.98
610.804
202.346
63.9313
59.3671
61.3891
55.0248
273.294
171.236
75.4724
80.8703
160.679
59.7649
63.0925
59.5064
66.6347
59.5883
70.4788
73.8113
78.3557
229.299
378.721
58.2419
201.466
90.2504
442.993
82.7047
1157.83
66.264
262.645
315.419
1228.32
564.649
1140.97
122.877
724.962
135.709
99.4695
312.995
67.7599
89.6416
482.073
205.601
231.257
102.798
194.566
88.288
594.108
135.923
221.776
110.797
98.151
176.464
130.321
55.2521
1159.95
1017.03
57.7151
56.6737
57.193
63.1157
1647.15
1566.62
275.056
543.831
64.4173
67.1961
69.2937
340.339
559.736
616.33
425.088
67.9055
688.16
591.774
438.679
448.027
54.9966
1432.7
169.885
246.952
209.654
758.781
864.098
460.676
247.086
54.7894
57.7716
437.159
67.1813
56.9375
205.457
178.038
172.827
185.981
514.593
87.4491
98.6337
67.0994
829.726
65.6456
55.5482
54.3262
55.2681
53.9166
55.1694
67.0804
60.274
54.8749
71.7083
75.8449
82.1722
74.0621
59.9042
64.4698
63.7132
586.082
66.6316
372.469
61.5046
171.629
113.182
58.5982
57.3962
104.003
898.468
255.065
71.5845
59.7854
79.3647
78.7478
91.5103
256.037
83.4756
87.7982
314.735
107.2
59.3894
72.8087
172.165
192.755
384.571
253.245
1233.25
523.021
572.121
82.3812
78.9292
109.595
72.6253
81.3042
71.1151
429.116
58.0756
112.454
105.762
151.976
107.733
60.1325
738.257
842.864
852.096
1198.26
950.05
621.309
447.132
59.7532
1272.62
143.481
89.8557
78.7026
73.0894
57.0045
55.0977
64.3187
61.6505
58.3817
63.6841
412.338
468.596
1209.4
788.14
99.5891
71.5397
70.9793
66.1868
57.5557
57.2379
291.602
115.935
552.878
56.7415
211.507
54.361
749.163
129.696
56.512
62.4376
1122.42
206.657
694.921
68.0742
66.9105
578.666
59.874
65.6333
52.5088
54.1815
58.6502
73.4761
53.8712
544.793
52.6112
400.362
169.451
74.9975
53.8725
1121.68
77.5497
59.6203
1345.03
160.788
61.7583
59.4303
78.6996
65.3448
203.576
434.554
288.98
325.617
1717.75
1564.25
844.194
223.662
436.581
542.248
588.207
1597.16
58.0496
58.4838
59.1685
286.409
364.55
175.032
847.536
135.156
119.571
71.7625
70.6312
58.8923
251.529
1482.67
142.669
132.856
1739.26
297.084
382.795
808.917
59.1293
123.474
69.62
95.7963
100.956
304.05
264.678
255.189
392.434
330.405
88.9321
52.963
84.5367
66.3094
59.167
678.957
229.287
277.983
476.8
469.368
54.095
56.5967
64.8479
60.8639
63.6565
76.9101
63.9275
229.383
436.693
651.938
463.764
463.619
271.955
212.83
164.589
383.038
941.407
130.853
602.502
614.996
427.823
85.8726
257.071
122.043
600.302
593.166
723.428
85.8527
183.915
692.214
83.3684
80.5557
74.3162
183.073
347.166
61.1597
207.663
59.1801
60.4145
87.0294
718.565
743.547
57.6847
110.696
61.5072
58.8447
61.8018
60.8212
56.7738
85.9406
72.8291
867.019
136.418
154.848
504.876
269.598
234.921
65.3044
785.004
737.961
607.334
543.014
503.565
566.718
430.167
430.988
1958.37
543.763
653.819
815.222
395.614
73.3353
61.2707
54.2668
54.8082
81.8551
2417.17
59.6151
55.4476
57.6678
356.626
159.606
146.989
844.018
180.964
748.765
1099.43
1232.54
150.503
180.156
938.574
79.4654
74.1217
405.791
71.6753
69.6565
83.0386
58.4285
202.055
61.733
62.8942
56.1411
55.7121
86.3115
325.454
100.898
202.065
69.8126
424.506
1999.64
598.519
67.7244
165.811
1675.57
63.1936
83.1982
132.368
137.528
397.073
234.102
306.402
75.4076
72.1421
70.5856
70.1076
119.653
1954.4
888.102
123.44
57.4553
174.478
249.786
1075.93
642.99
551.363
1664.28
171.564
88.3996
154.297
1718.23
858.622
54.5157
78.9272
837.283
697.369
677.202
81.9061
841.068
79.3363
393.25
158.71
54.6658
55.5811
54.5722
56.4295
57.8769
56.0129
132.285
55.5241
74.3739
120.718
58.104
62.6799
54.219
54.861
60.1469
66.8392
132.392
221.578
117.812
275.019
219.962
1781.96
208.659
824.819
74.9494
87.3419
200.65
186.406
1851.93
57.6021
57.2867
63.3649
676.316
194.293
238.482
79.5031
370.153
341.427
245.891
73.3317
57.2945
927.542
299.475
109.08
2058.09
55.5602
126.305
68.1119
372.018
55.8647
66.0104
58.2039
74.0483
817.711
480.709
100.782
108.813
2124.77
679.49
1439.29
502.12
368.877
1153.3
223.289
55.0716
92.9496
1067.82
57.7227
332.349
218.276
126.763
628.911
346.899
306.007
77.2902
55.1414
139.222
55.5179
63.1422
150.543
84.1595
91.5237
59.9023
59.6543
603.999
401.35
135.118
58.3582
147.139
72.973
289.726
297.751
1606.2
395.411
952.717
745.971
63.6252
80.3355
253.859
2006.95
575.659
77.3985
655.512
73.2049
72.7212
72.0436
80.2023
488.948
393.5
163.613
495.673
530.848
58.6266
1479.76
337.535
499.104
445.597
240.404
247.353
58.0965
55.9035
220.339
253.656
552.989
1077.03
1654.22
188.259
768.168
720.242
1335.95
1004.39
254.743
233.056
129.131
385.283
639.511
60.2618
179.948
55.7488
85.3204
72.2655
255.572
779.801
252.065
63.2957
82.3442
70.3569
288.96
1728.4
2202.2
1174.08
5110.91
821.113
1241.03
326.307
56.4989
119.792
1494.09
74.3533
712.99
81.6452
177.3
85.3538
173.841
62.5371
1096.07
815.798
1429.46
1274.29
1341.18
68.5782
97.044
85.7806
94.5735
108.237
54.7196
70.5509
69.602
1065.2
559.917
1072.3
847.205
132.111
117.28
178.8
60.2955
59.8185
472.075
58.9708
96.8685
151.443
60.1105
67.7287
57.2004
56.849
62.4227
65.9058
59.2381
53.6648
157.542
1022.81
821.331
84.6706
653.562
99.85
76.8355
82.4385
58.0972
59.3063
916.397
60.7918
56.8017
58.73
66.576
62.1749
62.3944
68.4264
55.4361
57.0287
58.4689
54.8903
55.905
860.81
64.4955
55.3468
214.924
1493.53
334.348
429.171
343.236
580.31
522.573
388.761
194.803
326.261
1126.11
176.158
1076.01
509.126
1265.41
674.413
459.955
817.508
731.722
785.485
77.4397
173.165
767.037
1319.45
53.6086
574.069
203.938
55.6709
161.08
1892.13
521.374
2444.41
125.01
796.298
172.434
324.908
123.882
52.82
801.533
852.956
781.13
715.769
831.552
819.385
429.075
694.307
320.68
528.434
76.5215
841.128
1047.53
611.697
1036.2
616.976
874.874
74.291
214.906
56.4756
72.7576
80.01
58.1189
115.157
57.9433
58.4695
72.8551
58.0734
100.852
58.2182
57.9624
94.3503
101.211
64.3209
79.9504
56.8661
73.1117
60.5495
822.243
377.277
177.409
438.776
91.3145
141.658
60.0028
1003.95
918.299
875.585
853.686
72.0089
557.103
61.9556
55.1121
182.525
541.297
156.155
112.382
406.33
56.2403
54.8907
83.2167
69.053
60.4233
660.477
257.735
399.977
165.73
654.863
619.728
427.551
289.039
194.324
2077.52
869.95
62.1908
55.2106
55.8475
2287.43
68.5744
62.153
61.4446
1088.44
72.2959
64.2856
55.4705
56.2958
173.101
178.904
530.915
197.334
626.633
61.7766
70.173
65.6011
157.232
66.0608
518.391
106.51
1641.65
67.9351
310.375
1239.91
1164.65
451.898
523.532
211.619
333.071
239.074
198.564
343.99
140.703
71.1906
1725.79
1493.93
937.519
2298.88
277.704
1601.22
1629.39
3393.09
366.202
878.892
57.632
55.4029
57.1096
59.2836
212.885
59.3499
58.2705
1294.6
307.858
69.3202
801.994
116.419
76.9151
71.1947
292.209
98.3069
58.0865
54.6232
140.897
107.953
59.4672
246.131
110.066
627.082
655.597
55.199
868.843
1018.38
1045.79
1125.45
761.869
470.03
554.712
1146.43
117.847
980.712
80.5533
180.407
235.219
308.685
148.611
87.0178
70.997
75.8778
2297.77
88.9897
2009.7
1961.37
1164.13
78.0624
1054.59
947.733
65.9774
103.146
64.374
632.942
535.733
97.9276
1305.27
66.0653
74.1258
100.435
91.3753
186.216
884.9
139.875
88.9952
334.304
130.977
146.74
139.159
193.705
56.9965
110.64
68.4576
55.9143
58.2295
95.1056
457.434
67.9952
247.001
360.095
76.4831
136.318
688.18
621.746
581.068
555.866
664.55
713.134
782.353
125.688
84.4971
1962.45
1139.8
686.301
202.262
970.882
623.048
552.067
667.791
803.035
80.2045
226.057
978.274
1242.4
73.7719
58.0617
277.11
77.8455
82.6493
57.3509
56.1647
63.3136
71.5738
198.082
61.3125
768.913
646.247
1554.43
706.755
1944.59
219.225
55.4863
261.875
336.428
138.855
57.8556
64.3357
59.83
236.114
140.23
406.284
516.016
1055.6
469.859
795.801
517.617
609.061
673.322
900.252
615.018
1595.99
1251.52
1934.69
779.653
960.806
846.739
194.185
229.678
2005.2
63.1416
67.3434
88.7316
64.7397
60.5568
75.1479
61.6671
214.451
58.3861
87.9713
143.109
61.4608
54.9685
60.0728
114.222
61.4252
103.262
1287.19
1061.56
229.434
79.789
2272.83
1634.84
1181.51
1562.91
481.574
382.949
580.554
564.235
668.402
1117.52
812.417
133.266
64.8197
64.0912
57.5407
68.3509
82.8317
62.4537
77.1141
72.1751
62.3294
56.8188
59.3951
79.5884
77.5327
1973.91
113.532
2072.53
245.8
224.177
81.4649
52.7377
73.8623
144.609
79.6375
54.9773
75.5213
77.8199
73.897
79.5123
80.5584
586.043
292.851
435.39
107.911
219.135
1736.36
1539.5
55.3839
68.9699
126.508
659.451
1541
55.858
54.9819
56.0286
61.0227
98.0123
183.039
1795.24
85.7052
235.484
207.665
107.504
107.296
91.0622
55.5865
73.3556
56.2807
61.0315
82.9533
55.0601
1194.05
277.359
750.03
353.487
244.816
240.156
146.319
1118.28
515.624
65.1918
569.854
636.923
505.855
423.997
348.811
517.894
55.1238
927.7
76.4324
73.0733
65.5757
57.5926
153.704
76.271
64.4547
284.732
51.9908
54.6619
54.6379
60.8951
54.1114
62.583
87.0245
57.2098
60.3761
646.398
132.536
141.882
65.7518
56.0571
107.83
93.4432
74.9863
487.509
168.27
584.724
197.632
70.0859
482.749
74.8956
398.038
105.725
67.7258
170.178
77.4948
80.9441
173.918
133.271
69.2947
66.4743
60.675
80.008
78.4699
72.1556
117.541
504.885
689.234
756.206
192.575
419.924
168.476
814.485
508.527
237.537
54.798
1649.52
1429.54
856.92
1102.66
1413.34
663.005
420.792
1243.83
675.794
849.295
419.863
247.072
72.2943
55.2822
55.6634
57.619
366.446
61.4441
684.739
65.2667
67.079
204.285
54.6698
55.349
55.1029
65.0784
2585.18
291.45
1049.24
148.949
58.8811
291.068
54.2396
61.4484
61.752
269.656
80.2337
1487.25
130.088
238.338
505.611
109.941
422.671
57.3044
77.7196
332.884
138.208
621.931
962.987
1625.33
1588.76
1201.35
979.641
133.735
824.405
54.7359
67.2785
56.9926
76.7578
100.744
421.299
112.805
100.129
776.807
233.464
306.418
887.801
101.747
617.618
721.389
1025.1
731.944
619.148
606.38
1048.86
766.325
753.11
452.323
577.33
485.108
533.985
504.33
305.514
297.505
51.6579
66.7412
61.8114
60.788
61.7164
62.9074
63.7664
62.7202
81.8441
96.3686
71.2637
63.7106
65.0012
59.2844
59.5088
62.9902
118.663
86.4897
87.4935
54.1964
73.1024
71.8713
142.815
59.3493
68.8512
163.353
107.56
57.1351
60.8731
160.659
147.182
71.501
62.9304
89.6938
807.109
903.007
156.583
280.086
1776.11
2045.28
932.895
362.685
97.4304
89.8087
710.093
162.741
461.764
1717.99
1638.44
1463.01
1263.81
237.697
1373.08
550.749
391.596
669.637
513.827
417.007
353.554
531.693
591.516
1336.97
355.447
705.588
165.971
210.233
480.242
299.164
1808.75
500.729
595.75
149.831
428.94
506.743
80.3073
65.1302
74.7418
1280.87
56.9774
55.1432
87.7822
98.7718
252.38
118.947
117.722
93.4021
59.4315
93.3887
53.9702
122.359
55.1493
54.5632
59.3872
56.5104
57.3019
53.6197
83.4117
165.192
127.369
96.26
457.59
147.686
85.2555
117.65
79.888
66.937
68.8738
91.2783
166.642
66.1582
619.296
748.126
664.817
715.429
287.655
720.187
73.2772
54.7625
185.006
491.505
60.9521
63.8975
211.586
840.663
63.6416
63.938
60.057
90.5149
560.886
65.8071
60.1772
762.368
60.6442
725.585
291.001
151.518
71.1445
90.0196
435.032
93.6807
61.7728
294.966
61.3943
65.5527
57.5314
246.031
278.336
248.555
105.599
169.329
63.4882
101.108
490.318
60.5501
134.57
65.7213
57.2723
65.5023
92.7534
69.395
1717.73
1492.01
90.3655
126.775
759.9
1014.51
972.323
794.388
99.0214
241.907
819.739
834.472
1080.81
591.954
620.764
53.7894
88.0924
63.1271
56.6
256.447
565.623
91.9788
1001.72
585.396
1353.29
1306.26
943.819
1242.21
1497.53
1333.24
111.95
232.778
284.559
54.8553
136.821
84.6637
118.336
799.97
192.084
811.839
715.945
468.962
195.432
880.387
243.337
132.978
73.4085
82.5554
61.3332
57.0126
75.1628
960.699
888.592
1261.36
131.12
571.785
71.2645
856.146
123.417
96.0214
62.8542
190.863
59.4194
206.621
587.92
183.766
62.6226
79.399
357.749
181.08
171.355
60.8196
82.7227
88.73
75.5025
71.11
63.7781
73.4329
70.6422
128.089
87.7189
108.178
108.972
120.017
69.7187
122.996
79.762
366.426
411.664
173.775
983.847
2564.98
738.863
1484.98
730.466
65.5596
55.8838
59.6559
55.9657
53.36
1228.86
385.052
128.082
431.959
705.266
305.764
1079.43
244.726
572.324
394.018
307.702
319.506
159.935
78.3658
65.8371
64.3422
65.7288
65.0559
673.855
1591.74
1810.02
59.3096
71.3966
56.6416
72.2316
60.5873
115.798
92.7998
62.4077
98.3868
59.371
59.262
54.5308
335.181
1539.38
1017.33
79.5057
98.5791
85.3215
107.952
54.5748
56.0568
77.0312
60.8146
59.9918
129.157
63.449
59.5024
81.8287
87.3821
145.791
399.776
239.189
193.196
122.979
339.679
117.403
624.187
84.1826
53.4143
57.4608
926.346
183.134
477.767
374.746
524.525
321.844
756.985
360.466
839.402
67.5067
61.8127
102.786
90.5773
70.0403
62.7936
83.8249
187.502
82.0887
72.778
54.96
62.9095
56.3512
54.6082
69.2293
70.2041
54.9485
63.83
62.8501
72.3894
61.0205
81.0167
91.3599
78.9494
61.8097
55.6304
54.1166
54.7518
266.806
244.444
1668.17
932.593
191.898
67.8075
78.2357
59.8546
499.095
66.503
59.2208
111.582
175.969
108.348
150.203
1831.75
115.408
1082.58
197.539
60.3138
65.1057
58.3611
841.829
1077.57
440.133
795.547
98.301
109.765
100.966
78.9278
121.402
165.654
830.896
61.071
73.3
104.992
873.014
119.275
90.1997
211.504
1137.6
509.304
733.983
216.003
177.602
491.283
512.344
99.8677
99.1783
78.5573
79.4096
1527.69
476.927
51.9361
60.0409
135.588
52.3437
51.4314
64.7306
159.142
55.1926
53.1638
53.7405
63.8824
61.9637
86.8084
54.2635
481.592
850.448
707.345
580.924
845.424
73.806
65.0304
99.3745
68.5225
125.616
1478.71
246.711
322.628
226.917
1350.84
76.6834
60.2217
67.3623
105.025
57.0657
64.1493
79.0578
224.748
895.657
254.45
366.515
1099.17
93.3426
721.271
463.032
575.645
844.846
292.686
624.092
997.179
1058.8
975.891
1366.54
1172.32
216.749
572.655
174.694
60.5887
656.563
56.1181
58.8078
223.388
109.631
92.1343
226.622
55.0122
99.7001
170.862
774.213
466.328
117.003
127.657
445.266
245.248
676.94
59.9868
68.9665
63.8078
503.898
68.7084
66.8802
908.919
1198.68
1136.81
682.571
1047.28
770.82
765.746
692.309
724.31
1944.92
1335.39
2296.09
77.9377
74.2741
64.9832
950.181
57.2992
140.849
501.17
154.75
65.4779
441.576
713.384
872.318
596.101
996.636
59.4491
74.0252
76.1218
122.016
65.499
61.2538