/*--------------------------------*- C++ -*----------------------------------*\
| =========                 |                                                 |
| \\      /  F ield         | OpenFOAM: The Open Source CFD Toolbox           |
|  \\    /   O peration     | Version:  2506                                  |
|   \\  /    A nd           | Website:  www.openfoam.com                      |
|    \\/     M anipulation  |                                                 |
\*---------------------------------------------------------------------------*/
FoamFile
{
    version     2.0;
    format      ascii;
    arch        "LSB;label=32;scalar=64";
    class       volScalarField;
    location    "0.0948794";
    object      k;
}
// * * * * * * * * * * * * * * * * * * * * * * * * * * * * * * * * * * * * * //

dimensions      [0 2 -2 0 0 0 0];

internalField   nonuniform List<scalar> 
3972
(
0.310628
0.292342
0.272433
0.267461
0.751217
0.324682
0.283831
0.297172
0.285685
0.34216
0.301063
0.303288
0.351694
0.275833
0.276276
0.276401
0.272533
0.305839
0.274945
0.278274
0.986293
0.488634
0.320005
0.272832
0.900229
0.285692
0.275769
0.298241
0.395447
0.276286
0.677649
0.446013
0.283676
0.3703
0.277046
0.279638
0.329636
0.275243
0.284333
0.338063
0.304411
0.301426
0.302101
0.398644
0.271289
0.277605
0.321616
0.427196
0.289004
0.283287
0.272423
0.290288
0.33554
0.304152
0.325811
0.270872
0.364276
0.293284
0.355268
0.479018
0.290087
0.346899
0.279531
0.305679
0.278008
0.37925
0.385927
0.336625
0.325679
0.455565
0.316137
0.310784
0.454964
0.280184
0.362556
0.276293
0.314315
0.304703
0.282401
0.374012
0.323791
0.307054
0.277055
0.286482
0.295804
0.348787
0.341234
0.317517
0.359652
0.342965
0.328373
0.319632
0.345873
0.311254
0.278701
0.283671
0.278957
0.278476
0.271477
0.282183
0.278617
0.276549
0.282901
0.275538
0.297545
0.285542
0.305583
0.297288
0.366893
0.2919
0.322394
0.273973
0.277862
0.386845
0.304252
0.307392
0.280422
0.377135
0.337096
0.319202
0.401617
0.357921
0.312647
0.346636
0.273019
0.671508
0.323157
0.627511
0.651644
0.807827
0.636474
0.318727
0.536273
0.530894
0.364419
0.345181
0.338376
0.336224
0.365506
0.294207
0.333346
0.2851
0.313812
0.36201
0.363319
0.318344
0.3478
0.282881
0.332745
0.334458
0.301642
0.295732
0.275948
0.34517
0.359709
0.289336
0.271781
0.335864
0.328048
0.390886
0.279549
0.283257
0.307314
0.32057
0.28515
0.336033
0.324014
0.373069
0.297516
0.342347
0.357173
0.276707
0.279207
0.27687
0.274735
0.27488
0.286415
0.277609
0.276258
0.278017
0.340044
0.348301
0.312362
0.363759
0.277324
0.278538
0.280175
0.28315
0.277514
0.822821
0.274833
0.275321
0.378
0.277596
0.279198
0.275255
0.279126
0.287512
0.431795
0.280538
0.279422
0.310835
0.333217
0.271997
0.274715
0.285217
0.276477
0.315347
0.387233
0.347368
0.360776
0.282069
0.601601
0.618087
0.278781
0.291979
0.388976
0.273652
0.312813
0.283678
0.277
0.342812
0.307782
0.276812
0.461013
0.276742
0.795156
0.427362
0.846727
0.406057
0.865015
0.678736
0.433714
0.652314
0.295642
0.285231
0.301068
0.281099
0.323259
0.303013
0.302069
0.61948
0.40777
0.306686
0.322984
0.271148
0.29138
0.271521
0.307665
0.29743
0.287299
0.682839
0.349853
0.358542
0.275891
0.303031
0.461272
0.398619
0.272764
0.367162
0.464414
0.327562
0.351078
0.283471
0.394862
0.320333
0.274212
0.33738
0.309727
0.289626
0.3039
0.369388
0.652953
0.438458
0.353585
0.399734
0.329939
0.356519
0.278819
0.276289
0.3093
0.447337
0.281272
0.541037
0.688334
0.672056
0.28657
0.285793
0.300392
0.296121
0.278798
0.29381
0.307389
0.270178
0.437642
0.354055
0.295529
0.464442
0.288791
0.626491
0.27479
0.284767
0.322581
0.355892
0.291173
0.285436
0.312574
0.312952
0.277877
0.3097
0.305914
0.260897
0.387514
0.283227
0.908414
0.280914
0.286278
0.278904
0.286195
0.291581
0.597589
0.84174
0.325896
0.278058
0.280816
0.29278
0.276613
0.282407
0.288405
0.368701
0.264116
0.45744
0.317585
0.276551
0.278197
0.347331
0.271795
0.339171
0.275116
0.389466
0.350515
0.279595
0.38933
0.275538
0.294554
0.277543
0.290431
0.295541
0.285635
0.328837
0.286327
0.312699
0.287782
0.270819
0.835714
0.387221
0.730087
0.283277
0.288888
0.286124
0.282875
0.278368
0.285388
0.391525
0.277432
0.276594
0.283608
0.285473
0.290788
0.275979
0.279654
0.283495
0.2788
0.281828
0.285492
0.266431
0.266545
0.361971
0.272732
0.285459
0.27792
0.286888
0.274402
0.363927
0.283918
0.36399
0.282993
0.340664
0.286089
0.29592
0.600542
0.290988
0.533237
0.299734
0.47964
0.299855
0.268296
0.94486
0.273926
0.275516
0.328916
0.290163
0.277507
0.298696
0.321062
0.280568
0.274637
0.5
0.279229
0.304509
0.276747
0.359104
0.333647
0.318528
0.298104
0.781474
0.275795
0.290092
0.300011
0.277126
0.296577
0.336476
0.285471
0.271031
0.275756
0.291379
0.300313
0.279145
0.331505
0.354483
0.291733
0.27937
0.322342
0.278351
0.274442
0.302162
0.297298
0.280005
0.282273
0.311225
0.279345
0.291564
0.275467
0.283886
0.285633
0.303512
0.294614
0.275211
0.272109
0.277278
0.282944
0.328371
0.311941
0.321624
0.293614
0.301603
0.550271
0.501738
0.433351
0.328808
0.376641
0.324237
0.278518
0.296637
0.313155
0.36746
0.27863
0.285682
0.272479
0.29288
0.356404
0.293904
0.305881
0.306323
0.281147
0.371169
0.396882
0.651966
0.32032
0.318734
0.383428
0.377204
0.422042
0.405858
0.442443
0.279566
0.294572
0.40285
0.291517
0.278671
0.296103
0.298383
0.599185
0.343241
0.617871
0.696625
0.378055
0.285132
0.290874
0.276065
0.278908
0.385034
0.270339
0.325075
0.308299
0.322588
0.286032
0.2821
0.285721
0.288424
0.407717
0.285134
0.428052
0.552221
0.297894
0.292139
0.276117
0.281129
0.399066
0.395906
0.360917
0.317364
0.271174
0.318256
0.528871
0.283814
0.297315
0.336855
0.390341
0.277864
0.37706
0.423632
0.290737
0.3349
0.354659
0.300555
0.286635
0.28687
0.288348
0.287334
0.287663
0.301817
0.30569
0.332118
0.284749
0.283957
0.361377
0.294276
0.29752
0.276069
0.28588
0.284525
0.30024
0.308171
0.280666
0.27556
0.278932
0.341429
0.275736
0.283386
0.306231
0.300924
0.287254
0.431538
0.284454
0.45796
0.457897
0.454566
0.291518
0.631117
0.285047
0.284835
0.517701
0.274789
0.318902
0.282774
0.294797
0.287027
0.284494
0.282479
0.282308
0.283678
0.293462
0.286032
0.294146
0.287582
0.278551
0.276147
0.278553
0.285799
0.327631
0.420227
0.793202
0.602388
0.351222
0.409627
0.26637
0.263303
0.284069
0.277387
0.265105
0.323157
0.343578
0.286758
0.535068
0.401465
0.469767
0.293039
0.661431
0.278644
0.293372
0.28118
0.335632
0.270261
0.311886
0.299388
0.28819
0.281064
0.283414
0.279121
0.283248
0.515599
0.414788
0.33962
0.372568
0.277686
0.285009
0.275644
0.275846
0.278398
0.283624
0.27802
0.271639
0.336786
0.363431
0.326489
0.320889
0.276851
0.278667
0.278042
0.279112
0.33266
0.322574
0.283291
0.278176
0.389467
0.356825
0.667012
0.406281
0.429966
0.33791
0.325282
0.75485
0.86237
0.314404
0.303381
0.28594
0.295696
0.309332
0.371042
0.420252
0.356762
0.27293
0.398859
0.267964
0.309765
0.303936
0.296743
0.320763
0.313045
0.269829
0.275702
0.276036
0.278359
0.279537
0.275187
0.275885
0.299708
0.29315
0.302099
0.313333
0.32021
0.32038
0.324047
0.310559
0.285801
0.284663
0.285499
0.280821
0.315764
0.308614
0.431037
0.298049
0.276401
0.275621
0.326314
0.276756
0.282728
0.276059
0.283069
0.288745
0.317205
0.276952
0.297882
0.287069
0.357889
0.30769
0.276855
0.276903
0.295606
0.305528
0.275431
0.292088
0.303854
0.705291
0.273049
0.293254
0.298819
0.308247
0.275275
0.355798
0.278277
0.30168
0.286866
0.272796
0.276899
0.318096
0.322867
0.289631
0.29114
0.273751
0.275632
0.275588
0.277598
0.287019
0.286652
0.272469
0.276503
0.281369
0.283808
0.277769
0.27469
0.301464
0.282623
0.309108
0.340475
0.275949
0.27587
0.282364
0.290816
0.27667
0.272468
0.277342
0.310674
0.340991
0.310054
0.303875
0.355418
0.696318
0.438296
0.54068
0.797265
0.292612
0.29894
0.28668
0.303773
0.365864
0.279123
0.27543
0.32553
0.26656
0.28837
0.274113
0.301739
0.285711
0.293855
0.322104
0.286089
0.283591
0.399081
0.262323
0.337898
0.280249
0.319942
0.372099
0.36742
0.335281
0.348486
0.27773
0.281277
0.275986
0.481289
0.307535
0.275151
0.269632
0.282131
0.270512
0.404579
0.270429
0.262114
0.275444
0.276943
0.290288
0.274949
0.279935
0.283333
0.566951
0.320015
0.629817
0.275512
0.28126
0.353724
0.278781
0.278527
0.277039
0.281491
0.276307
0.28044
0.276083
0.309333
0.284972
0.282954
0.272899
0.277066
0.368863
0.28024
0.301197
0.396017
0.347313
0.30075
0.289637
0.288105
0.276091
0.273251
0.272528
0.41269
0.339366
0.276362
0.460198
0.450628
0.844418
0.669186
0.286999
0.28818
0.274504
0.281662
0.280602
0.711801
0.316682
0.486185
0.435204
0.418482
0.3116
0.27169
0.297683
0.282936
0.2756
0.45847
0.344886
0.737891
0.280785
0.278826
0.275713
0.292684
0.315254
0.286113
0.298123
0.285492
0.29706
0.597844
0.302239
0.316442
0.290384
0.373757
0.378027
0.268761
0.592408
0.278547
0.298379
0.279753
0.296689
0.327509
0.309103
0.287061
0.335515
0.404546
0.713953
0.274946
0.264507
0.265923
0.300297
0.32178
0.304363
0.288417
0.332987
0.439856
0.447398
0.722152
0.662313
0.350302
0.386107
0.267608
0.266664
0.265705
0.265325
0.271793
0.268898
0.268586
0.290283
0.308976
0.283101
0.26962
0.3778
0.280511
0.280596
0.267813
0.273299
0.365344
0.281459
0.283804
0.305688
0.276106
0.269182
0.298707
0.293225
0.277181
0.277562
0.280093
0.275757
0.425964
0.33736
0.288765
0.278259
0.296791
0.293515
0.28684
0.299693
0.279487
0.305265
0.293054
0.275369
0.293947
0.277241
0.309601
0.395284
0.442649
0.798932
0.277572
0.294258
0.341617
0.269712
0.27974
0.297124
0.287341
0.273042
0.313047
0.309264
0.321272
0.323041
0.330305
0.358298
0.281083
0.278794
0.311697
0.318158
0.274875
0.327941
0.309599
0.31012
0.489143
0.326844
0.634458
0.279042
0.312507
0.797379
0.307173
0.31292
0.276792
0.773467
0.285852
0.289478
0.535231
0.341026
0.304358
0.285239
0.285245
0.317088
0.344415
0.282844
0.280498
0.27825
0.280867
0.315204
0.783363
0.74822
0.793949
0.329074
0.794696
0.311092
0.586046
0.845971
0.281806
0.277117
0.321743
0.292226
0.315202
0.316283
0.281111
0.620996
0.792717
0.321007
0.28081
0.34724
0.605912
0.302211
0.275619
0.277575
0.357712
0.362135
0.274733
0.778148
0.534693
0.960377
0.928116
0.27233
0.361661
0.338713
0.292864
0.294914
0.389096
0.325342
0.276852
0.290157
0.28718
0.308158
0.278917
0.297863
0.289826
0.281114
0.299011
0.26427
0.289358
0.282919
0.306363
0.292465
0.280657
0.291179
0.283583
0.326464
0.295439
0.284485
0.28494
0.303198
0.272138
0.285243
0.278071
0.30284
0.282902
0.300499
0.278002
0.293076
0.292654
0.304005
0.290915
0.341587
0.371555
0.291118
0.285989
0.303065
0.34444
0.357229
0.30598
0.285225
0.275739
0.273129
0.284455
0.301223
0.297759
0.28652
0.287418
0.31518
0.548217
0.311816
0.303015
0.315631
0.306727
0.29586
0.30166
0.32473
0.294565
0.303167
0.394521
0.275754
0.277963
0.298017
0.292375
0.305677
0.30908
0.290956
0.300323
0.315892
0.275869
0.272994
0.311764
0.768164
0.666388
0.282712
0.290112
0.283037
0.275359
0.296986
0.285289
0.492147
0.279162
0.438899
0.302704
0.305895
0.311682
0.299011
0.316672
0.300562
0.297674
0.283889
0.265265
0.28636
0.28277
0.277735
0.27977
0.278494
0.278068
0.282302
0.277378
0.275069
0.443867
0.281493
0.598954
0.522556
0.354027
0.281693
0.288896
0.459975
0.278374
0.294093
0.276077
0.282995
0.278377
0.279483
0.312683
0.280061
0.535097
0.285627
0.336533
0.290893
0.329883
0.29376
0.335239
0.28967
0.334026
0.296291
0.278135
0.315458
0.276382
0.277587
0.283521
0.320586
0.335632
0.696155
0.289128
0.270561
0.315034
0.283726
0.334057
0.27963
0.271481
0.393821
0.277691
0.311069
0.521126
0.69704
0.317669
0.319161
0.335179
0.331246
0.343366
0.375779
0.313178
0.327348
0.274603
0.29123
0.329484
0.276481
0.285536
0.276745
0.33963
0.306965
0.675024
0.360272
0.700454
0.285059
0.499658
0.374057
0.515727
0.269612
0.274607
0.264905
0.69593
0.301767
0.276331
0.759947
0.294245
0.705409
0.676416
0.272788
0.276996
0.298797
0.289782
0.339982
0.367785
0.305732
0.299259
0.318261
0.344333
0.312778
0.315195
0.267049
0.290998
0.283606
0.280422
0.289898
0.291403
0.300992
0.296848
0.298751
0.27841
0.278626
0.275813
0.27558
0.27556
0.278467
0.275765
0.275935
0.287948
0.323777
0.277445
0.290235
0.271738
0.275067
0.273801
0.274476
0.300383
0.26241
0.27385
0.279465
0.27621
0.272348
0.277268
0.277918
0.277972
0.277488
0.274121
0.274535
0.278462
0.277867
0.283256
0.279424
0.280747
0.281458
0.288321
0.292839
0.289955
0.282889
0.290528
0.285698
0.288199
0.292675
0.410885
0.404777
0.29032
0.5096
0.301528
0.290758
0.375327
0.269382
0.299896
0.35812
0.456696
1.00605
0.295348
0.277816
0.290826
0.327506
0.277818
0.273309
0.29444
0.300336
0.276167
0.269407
0.26837
0.268911
0.26877
0.286203
0.281183
0.298777
0.26511
0.26542
0.287137
0.27449
0.285276
0.272642
0.2741
0.325755
0.286222
0.282774
0.270306
0.287253
0.301178
0.297558
0.381738
0.286897
0.318939
0.311921
0.354322
0.284782
0.317498
0.288809
0.323197
0.27714
0.275964
0.319688
0.279035
0.284548
0.29955
0.286707
0.291963
0.276547
0.27628
0.284055
0.288506
0.313034
0.404671
0.399005
0.326402
0.362025
0.388654
0.343402
0.32604
0.273366
0.386824
0.29709
0.419345
0.439628
0.28711
0.282313
0.318377
0.319056
0.293582
0.297236
0.286763
0.276176
0.274465
0.281537
0.320162
0.281663
0.285582
0.365224
0.281327
0.280641
0.297467
0.274405
0.274827
0.370098
0.30557
0.291469
0.287285
0.271591
0.294489
0.31123
0.290105
0.2869
0.285425
0.508908
0.359397
0.283358
0.286495
0.286055
0.284193
0.285655
0.478345
0.283723
0.504435
0.282701
0.774423
0.555163
0.272299
0.770305
0.741578
0.271511
0.668299
0.339106
0.273516
0.64854
0.386545
0.62003
0.617577
0.90851
0.325909
0.713965
0.657325
0.674367
0.305992
0.676207
0.290488
0.285314
0.352373
0.276009
0.350251
0.318476
0.292582
0.31298
0.484993
0.429479
0.270257
0.272314
0.424684
0.795189
0.552326
0.30783
0.276084
0.26785
0.280433
0.278482
0.317022
0.275236
0.278138
0.28149
0.278871
0.280215
0.280231
0.27795
0.826288
0.297662
0.335161
0.390134
0.370184
0.295438
0.282347
0.277234
0.287749
0.278733
0.27609
0.286435
0.27795
0.27663
0.355202
0.27931
0.278961
0.27926
0.269674
0.273247
0.283666
0.273909
0.319934
0.281059
0.285708
0.288953
0.284511
0.270357
0.296091
0.288759
0.308446
0.355606
0.306441
0.297116
0.422914
0.319821
0.300515
0.263445
0.296048
0.371729
0.295618
0.29835
0.292449
0.284743
0.283799
0.278853
0.274542
0.321464
0.272914
0.289658
0.283419
0.881404
0.27719
0.27815
0.274922
0.282796
0.287338
0.282518
0.300047
0.27661
0.286371
0.466419
0.272428
0.282273
0.28611
0.359583
0.301015
0.297643
0.889477
0.35278
0.310619
0.396054
0.306473
0.345393
0.33154
0.360493
0.286593
0.297226
0.27436
0.30584
0.857689
0.285581
0.300693
0.295812
0.305535
0.316683
0.308505
0.307414
0.313829
0.314074
0.279071
0.275561
0.277782
0.278501
0.306261
0.281342
0.28514
0.294795
0.298442
0.312614
0.299571
0.280285
0.281058
0.28867
0.280339
0.290735
0.290135
0.28035
0.280241
0.277558
0.278945
0.280447
0.278475
0.302828
0.311191
0.303543
0.31576
0.271405
0.29094
0.27905
0.286939
0.296263
0.280798
0.271877
1.11724
0.293192
0.592958
0.339184
0.305577
0.299256
0.280747
0.2851
0.315739
0.287697
0.26957
0.348356
0.878123
0.30002
0.435592
0.349297
0.288306
0.312864
0.408069
0.360818
0.541874
0.309142
0.758646
0.426571
0.68451
0.83155
0.359072
0.283076
0.266689
0.283456
0.296672
0.291767
0.296023
0.27927
0.298216
0.304897
0.386267
0.343291
0.261763
0.268542
0.479378
0.290957
0.263219
0.30085
0.371851
0.297774
0.320588
0.360917
0.266649
0.27012
0.319701
0.266322
0.303126
0.275375
0.271598
0.297883
0.30802
0.266007
0.288601
0.292208
0.272632
0.272557
0.275236
0.297965
0.281662
0.30721
0.471535
0.304458
0.311063
0.799397
0.435351
1.15697
0.27437
0.313276
0.292432
0.278245
0.376998
0.407476
0.268556
0.298227
0.295059
0.302971
0.285346
0.303425
0.327309
0.357936
0.290132
0.284919
0.279948
0.267159
0.278351
0.332165
0.27822
0.292441
0.305198
0.277376
0.275031
0.281239
0.356475
0.327028
0.463434
0.314158
0.374182
0.442623
0.352358
0.316655
0.276808
0.276393
0.291478
0.280064
0.280427
0.282913
0.286885
0.324832
0.315501
0.681138
0.304363
0.276676
0.488156
0.314202
0.271969
0.336587
0.322856
0.312272
0.302032
0.58074
0.343042
0.318633
0.365102
0.364884
0.343809
0.270032
0.32884
0.367403
0.287206
0.303649
0.269746
0.315092
0.280747
0.299551
0.304079
0.284849
0.271467
0.299603
0.268699
0.323573
0.286756
0.345335
0.303277
0.428304
0.283338
0.279177
0.284131
0.337325
0.295725
0.298454
0.276592
0.278938
0.393276
0.38174
0.426727
0.365138
0.324149
0.364516
0.320212
0.320003
0.285883
0.299869
0.341046
0.301496
0.327864
0.304927
0.317653
0.276686
0.288127
0.276057
0.270987
0.269438
0.270209
0.277765
0.276807
0.290235
0.287499
0.266135
0.277961
0.272726
0.273565
0.327531
0.270227
0.290438
0.28122
0.281332
0.325876
0.279002
0.331407
0.333206
0.276607
0.276413
0.328152
0.274408
0.276888
0.276645
0.276459
0.299899
0.277285
0.285713
0.28062
0.286972
0.281562
0.285607
0.277865
0.297166
0.306166
0.282364
0.28415
0.289483
0.283808
0.299097
0.278422
0.266966
0.272952
0.289206
0.277235
0.274933
0.275183
0.277666
0.276631
0.280832
0.316302
0.289137
0.280498
0.278458
0.27789
0.292299
0.29798
0.279864
0.307228
0.354784
0.296713
0.2809
0.28086
0.291043
0.281469
0.285717
0.312212
0.322923
1.08548
0.285388
0.328272
0.76184
0.303773
0.292293
0.56066
0.514278
0.358104
0.317043
0.309346
0.307834
0.273573
0.273191
0.287005
0.277719
0.299385
0.277912
0.310069
0.289648
0.328757
0.30831
0.359663
0.29955
0.350041
0.322951
0.309991
0.279623
0.282746
0.286958
0.598473
0.469373
0.486113
0.430614
0.493973
0.304482
0.277817
1.06401
0.274282
0.27528
0.272899
0.276361
0.274174
0.395257
0.344008
0.314889
0.287095
0.282595
0.300141
0.303071
0.309699
0.342691
0.321732
0.390885
0.276028
0.449986
0.509722
0.275744
0.300095
0.28114
0.466968
0.282808
0.306631
0.327767
0.299324
0.269555
0.277731
0.273254
0.348219
0.289713
0.287412
0.283564
0.285492
0.276563
0.275942
0.277424
0.276499
0.276993
0.309299
0.282798
0.28496
0.305048
0.27972
0.280495
0.300512
0.277461
0.372716
0.296985
0.283104
0.313528
0.269099
0.278957
0.279322
0.283917
0.284526
0.268444
0.326148
0.280951
0.298983
0.275121
0.296811
0.300101
0.312971
0.291141
0.303496
0.286847
0.281151
0.326102
0.305567
0.372793
0.285432
0.293577
0.271563
0.323435
0.265035
0.379592
0.704371
0.307866
0.697914
0.707714
0.667084
0.278724
0.277325
0.273335
0.899288
0.275997
0.272624
0.275188
0.270265
0.271129
0.321063
0.312876
0.303582
0.299897
0.306744
0.303948
0.297247
0.321419
0.492616
0.463672
0.296776
0.431057
0.322113
0.349215
0.344842
0.348821
0.307439
0.795188
0.903033
0.862772
0.56882
0.45724
0.882763
0.343974
0.327775
0.347746
0.744867
0.350417
0.821557
0.26749
0.266442
0.278629
0.276359
0.276319
0.29096
0.289516
0.286137
0.294483
0.31539
0.336305
0.298485
0.284359
0.294239
0.313045
0.310548
0.275773
0.275591
0.275494
0.277423
0.285426
0.276384
0.274629
0.362529
0.274551
0.274283
0.272104
0.274994
0.301836
0.363617
0.298545
0.321902
0.301357
0.305979
0.288067
0.315349
0.299725
0.282335
0.269485
0.298654
0.280174
0.304012
0.279035
0.282086
0.277255
0.287028
0.277073
0.276213
0.282875
0.265512
0.288344
0.292941
0.273744
0.275909
0.270477
0.273319
0.270348
0.282022
0.288507
0.268079
0.267172
0.27737
0.275817
0.321588
0.318196
0.275832
0.344163
0.535946
0.311378
0.295883
0.278546
0.272717
0.283857
0.295441
0.290597
0.313748
0.301427
0.276486
0.278188
0.29119
0.276308
0.296119
0.278852
0.279283
0.290493
0.282291
0.27206
0.276207
0.27657
0.285602
0.275179
0.28815
0.295296
0.281557
0.276579
0.316639
0.306544
0.29263
0.278473
0.272653
0.268247
0.276004
0.289185
0.282033
0.278913
0.289937
0.315263
0.274708
0.277413
0.306778
0.275255
0.286838
0.266306
0.2828
0.30164
0.28329
0.279272
0.288493
0.272261
0.279629
0.278953
0.346344
0.271912
0.296172
0.280382
0.328772
0.375495
0.290821
0.292023
0.275382
0.282212
0.276253
0.325824
0.290151
0.280449
0.289509
0.279274
0.276602
0.291368
0.310017
0.315644
0.279833
0.29428
0.285855
0.335228
0.309159
0.278238
0.311502
0.279958
0.278444
0.382477
0.276976
0.297369
0.280192
0.281764
0.277441
0.276464
0.266531
0.313538
0.3345
0.435492
0.659426
1.01327
0.275923
0.278685
0.282102
0.282401
0.278525
0.288842
0.343745
0.279843
0.355113
0.410642
0.383472
0.277738
0.270747
0.645677
0.720837
0.288629
0.698598
0.283579
0.279778
0.279313
0.864676
0.930518
0.848016
0.277017
0.279179
0.97415
0.800529
0.277877
0.277146
0.306734
0.346206
0.316725
0.277985
0.29492
0.289894
0.268002
0.283923
0.285328
0.687026
0.28812
0.326902
0.289508
0.27691
0.275611
0.277122
0.278665
0.27486
0.27064
0.326133
0.273006
0.322317
0.280487
0.277022
0.282129
0.277422
0.299086
0.285414
0.289464
0.292336
0.291246
0.363185
0.276318
0.327765
0.339266
0.340561
0.270926
0.272833
0.298401
0.808199
0.271159
0.361476
0.292269
0.265812
0.281766
0.293206
0.273056
0.272485
0.285525
0.288828
0.330232
0.284323
0.292228
0.28314
0.290835
0.323576
0.30641
0.287858
0.29321
0.278136
0.269347
0.271993
0.283101
0.493806
0.375193
0.301164
0.290657
0.284763
0.436942
0.287514
0.293426
0.289044
0.279922
0.288485
0.331535
0.290008
0.333766
0.356155
0.276155
0.294578
0.286663
0.33361
0.31468
0.292181
0.309388
0.58284
0.278272
0.334408
0.273234
0.291104
0.275802
0.268314
0.432512
0.370015
0.306055
0.300382
0.262455
0.320693
0.272221
0.27863
0.28546
0.283358
0.315127
0.269439
0.284821
0.44147
0.277504
0.305076
0.300961
0.266156
0.272445
0.268088
0.283704
0.29439
0.282254
0.284075
0.281974
0.293098
0.288874
0.300126
0.287984
0.269016
0.285264
0.282947
0.269473
0.601582
0.289251
0.285815
0.277555
0.275962
0.285486
0.598795
0.277228
0.586877
0.28361
0.283607
0.292647
0.338747
0.267898
0.373211
0.359469
0.282868
0.304579
0.344076
0.292883
0.289779
0.328702
0.277184
0.312049
0.276751
0.281722
0.293761
0.291436
0.30573
0.284815
0.28535
0.276534
0.276805
0.274796
0.277586
0.27902
0.284207
0.276062
0.274391
0.279335
0.291983
0.277159
0.277687
0.282151
0.279357
0.289887
0.307085
0.308081
0.383505
0.329379
0.313588
0.365818
0.275843
0.28224
0.355786
0.28425
0.287512
0.317786
0.276242
0.548714
0.273471
0.275547
0.264451
0.268796
0.448385
0.49156
0.436103
0.388584
0.271288
0.399136
0.276747
0.29537
0.389211
0.283049
0.492125
0.280516
0.287694
0.389325
0.276443
0.287751
0.283499
0.285986
0.290665
0.304248
0.280794
0.299964
0.287657
0.281579
0.276344
0.553302
0.300244
0.290263
0.275779
0.297335
0.275981
0.300425
0.278858
0.277953
0.277016
0.293404
0.486174
0.344032
0.32611
0.326968
0.66686
0.480012
0.290587
0.314456
0.322811
0.287892
0.333181
0.336988
0.280614
0.287627
0.296591
0.277717
0.277973
0.331716
0.283044
0.280362
0.285757
0.318781
0.315419
0.287304
0.336977
0.347388
0.367918
0.27331
0.277217
0.290681
0.287963
0.288855
0.293119
0.479534
0.668886
0.294617
0.325013
0.279071
0.324015
0.31143
0.311387
0.291067
0.447886
0.335148
0.380952
0.809134
0.332554
0.36434
0.681382
0.877211
0.50168
0.461822
0.358225
0.665536
0.283469
0.304068
0.276677
0.295037
0.276813
0.495217
0.287956
0.300006
0.308891
0.305319
0.301274
0.275213
0.284397
0.265844
0.28523
0.276543
0.34306
0.287192
0.599274
0.355753
0.609061
0.351786
0.31249
0.28633
0.3747
0.337945
0.813098
0.331275
0.369066
0.477602
0.762145
0.530422
0.583213
0.521978
0.330706
0.54052
0.296095
0.728376
0.432921
0.27858
0.284879
0.278057
0.285051
0.395585
0.286219
0.55635
0.303494
0.292565
0.284615
0.428756
0.367304
0.487073
0.376567
0.751645
0.68798
0.45228
0.361582
0.277082
0.318692
0.373247
0.318634
0.310084
0.292669
0.314343
0.327991
0.281423
0.374596
0.442033
0.383915
0.281854
0.356997
0.297638
0.317087
0.295687
0.317535
0.284694
0.277447
0.415857
0.604592
0.511922
0.363211
0.385044
0.516041
0.366876
0.489873
0.271284
0.273375
0.271041
0.282595
0.275169
0.295042
0.28482
0.299912
0.281012
0.284564
0.312185
0.272794
0.320421
0.333958
0.276883
0.284895
0.287202
0.277184
0.27871
0.273419
0.311322
0.275253
0.311089
0.293768
0.299249
0.294468
0.294453
0.275262
0.276299
0.294032
0.372289
0.320115
0.271113
0.271037
0.273394
0.346891
0.310805
0.34332
0.323313
0.381923
0.320725
0.280521
0.304116
0.29246
0.288614
0.281146
0.285194
0.294402
0.28545
0.28371
0.288451
0.301591
0.332945
0.267299
0.320223
0.280189
0.299902
0.352386
0.338334
0.271951
0.276929
0.305788
0.331205
0.28578
0.297031
0.275387
0.303462
0.297584
0.311686
0.274112
0.278022
0.276184
0.277393
0.276946
0.276824
0.311602
0.291393
0.309173
0.28438
0.274037
0.275284
0.284582
0.275738
0.275568
0.274082
0.263073
0.264304
0.268271
0.264209
0.312576
0.308592
0.2717
0.791624
0.67438
0.661278
0.644433
0.276055
0.298851
0.299875
0.277639
0.308394
0.298041
0.298375
0.280383
0.281855
0.310431
0.261985
0.271128
0.30957
0.293492
0.277438
0.273261
0.276237
0.278247
0.290004
0.276516
0.275011
0.29353
0.272271
0.274693
0.276012
0.276651
0.290829
0.275688
0.366686
0.271635
0.273492
0.286151
0.455366
0.377502
0.394016
0.692409
0.271134
0.351312
0.513808
0.752471
0.467737
0.470076
0.477815
0.854119
0.5863
0.673861
0.377461
0.324961
0.293438
0.281079
0.282025
0.837005
0.273052
0.271492
0.705582
0.272723
0.757063
0.289978
0.275491
0.281232
0.276118
0.275199
0.278769
0.276423
0.277255
0.277579
0.276757
0.277797
0.277015
0.276427
0.282474
0.274989
0.27969
0.277181
0.277483
0.2753
0.276555
0.305101
0.272579
0.290962
0.292216
0.292851
0.287729
0.279305
0.285477
0.277546
0.276692
0.332937
0.288573
0.278141
0.28436
0.276709
0.291284
0.27632
0.282864
0.302116
0.289225
0.27176
0.271129
0.278589
0.275332
0.277521
0.301262
0.283192
0.278152
0.276015
0.275839
0.276507
0.287805
0.286981
0.28436
0.289082
0.299536
0.296197
0.316102
0.305287
0.270532
0.278293
0.266918
0.272457
0.269535
0.280542
0.278599
0.314136
0.277136
0.275758
0.273722
0.688786
0.384216
0.275232
0.404786
0.275977
0.287253
0.275927
0.276257
0.282506
0.275009
0.275787
0.284174
0.280992
0.276909
0.277036
0.32236
0.300001
0.269157
0.289002
0.280057
0.278064
0.308989
0.308845
0.29067
0.41132
0.385938
0.412428
0.305482
0.285103
0.276807
0.705283
0.350048
0.306855
0.273769
0.27018
0.386735
0.373937
0.291191
0.756284
0.288143
0.277003
0.271553
0.274239
0.29105
0.275118
0.277262
0.277962
0.320771
0.813394
0.274811
0.666732
0.324361
0.290171
0.32615
0.348399
0.295329
0.320911
0.364016
0.316684
0.287731
1.03532
0.284119
0.276852
0.296171
0.284709
0.281868
0.26916
0.830293
0.634684
0.3012
0.503387
0.498889
0.678716
0.43843
0.305523
0.282135
0.659508
0.281071
0.290107
0.281462
0.274394
0.3179
0.307777
0.27646
0.272314
0.27333
0.275492
0.279139
0.274462
0.269282
0.272584
0.271
0.284702
0.268735
0.293709
0.307487
0.27763
0.425472
0.344481
0.365324
0.279308
0.279947
0.284396
0.278246
0.277187
0.296664
0.278434
0.291822
0.317143
0.281541
0.276456
0.268208
0.295627
0.279863
0.386416
0.270415
0.286418
0.287077
0.270046
0.278268
0.277982
0.28015
0.277319
0.282084
0.749939
0.310527
0.274185
0.291044
0.280718
0.315851
0.289468
0.272719
0.272634
0.305784
0.300331
0.297959
0.333906
0.276363
0.274874
0.28282
0.358984
0.405542
0.590582
0.319715
0.309221
0.288805
0.300282
0.304992
0.315912
0.277058
0.277186
0.275216
0.457612
0.304724
0.300368
0.4221
0.302707
0.851939
0.751648
0.604029
0.291691
0.366177
0.335167
0.318464
0.301285
0.297962
0.305955
0.28839
0.292422
0.373053
0.327854
0.302994
0.387378
0.280273
0.300959
0.282911
0.29801
0.398839
0.733463
0.332611
0.300709
0.303559
0.342334
0.510445
0.315755
0.323488
0.371961
0.32525
0.288196
0.301627
0.544737
0.300669
0.302191
0.299873
0.285436
0.274987
0.305343
0.288134
0.301595
0.278928
0.404722
0.339068
0.366548
0.576324
0.381488
0.293089
0.302774
0.279173
0.270837
0.286329
0.270611
0.323227
0.277837
0.297821
0.264205
0.274327
0.325238
0.274011
0.281084
0.291011
0.273413
0.275809
0.272731
0.298714
0.329348
0.287629
0.291589
0.28676
0.285161
0.282356
0.281979
0.279316
0.298004
0.292582
0.286977
0.284804
0.313228
0.280791
0.273848
0.300484
0.277055
0.274933
0.294726
0.314071
0.274158
0.305029
0.281455
0.283834
0.281485
0.294051
0.272605
0.268814
0.267439
0.292744
0.288712
0.28464
0.291616
0.283348
0.303695
0.299157
0.282601
0.34895
0.274776
0.296329
0.296882
0.276887
0.33409
0.599451
0.291351
0.328833
0.279157
0.269069
0.267256
0.268578
0.283726
0.281365
0.313835
0.282499
0.281912
0.282009
0.293295
0.356881
1.14763
0.287105
0.276276
0.278059
0.276341
0.28254
0.283729
0.277668
0.277465
0.277301
0.287378
0.270472
0.27089
0.275799
0.275044
0.296594
0.303402
0.273224
0.292692
0.270732
0.272307
0.265306
0.270049
0.34776
0.294751
0.273842
0.267444
0.279543
0.274927
0.269778
0.316226
0.291982
0.2792
0.819055
0.302685
0.296964
0.840529
0.293802
0.320022
0.305045
0.50921
0.296336
0.291045
0.391301
0.39384
0.434194
0.316169
0.685376
0.329883
0.279003
0.274559
0.272302
0.277146
0.283579
0.459791
0.308129
0.304108
0.334722
0.326267
0.828031
0.333485
0.357866
0.306871
0.288685
0.563037
0.485402
0.447387
0.286534
0.805182
0.625971
0.521142
0.565063
0.489598
0.459254
0.303482
0.298044
0.308236
0.316628
0.288662
0.286949
0.283884
0.281128
0.577987
0.283598
0.332875
0.284571
0.2803
0.28308
0.303421
0.292172
0.287392
0.278293
0.30276
0.27914
0.270142
0.276649
0.27951
0.276669
0.27858
0.276318
0.284042
0.28139
0.282874
0.275678
0.289162
0.277679
0.275654
0.27256
0.288974
0.286571
0.305668
0.273977
0.367429
0.379535
0.284502
0.282458
0.283141
0.268621
0.275802
0.427699
0.267871
0.309745
0.351523
0.471502
0.712651
0.871217
0.616314
0.331774
0.302079
0.321827
0.272441
0.293554
0.275573
0.822712
0.50248
0.276086
0.283306
0.589394
0.278749
0.300446
0.297964
0.290443
0.287924
0.295221
0.30462
0.335207
0.319878
0.324985
0.341034
0.278471
0.271677
0.271781
0.269363
0.27876
0.27997
0.27977
0.281681
0.581683
0.289363
0.550265
0.303714
0.275347
0.287587
0.293719
0.295134
0.288369
0.277683
0.275286
0.276
0.277681
0.273362
0.274457
0.276779
0.277254
0.27998
0.278941
0.280271
0.281837
0.277291
0.277626
0.265052
0.290779
0.288773
0.277098
0.338148
0.354402
0.369838
0.384739
0.278813
0.27594
0.356509
0.311045
0.293106
0.276494
0.276403
0.292933
0.294352
0.280143
0.273876
0.276956
0.275347
0.276092
0.277034
0.279806
0.281221
0.293994
0.29801
0.284168
0.278442
0.278431
0.304608
0.277108
0.293928
0.320451
0.275437
0.273773
0.269463
0.35759
0.272988
0.271446
0.300896
0.267338
0.26504
0.266617
0.265842
0.264321
0.310945
0.360196
0.270885
0.270985
0.272528
0.270206
0.269102
0.866479
0.681134
0.603382
0.716068
0.720307
0.264765
0.264838
0.267305
0.672876
0.268898
0.266151
0.287116
0.318546