/*--------------------------------*- C++ -*----------------------------------*\
| =========                 |                                                 |
| \\      /  F ield         | OpenFOAM: The Open Source CFD Toolbox           |
|  \\    /   O peration     | Version:  2506                                  |
|   \\  /    A nd           | Website:  www.openfoam.com                      |
|    \\/     M anipulation  |                                                 |
\*---------------------------------------------------------------------------*/
FoamFile
{
    version     2.0;
    format      ascii;
    arch        "LSB;label=32;scalar=64";
    class       volScalarField;
    location    "0.0948794";
    object      omega;
}
// * * * * * * * * * * * * * * * * * * * * * * * * * * * * * * * * * * * * * //

dimensions      [0 0 -1 0 0 0 0];

internalField   nonuniform List<scalar> 
3972
(
85.5943
42.8224
43.9885
48.5369
857.969
115.734
94.1146
45.5102
44.9209
65.4542
48.5185
45.7489
62.0089
47.5569
45.4214
42.0234
44.197
45.318
47.1699
56.0604
1093.27
286.001
97.8968
45.6107
1278.76
41.63
46.4378
61.0906
108.001
46.4131
691.873
166.912
45.5911
81.9745
44.854
44.1985
57.5839
57.8773
44.1951
62.4351
52.755
44.1795
44.9138
111.207
56.7077
52.4555
61.4139
163.449
98.8908
44.3325
57.9598
44.7145
57.5524
78.1356
53.3188
54.0123
127.829
43.8483
127.609
255.24
86.9164
116.343
50.5074
105.452
54.8736
88.7668
106.345
115.562
54.1779
178.52
114.482
47.0389
184.669
44.4577
71.5424
42.7722
52.7241
97.1601
61.1419
91.9492
56.0772
44.6824
41.4749
67.1311
43.5182
83.845
69.3682
53.9264
103.782
95.981
58.0998
49.8698
66.9938
53.5355
47.6158
42.5518
42.9366
53.1633
60.9345
45.1493
44.8121
43.1974
44.3979
48.1942
94.7828
44.1916
45.4339
43.799
80.1074
42.567
52.7712
42.899
41.9992
104.004
49.209
46.1769
46.1914
127.65
111.692
53.5587
105.9
122.978
92.4504
83.0768
53.2581
658.401
113.788
563.89
655.93
909.584
529.356
51.4536
320.047
328.428
102.181
97.9413
117.94
112.319
129.435
76.7314
60.3799
42.8335
48.318
81.8073
132.333
59.5183
66.6352
42.4502
115.463
62.0241
61.8381
45.4161
46.6954
79.2529
148.792
45.8094
53.9977
61.1679
57.1462
108.109
41.7026
42.971
47.2444
51.9505
43.0299
63.6369
53.2139
83.198
45.4368
60.4526
69.9052
52.2141
41.7085
41.5312
46.4212
47.5304
61.9437
41.3557
42.124
41.4644
71.5091
111.39
48.2643
76.7025
43.8575
42.9969
46.8638
54.5961
45.2677
1107.58
44.7138
43.5014
85.9724
43.2485
50.6693
44.8995
43.6806
72.5399
140.576
48.3301
47.5114
90.7417
57.9248
58.3514
43.2428
69.7491
46.724
49.5768
91.3944
101.167
140.686
67.8204
486.25
503.587
48.6346
72.117
101.068
65.5692
54.5311
67.7522
47.2867
63.2268
48.3349
49.5326
184.318
49.8845
923.301
151.254
1160.06
118.609
1367.39
743.062
138.587
728.618
47.2028
50.2453
51.5703
41.9493
56.1186
50.7389
46.0802
550.96
107.081
46.9803
51.0315
44.45
42.8464
44.5322
45.8677
135.547
44.4636
704.478
71.757
154.321
42.2953
52.7225
164.907
101.843
45.3203
119.089
183.779
116.531
91.0579
42.0099
115.491
52.3152
42.5787
63.2952
46.8967
45.8139
45.4794
83.1374
371.263
152.495
73.713
108.844
52.8764
131.377
41.9737
42.1624
90.4282
153.879
42.6603
244.961
1010.46
564.596
47.019
72.089
43.3375
59.9544
42.5284
44.4638
51.9193
48.4709
159.102
73.8918
60.4719
200.962
43.2718
484.175
44.8417
58.7025
56.5175
63.6983
89.4348
95.4789
48.6311
49.6963
69.2452
49.4902
47.1915
53.9903
107.296
90.086
1276.52
46.1522
47.2143
43.892
71.7716
43.0291
452.686
723.735
54.6747
43.1955
41.9663
106.828
49.0619
43.0658
41.4113
136.998
54.7216
187.213
56.4166
42.3908
42.8616
126.179
48.5812
62.4195
44.3015
96.3216
68.99
42.9307
108.253
45.2469
47.3097
43.3253
46.0762
45.0848
55.2257
54.7538
52.9078
114.234
70.5436
58.8731
1246.45
102.555
482.485
69.5241
42.6773
42.205
42.6473
42.5049
43.0792
108.162
50.4594
46.7942
75.4428
42.6669
65.3774
50.001
42.3667
42.0106
46.023
42.2012
87.646
55.8527
51.9933
105.053
73.5326
98.9773
47.1078
90.1662
45.1174
82.1817
55.2998
82.6769
42.538
63.8255
70.9001
49.896
456.43
43.6362
362.602
42.737
254.902
45.2512
716.428
1245.52
46.7234
46.2461
58.0893
43.2668
41.1902
52.0332
52.9201
41.4287
83.9059
249.653
50.351
44.7552
42.3388
70.2675
52.0482
46.2068
89.6012
956.371
55.2436
43.7054
42.5879
47.5758
43.5085
124.191
42.0078
45.089
66.7311
47.1538
44.5775
41.9273
60.2758
84.5268
44.2034
77.9307
87.5657
50.6262
48.661
44.6463
44.1237
83.446
49.91
80.6067
49.5186
94.6255
49.58
55.3887
47.2274
42.8924
44.5439
47.758
64.7781
50.1775
46.3011
53.0576
47.7386
50.8796
42.4839
96.328
266.331
265.225
143.392
53.5367
91.0986
54.173
51.6762
44.5682
51.3662
76.8857
42.651
41.9332
43.3253
42.573
104.242
43.3693
46.3669
48.888
42.2892
83.042
104.726
661.68
49.4981
49.3835
88.005
82.2557
147.563
119.953
186.684
47.9091
58.7672
113.702
60.5067
62.1692
85.6951
80.0395
478.983
63.2372
540.642
745.27
93.7695
66.3943
95.1733
60.6829
61.5244
104.623
47.9449
56.3283
53.2669
53.7851
42.8614
43.0562
44.682
46.0228
112.804
80.1063
131.499
397.5
43.8717
44.4114
47.7286
44.6131
115.661
112.626
82.8413
55.9552
82.0199
54.7018
264.395
45.8925
43.7089
63.8388
100.247
44.2207
88.1834
148.333
43.377
62.7366
75.1151
44.4064
61.7593
63.9947
60.5951
68.3577
64.3617
44.7634
45.806
129.973
48.0695
45.5476
77.1403
43.2251
68.1301
45.2877
44.5257
44.5575
44.5337
46.5345
44.7075
43.4033
43.3419
56.9149
46.9561
41.9168
44.9464
44.1898
42.5783
167.509
41.9228
207.259
208.468
196.347
73.6119
384.41
41.632
42.5313
264.371
53.1516
47.582
45.3287
70.4205
72.127
64.5118
41.8117
42.3836
42.3582
42.9206
74.5719
49.7403
54.0784
41.8898
42.0768
43.4308
42.3942
54.7779
129.641
724.799
471.062
70.9446
120.427
54.9783
57.4417
42.2293
44.1062
55.0993
102.696
69.3753
66.1848
284.883
113.607
191.645
48.2388
822.932
51.8482
42.5269
41.9857
56.6672
47.9039
117.838
85.2466
72.871
44.9297
47.0805
44.6594
48.4338
252.489
135.779
64.8661
97.5617
53.2201
101.356
42.8512
42.9633
46.181
43.4652
43.5313
55.3089
55.6792
76.6058
54.6563
51.4067
41.975
41.9035
42.2385
42.1656
57.1451
52.2806
44.259
44.9439
99.6487
73.5038
579.289
115.708
146.184
60.5042
49.9716
641.447
777.656
48.5208
46.5958
42.0338
44.4078
47.068
88.1409
131.81
77.8918
43.0498
111.095
57.7347
46.6328
45.8929
43.3169
50.2542
47.6776
48.1009
42.5498
42.8495
43.0438
42.8989
43.0177
43.2033
45.9221
86.5897
46.7251
49.7468
52.5344
50.2145
51.9908
48.3405
63.688
50.2767
64.4582
41.7926
107.924
106.696
152.529
85.5386
45.2968
44.1323
54.8961
44.944
75.3383
45.4321
61.6967
47.0364
155.631
44.3637
70.7372
61.7914
75.5769
119.105
44.562
49.613
60.8387
43.8941
43.8246
82.4797
81.5922
782.427
58.9313
66.1454
71.4676
86.9123
60.2188
117.826
46.4148
103.952
43.3225
57.1635
42.2205
49.2729
139.061
65.5631
65.5192
46.0615
44.7293
51.2352
54.6664
67.4468
68.6432
45.9547
52.6338
47.4009
49.159
65.4283
45.2378
44.1651
42.3304
112.208
66.0735
49.1043
42.461
45.396
47.1933
46.3773
57.38
50.7144
47.2507
65.6163
60.3
44.7909
67.6835
753.246
145.545
256.555
731.314
43.2646
45.0418
41.7461
45.8445
124.334
44.1876
42.3476
51.6266
52.5983
41.6926
43.8826
80.6686
63.6136
87.6556
87.1546
91.4113
93.3055
115.37
56.7677
104.099
44.5904
46.131
77.6451
74.3685
87.9318
69.0769
47.578
48.8937
49.1636
224.042
85.1416
51.0571
47.7886
44.6691
48.6388
133.773
66.4215
56.9167
50.9308
72.5135
100.501
52.7705
55.7589
55.1502
322.653
52.8921
528.877
41.8713
45.123
145.685
53.6295
52.7552
43.0523
47.4461
42.8282
42.0508
48.6505
46.6501
43.118
46.7933
44.5661
47.4726
83.9268
43.8436
44.1727
97.5447
61.0845
47.7033
42.6225
88.3442
45.4479
43.241
48.9036
119.287
58.6949
46.6997
184.495
165.595
920.84
1267.91
45.8073
45.3465
46.8625
48.3023
67.4369
1351.77
46.1976
233.531
163.464
129.509
53.3919
57.7436
43.4643
77.4632
45.0399
192.554
66.7753
1019.6
41.5897
42.5953
45.852
42.8801
48.986
71.7619
43.8546
44.4574
47.1274
462.447
43.4424
52.263
42.4951
87.2901
91.4286
57.275
346.067
52.1463
70.4037
44.9904
64.7477
55.4632
111.111
72.6435
114.42
126.209
655.135
44.4687
58.118
64.2381
98.3447
69.5673
105.824
69.2497
73.9839
150.731
175.488
694.91
823.48
136.905
92.7492
61.9971
61.9517
58.2355
59.6418
54.4593
58.2755
47.3581
63.0752
100.146
42.3017
47.7878
83.1515
55.1535
44.0119
48.3922
44.4877
72.7213
44.4285
42.2075
97.6377
45.4523
51.5582
44.2209
43.1702
45.4914
55.0689
42.9237
47.1005
151.414
65.7197
42.2814
41.1457
82.4392
79.8201
42.3009
43.7733
46.1152
102.845
61.8147
43.8847
49.6629
41.1921
121.527
116.426
156.594
916.912
43.175
60.6344
110.455
47.397
46.132
43.9155
64.2238
48.7598
46.9143
105.402
54.1316
54.3668
107.131
72.1445
83.7682
45.092
79.0837
99.441
42.3135
57.1002
102.719
43.9607
221.58
52.5369
562.724
61.6679
47.7038
873.056
48.4179
48.7162
44.2409
845.224
59.5113
43.4615
245.639
64.7364
46.8798
50.408
64.312
52.2811
63.9614
72.5546
41.988
69.0824
732.667
53.979
1252.09
716.276
918.787
60.406
1293.69
98.3303
448.168
1153.33
63.8038
46.8984
54.8842
46.1014
51.6867
80.1173
82.74
520.392
1021.47
87.4457
44.4545
70.4293
489.55
52.267
44.2607
41.9894
80.4291
76.7315
43.9639
1326.6
361.507
1223.68
1297.69
55.7131
72.0211
61.5197
79.6613
82.0204
95.2597
117.73
94.0469
51.4547
41.4621
46.8197
49.5573
90.9819
46.1709
52.9975
86.8264
51.2091
44.0048
42.539
45.0923
41.5022
52.4455
42.4521
43.3429
51.8219
91.1546
52.4124
59.1975
42.6881
73.4976
47.9817
43.3797
47.8733
42.0889
42.6355
43.4169
93.3475
44.3309
44.3675
41.5472
58.9093
75.8526
58.7955
41.9965
78.1598
107.111
134.852
138.276
51.832
53.343
56.1788
41.8802
44.3172
42.5172
42.3342
43.3144
67.8283
397.602
53.3125
44.2946
46.8591
44.5722
43.9416
43.5477
54.5602
43.3893
47.0004
113.934
45.392
47.3797
52.7158
50.1388
52.77
53.3998
63.0908
52.9947
49.4608
48.8888
58.9364
107.392
1318.14
679.88
44.7937
94.358
91.5846
48.2714
43.9804
65.1597
274.245
44.2972
140.597
50.4935
47.8859
49.8133
45.9828
51.4067
46.1119
46.0458
41.7686
52.9606
41.4703
41.5271
41.7494
42.5886
41.5667
41.0444
41.9793
41.7081
48.2608
154.969
42.8187
368.168
299.072
70.5766
41.928
42.48
1031.7
52.6027
84.8563
53.5069
41.8513
46.8076
48.106
48.8607
47.2399
311.283
45.0851
59.4506
43.0967
56.932
43.3705
57.6386
44.8906
59.6946
44.1193
41.9977
57.8218
42.5317
57.3602
42.299
51.7645
87.3193
659.567
63.3651
45.7104
111.955
42.0499
60.0788
42.0771
52.3596
105.106
42.3305
48.4351
227.664
991.174
51.131
51.4556
57.6911
52.2479
58.5412
84.8098
49.1107
51.8873
43.7776
42.442
53.0799
44.4942
42.1183
43.0584
60.524
47.3874
1316.85
75.4667
765.887
41.9773
252.554
81.4628
276.823
46.8046
43.0557
83.9484
432.655
45.8803
45.1451
695.58
52.1779
806.516
630.024
46.2154
42.8198
45.9608
42.5796
62.803
83.7039
45.4877
44.314
49.4051
59.4366
46.0651
47.3892
83.9967
42.3248
42.2908
41.7507
42.9384
44.002
45.5327
47.2707
47.3672
50.7788
49.2019
44.7775
49.787
49.1855
49.8602
58.4121
47.1213
41.7945
54.4932
53.1904
71.2478
46.6769
48.3893
43.9104
42.4866
101.828
54.7211
45.8835
41.7854
42.3904
44.9201
41.5511
41.33
41.4317
41.3809
44.1758
43.4514
41.4207
41.3048
42.3878
42.1704
44.1881
42.1728
44.0578
43.0684
42.5399
43.2188
43.0823
43.8022
44.2232
94.372
113.547
128.624
41.9628
284.857
124.235
42.5369
77.0125
55.8497
43.5399
79.1598
181.58
1210.9
46.6168
44.705
83.5938
122.879
47.5756
46.9624
51.9599
64.8091
57.9244
54.6938
54.0271
51.6989
51.158
92.993
87.3348
99.4332
57.768
55.8689
58.0637
42.515
63.4734
45.8195
42.9052
74.0751
62.2967
43.9137
83.0434
42.5135
45.7423
72.9604
101.789
44.1279
69.4733
85.7659
132.233
42.335
101.392
59.3615
70.1849
42.8263
53.2061
114.864
46.1707
66.1649
75.7842
49.0508
42.587
42.6515
45.6416
41.5958
42.1111
48.7052
129.511
111.89
54.4812
75.3905
98.7953
105.191
92.0387
45.7989
94.6514
57.905
135.967
158.783
75.5074
53.9934
101.269
83.559
51.1898
51.7943
49.4235
42.1352
47.3713
46.6781
80.967
51.7507
42.6229
125.62
42.8714
43.5802
67.7318
47.9259
43.7096
150.924
88.01
45.5383
45.3242
48.786
43.4834
92.9032
42.5802
44.6625
44.5798
304.248
74.6034
41.9697
42.3266
42.1063
41.9434
42.347
245.857
42.2791
258.401
42.6294
576.328
391.909
44.5078
1470.64
1410.08
48.8253
627.868
61.7296
43.6525
679.001
92.6046
899.697
897.929
1270.36
140.268
550.372
675.731
1272.74
62.8962
476.163
68.2871
89.9686
113.563
54.7034
80.0609
85.921
43.482
47.5414
228.072
150.178
85.2752
66.1264
137.88
932.398
314.265
76.2331
53.3254
53.8726
49.2292
50.1747
99.2639
42.6694
45.1277
44.7169
42.4131
41.6977
45.0768
46.8794
1089.07
85.0422
59.4468
101.301
82.6744
45.0252
47.8376
54.4106
42.0247
44.2127
41.8841
76.3981
43.1657
46.9798
100.881
57.6852
41.2735
42.2094
59.1867
45.0205
69.9958
43.1382
100.788
44.5294
44.237
44.7443
45.3233
51.2387
42.9754
50.8062
162.804
77.699
45.9581
49.7189
127.046
52.7908
44.2184
55.3144
42.4632
83.5167
42.5636
42.5919
41.9499
69.2705
71.7923
52.2821
66.402
80.3578
42.9424
47.5255
41.5841
998.366
45.9248
43.1163
46.7687
45.3531
74.5246
52.1013
44.1603
42.2533
49.5232
180.663
44.3728
60.8511
41.7228
77.467
46.2228
45.3517
1142.88
77.9961
53.2978
106.688
47.2592
60.7594
59.3788
77.3603
43.4728
128.983
43.6932
44.9687
1189.56
47.4738
112.975
119.862
108.505
120.439
78.3946
78.7925
79.6106
115.674
91.9631
85.2555
62.9632
67.2156
106.287
49.769
44.1371
44.7655
45.1945
104.074
44.4771
41.7964
41.9826
42.6621
42.1698
42.9072
42.8586
42.8928
50.3048
49.2146
53.3722
54.3447
48.3337
88.9688
79.825
65.4924
69.1265
44.3722
71.2662
48.9273
48.6312
75.6192
44.4265
50.8168
1239.57
66.7526
948.866
590.786
49.4013
57.9873
47.2711
52.387
73.8026
43.3415
54.4555
102.357
1145.92
107.348
172.065
72.8554
44.9467
91.1855
121.427
78.2099
364.045
46.3382
1184.47
130.497
468.42
1141.84
81.4129
41.4778
74.5549
42.6105
79.5359
42.7183
46.2254
47.8354
58.1188
104.583
101.933
65.3133
56.7305
49.903
223.871
46.6452
57.3935
47.8994
87.4747
95.1425
50.6283
76.6545
53.1889
61.29
115.505
66.9009
91.0938
42.3835
46.8211
113.315
48.6194
52.8626
90.2518
49.7859
43.8777
44.7475
81.4822
102.968
41.7045
624.027
234.876
43.9769
49.0191
875.419
167.581
975.639
42.999
110.08
97.7862
44.9331
88.4014
118.703
57.68
43.3315
71.3159
43.9953
67.1577
108.337
230.231
71.3697
91.0032
44.0759
41.8266
49.9982
46.9533
51.0996
52.4758
57.4705
96.4502
45.1408
44.6471
68.4756
77.2066
56.6082
201.533
86.1392
87.4933
169.395
74.1689
53.0777
44.9355
52.215
46.6164
42.7169
41.8259
61.0225
43.2564
53.5162
50.11
617.231
45.5411
42.5505
270.526
53.2352
57.0096
141.982
130.985
99.024
92.8866
416.575
106.992
56.3268
114.045
119.321
109.898
85.2676
51.9485
121.13
41.7657
63.1745
49.8702
45.8459
42.7465
43.4366
52.5516
47.2385
70.53
45.0042
53.1702
50.8958
41.4697
57.2778
44.6222
140.974
44.2701
41.7346
44.1169
60.3165
52.8089
44.2315
64.4438
50.7786
102.768
88.3191
134.232
76.0794
58.3981
73.8692
50.2986
48.4438
44.0348
44.5621
63.5567
64.9677
140.687
77.2168
104.545
42.5918
42.8305
48.1944
51.2449
47.5294
48.0177
46.8369
42.5492
44.181
42.3957
88.5285
91.1274
65.0617
63.5094
55.6541
63.2613
42.6581
41.7364
46.6697
50.9966
67.3545
52.3817
120.029
47.993
47.7404
50.8727
43.5023
41.9962
42.0709
51.5705
44.6594
68.3673
44.775
49.3476
42.286
41.6262
42.821
47.445
43.5145
44.7252
58.5637
74.3498
47.2205
44.1709
44.9816
55.4547
56.986
44.2609
45.7446
44.5191
45.4741
64.9159
42.6845
45.0166
60.7626
99.6815
42.2005
44.616
68.6544
42.5615
101.447
44.2303
43.2728
46.7556
68.528
42.5732
46.4049
44.6491
43.1339
46.7208
44.5816
48.9119
52.246
1419.95
42.084
54.6705
732.554
80.2886
86.5777
307.639
219.769
72.948
83.2958
78.0981
46.6422
45.8478
45.338
42.1905
54.4678
95.5093
41.7809
48.3157
42.5397
55.7764
46.57
76.3401
46.9099
66.757
55.4797
47.417
41.5863
45.2107
43.8451
435.124
187.308
219.751
138.889
255.755
46.0805
41.6143
1492.52
64.0075
62.5554
61.6816
43.9831
69.9012
108.848
65.3749
50.1728
42.8472
42.2337
99.5558
44.9054
53.6249
62.1418
52.5742
94.294
45.4537
185.91
257.963
44.2698
60.7397
55.8389
228.625
41.8431
42.8376
50.1641
85.3318
47.4962
45.9787
50.869
69.7821
42.1131
41.9356
43.2654
42.4299
48.8789
44.6062
41.9778
43.6316
44.6112
85.1316
58.5308
57.7466
105.667
41.8154
41.9628
85.9756
69.111
129.301
94.745
68.1633
144.933
55.7748
79.9722
46.9613
56.8956
50.3834
55.7935
56.1274
42.1478
46.5629
42.7688
64.6627
84.1064
114.486
73.4296
107.693
53.4523
48.2711
113.741
62.0842
157.355
74.2553
85.65
46.6257
47.7812
58.0488
87.3908
792.255
46.4999
991.788
1061.49
673.538
42.5224
43.9985
44.1095
1198.34
42.3628
45.0832
59.1033
49.0283
44.7463
52.0295
49.0902
46.3767
45.1545
47.46
46.8661
44.5097
54.3594
235.531
196.327
44.1016
149.577
53.0627
68.7417
63.695
69.708
47.7763
985.512
1014.17
927.949
296.72
181.62
999.132
65.9983
56.4198
66.4022
1446.47
69.0555
1003.4
59.1409
63.2648
41.8223
42.1649
42.2225
42.8066
42.636
42.9103
43.3429
48.4782
57.956
43.9949
42.5718
44.2582
48.6206
47.8132
42.1042
42.7447
43.0054
42.4944
56.006
41.7881
42.396
122.315
42.3246
42.483
44.3899
41.8032
46.0197
76.8638
85.9537
74.5199
45.2179
58.3289
42.0149
117.873
73.2292
52.519
50.7981
93.3164
43.5664
59.444
44.4646
49.2729
42.6909
56.7659
43.9919
56.2908
61.7266
51.7349
94.4834
42.7472
49.7266
43.5514
83.2334
67.2079
49.3845
42.01
43.2622
50.9375
52.2276
52.9305
57.4176
50.0018
49.0715
61.3948
64.211
327.24
48.3065
47.7435
41.4946
52.0158
45.4356
43.119
42.1299
50.0496
44.1778
42.1202
41.7879
52.8333
44.6563
136.456
50.0734
56.3623
43.6206
42.362
45.2391
51.7461
42.454
66.583
42.5742
99.047
77.8629
48.5013
42.8048
70.7506
65.3831
47.4886
41.9066
52.7561
53.8025
41.8273
42.8463
68.4125
67.3814
77.0998
107.953
76.323
42.2136
118.027
43.3664
45.6825
81.6388
46.2287
122.093
42.3304
41.8763
42.4788
45.7919
41.9724
49.7669
58.7797
54.6963
53.3924
41.7106
53.1583
81.1926
41.9465
44.3944
58.4011
42.3553
48.0965
87.6638
42.8172
41.8377
42.4356
41.8227
44.6794
44.1817
48.3456
85.9589
51.3084
57.3851
55.7024
58.2299
48.7534
42.1715
48.1185
41.5517
41.5774
96.5844
45.426
42.5085
51.0375
41.6018
42.6199
48.1662
73.8621
146.928
60.4907
152.489
626.65
1223.38
46.8951
41.8892
43.0925
41.9959
48.7174
81.8954
66.468
50.9587
70.4455
130.287
96.1972
42.2269
58.0656
884.378
478.126
43.7838
403.64
58.9045
56.8849
47.6037
1063.63
1159.87
973.249
41.3949
50.1774
1191.71
1109.9
41.3006
41.7237
46.4226
68.4587
56.1834
46.4504
45.1731
64.1728
56.1245
42.1059
64.7334
542.807
42.2614
56.5449
44.11
47.8309
43.2955
44.2654
44.5175
43.3166
48.3583
94.3762
46.3993
112.806
63.865
52.4262
51.243
44.1542
45.7953
42.736
45.6617
45.2209
82.6935
77.4092
43.709
57.2904
61.0385
141.019
48.8588
54.7994
51.0959
1077.16
44.38
77.1692
59.7791
56.1077
79.5581
72.0265
42.828
50.5155
62.4449
45.3018
59.5726
44.6309
79.8495
61.1418
65.681
228.919
48.2012
75.8288
86.2376
41.9827
47.2167
44.2775
50.4206
244.021
87.9946
44.2362
45.0821
71.7188
140.286
74.0552
44.0091
44.2149
47.747
42.3888
61.5143
49.8927
60.4618
75.9403
48.756
59.9112
54.3064
60.5211
50.7191
62.3557
106.228
471.157
53.4808
61.6628
57.7674
41.9033
43.0975
56.3674
156.655
77.1077
47.4396
44.2915
58.1072
46.9229
49.2872
56.1185
41.675
42.3176
46.3723
49.2581
57.2471
186.471
54.4908
51.6496
47.0688
51.7829
44.9515
48.3763
42.395
43.0637
42.4248
41.3893
41.5186
42.2705
47.5575
42.3137
41.9703
48.7406
42.9064
42.1316
79.0677
886.313
47.1409
44.8973
54.7747
44.973
42.5611
884.272
53.0604
875.495
42.374
43.1523
67.6053
68.8133
56.339
81.3091
76.5055
69.1589
51.914
65.2044
41.7425
44.534
99.2185
65.5764
47.4558
47.7907
68.3496
42.9359
43.8584
101.205
46.3952
42.198
45.6404
46.2985
44.22
42.472
42.9705
41.2789
54.1758
43.2757
41.6417
43.2708
43.0521
43.7679
41.5875
44.0978
42.9129
45.9644
51.9894
85.4288
54.6492
54.1888
75.1752
45.527
41.8047
71.7816
43.2663
42.9198
56.0378
47.7924
399.274
54.424
54.7763
55.8068
48.0589
186.868
207.735
164.418
100.602
52.746
118.829
50.1638
43.0231
91.454
47.0742
237.619
44.6013
44.779
100.285
53.9038
44.4686
68.5797
42.1944
48.7419
95.389
51.8425
50.123
45.8856
42.3898
43.1307
397.088
50.4434
49.9487
42.0087
49.5071
42.1611
105.093
48.5404
42.0923
50.5152
43.3483
183.219
63.9702
53.7731
55.7362
1308.97
255.276
44.8501
48.4368
54.3466
42.5584
59.0617
62.7533
50.6201
42.7865
44.0331
53.8858
54.4657
56.6377
68.4323
48.6207
45.5973
51.9617
51.5102
43.3094
63.5804
70.4211
80.7308
44.4206
43.0557
83.8865
42.8898
44.3729
45.2564
177.635
1371.75
44.1426
54.7994
41.3346
55.0533
46.91
49.0389
43.4443
170.427
57.0386
96.257
1273.43
58.7589
79.1066
612.13
1208.76
248.551
187.447
76.3064
389.63
42.048
47.2466
41.8023
43.8033
43.1893
200.824
42.3348
47.6594
48.8011
46.3396
45.5828
44.4212
42.0583
58.3023
41.8113
42.3442
62.7536
45.2621
544.191
72.2546
554.019
70.9053
145.857
52.8246
80.8475
58.8561
1080.4
56.4399
78.9401
206.876
789.747
243.499
409.77
301.621
56.1688
252.134
51.2306
809.804
152.646
61.4778
60.914
54.2582
62.9111
112.646
51.1521
410.092
48.851
62.6147
55.75
154.69
79.7104
217.057
84.1845
847.136
623.655
174.172
82.6795
50.7126
51.5222
95.403
51.5497
47.3796
44.5787
48.8752
55.4171
44.2359
86.7965
147.677
90.2979
47.8137
77.7667
44.7485
50.0552
43.2901
51.2642
46.5277
52.3137
139.224
531.573
237.135
76.8607
98.9197
263.081
83.4425
195.713
44.9938
56.1551
44.6394
95.2512
89.3995
44.2376
42.6218
46.079
43.2733
49.8758
69.88
50.0273
50.4335
54.0808
42.0404
61.0733
42.8272
52.0266
49.4737
66.5554
130.219
72.9963
114.25
43.4513
114.595
97.431
73.8157
58.0291
43.7718
41.8418
84.5528
58.2475
52.7896
48.4452
49.2909
134.999
109.259
89.9772
116.472
155.029
120.91
79.701
67.8662
43.4622
43.0141
52.4384
53.9845
73.8681
45.9197
44.1727
74.1363
62.0473
114.651
55.9703
101.084
69.6419
77.5686
120.68
112.572
51.1884
48.6452
74.1864
93.8001
73.2775
70.8775
61.0237
57.9588
75.2606
68.9699
43.5621
51.8619
48.3727
46.3916
44.2276
61.164
83.9828
63.7075
90.6273
42.6679
53.2192
64.7744
63.1275
57.915
56.2448
87.7956
57.1713
56.0956
50.3498
58.4829
47.8161
46.3987
44.3876
958.918
363.803
869.929
883.53
43.1345
95.8463
91.5618
52.9735
94.0039
89.2103
93.0704
68.9645
50.8612
48.5965
52.3056
83.0022
47.7144
98.0341
55.678
47.8246
56.4835
60.4514
95.4599
58.17
48.661
83.5029
53.1346
51.2121
55.4825
61.6961
44.9213
45.9968
134.703
45.4289
43.1845
65.901
175.139
87.4988
112.107
685.679
47.7801
71.7983
225.355
788.44
207.207
202.867
193.485
1282.14
332.317
456.549
87.6751
57.9712
44.3414
45.9522
46.5026
1012.73
43.3455
44.6368
1048.5
43.2946
1183.24
78.8714
47.3214
41.7172
42.5992
45.0525
44.9594
42.9455
42.2728
42.3723
42.2223
44.8086
42.342
42.0969
51.5151
48.0664
48.1024
56.6207
57.1153
56.9965
42.1102
46.0068
44.7054
83.1221
94.6286
44.0823
42.1415
43.1731
42.8724
48.1666
43.9509
128.17
42.929
42.1721
41.5694
53.964
88.2364
44.9185
75.9867
110.03
74.2381
50.2034
49.8756
42.1297
41.9695
42.702
44.3613
44.364
43.5996
46.4989
46.7389
43.0454
42.0384
43.6663
43.2646
43.8804
44.3517
43.9634
49.9501
45.8853
47.8756
41.9175
51.5098
44.7061
47.1006
42.4619
51.6168
120.474
41.2337
45.6815
56.487
699.388
97.5288
57.2101
130.909
49.6547
70.8169
42.1675
56.2548
44.3426
45.7246
43.6044
42.6427
55.371
44.6293
43.9059
121.91
47.912
55.8297
45.2508
44.6523
44.5832
45.8994
44.9173
92.9134
118.008
87.8246
129.379
48.0135
42.8221
55.2046
647.055
121.887
44.3999
43.929
47.647
99.9108
90.22
42.827
1032.14
68.0338
44.9678
44.5741
43.0116
42.3641
43.6538
45.9846
47.7354
94.3153
1142.25
42.492
826.209
54.2576
43.1804
53.5698
70.6181
43.2494
51.9021
78.4432
49.8971
42.8205
1283.89
45.0682
45.8232
41.8682
68.0188
49.5622
79.811
1187.96
570.455
758.041
211.607
248.025
933.383
146.581
43.3503
41.6262
593.248
41.9194
85.4643
68.1958
59.6309
93.1777
91.6825
59.8623
45.6902
43.3353
43.3374
51.1859
75.4955
89.1748
51.8695
52.7901
44.3439
47.6288
90.232
44.8375
42.6474
140.201
60.1748
73.0623
41.9152
48.1344
45.0224
51.6688
44.0556
43.7792
48.8517
81.694
53.8795
44.6054
45.2003
57.7341
108.015
91.5243
97.6352
48.2267
42.5089
45.3983
57.4814
41.7544
42.4861
53.1043
47.6056
42.4871
901.359
54.9862
43.915
55.2716
68.7925
73.1496
55.9563
49.4415
44.6752
46.7263
46.5426
44.767
57.9083
52.389
44.913
52.8506
74.3093
121.036
460.367
55.3381
51.5631
49.9381
61.3025
42.7882
47.4553
43.4232
74.8778
43.2745
180.123
48.2894
46.2892
123.173
100.714
1185.59
1179.04
470.267
43.591
81.6101
59.3294
49.8763
46.3063
47.3653
42.9632
56.9308
59.7184
90.8376
54.9564
51.0049
97.6466
68.2494
47.8169
69.6147
59.0455
118.198
1401.95
56.3632
45.7304
47.2006
62.3043
273.132
51.3
53.671
82.8113
59.2282
54.3615
47.7823
338.778
44.6221
43.6849
44.3087
41.8535
43.7093
45.6766
42.8923
89.5292
46.2543
105.058
60.4192
83.5203
396.728
81.7192
44.4625
47.9289
46.2547
53.0574
41.3186
45.6091
48.9783
44.3223
42.1976
57.5823
43.4668
91.9252
44.3495
42.3732
42.5538
46.0495
43.1562
45.4905
49.4589
60.2136
48.9625
44.0464
43.6572
42.4335
43.1422
43.1007
43.2561
44.1296
43.1121
42.5627
48.568
48.1052
41.7664
43.9262
76.5196
42.7311
48.1747
47.2161
113.329
46.6745
45.8403
44.9014
41.8293
68.056
67.4155
43.8147
64.1092
53.4003
43.689
42.657
47.8497
46.94
44.5477
44.8151
99.3342
45.3607
59.7284
44.9188
46.9867
44.7314
47.4485
59.7036
291.94
45.8892
54.2418
41.8519
52.0776
55.216
61.8117
42.4343
43.0887
48.7687
45.2626
45.4756
41.798
43.511
71.291
1209.81
42.3209
51.4942
41.7043
42.1269
41.8755
43.2778
41.7953
42.2737
41.8885
95.8348
51.8553
45.3195
45.3098
44.0162
43.7812
43.4296
46.2455
93.4898
56.4449
52.4723
54.3132
48.2985
60.2622
43.6638
44.1965
51.477
41.9844
43.9251
59.1635
49.6742
45.1086
41.5354
1208.32
44.4625
43.4632
1377.16
45.0314
53.0005
47.159
276.16
47.3482
42.7461
97.0453
101.551
159.174
48.6729
694.452
853.865
41.9625
48.3824
56.247
42.0808
45.5046
178.656
50.5052
47.395
61.7124
56.8004
1041.7
59.6284
76.6274
48.9075
48.5634
259.937
177.917
148.456
46.0344
1070.98
298.034
284.935
360.352
236.988
181.556
44.5875
43.8941
43.9276
45.9369
42.2518
42.0434
41.8784
41.8882
398.959
41.9133
52.8235
42.2775
41.8789
44.726
45.684
43.1081
42.0231
43.1352
44.1242
41.7451
50.4848
43.413
43.598
44.0565
42.3705
42.355
42.612
41.4119
44.5932
48.7485
80.7882
41.2312
51.1087
67.7236
94.9737
45.5812
102.261
86.2431
80.2398
93.206
45.6351
46.0528
44.0156
55.3435
63.037
154.823
83.609
44.0069
60.6858
193.882
662.289
710.435
461.989
53.9408
44.4388
47.4049
45.5193
41.8322
43.1346
1138.51
233.121
43.6589
43.0893
877.357
42.5808
69.9529
43.7528
42.47
41.4869
42.6133
43.7307
61.001
52.867
55.1101
63.9179
56.603
45.2748
44.9721
58.2768
45.9388
45.9006
48.1635
52.5748
292.196
66.5227
251.556
46.0703
49.3751
45.7315
45.8416
45.7893
45.3242
43.6004
43.3772
43.9283
44.2569
44.782
43.4498
41.565
41.8825
44.885
43.5996
43.4846
45.2284
42.6883
42.8677
56.597
83.5654
93.0142
50.1594
75.4103
129.459
157.398
160.535
93.7857
85.8938
119.321
112.851
76.5278
45.0378
54.2765
94.1347
87.994
63.1459
57.4531
54.3052
54.533
58.6378
60.9011
60.9534
60.1744
97.52
57.4571
52.2417
55.3878
42.5801
114.436
46.9046
66.0097
127.671
58.2046
63.8496
58.9043
103.704
55.9841
54.3365
81.7655
56.6627
52.5675
55.5406
54.7728
55.6273
119.343
117.955
49.2296
48.5439
59.3156
56.301
54.6243
929.931
687.658
369.936
733.057
737.989
56.014
57.9211
57.3581
620.063
50.6561
56.4891
43.1339
46.8758
43.1878
42.0175
62.6111
51.2604
42.4238
58.507
48.018
51.421
48.4271
76.4854
42.9635
65.482
102.562
92.0469
61.9911
44.4831
50.2181
87.5611
83.665
59.3823
57.7644
45.1406
42.5503
45.6541
54.558
42.0572
64.7399
67.2044
41.8297
51.4474
50.1015
111.493
74.6297
103.389
56.1088
44.7764
42.6828
42.0524
48.5479
47.9662
45.1503
45.6353
58.8143
51.0847
49.1744
96.4278
49.1251
68.8272
54.3021
992.016
68.5093
63.7833
43.1425
56.0555
42.5923
42.0455
42.4714
61.5423
42.8176
1237.91
49.0683
51.4427
42.6254
48.9988
94.6555
42.4561
50.4524
48.7463
43.1507
48.9017
88.626
102.821
119.699
88.0883
53.08
42.4926
45.7526
41.9704
52.8527
49.1606
49.1897
70.2855
68.9632
52.3494
48.6243
42.2872
48.5441
41.9756
41.8383
52.445
43.0049
43.045
46.5375
43.5854
42.5622
42.2313
43.3307
42.8272
42.6238
43.4842
43.6829
43.3782
46.0429
45.3834
41.1108
43.5875
54.0463
84.99
167.681
47.0297
50.6072
42.2595
43.5006
43.4896
42.0731
48.3614
47.4676
43.8483
42.6576
46.9307
116.994
56.6829
49.3248
48.3942
49.6875
47.9974
41.6812
42.2599
50.6155
44.7397
42.5509
43.9957
56.0841
98.3939
612.743
50.4737
1269.28
76.6403
44.2828
53.0478
42.5156
44.202
43.0405
44.6432
45.0211
50.7006
55.5764
66.2537
67.6712
54.4629
51.6438
42.3562
44.4662
42.791
117.685
99.7533
42.582
48.4633
44.5703
43.0519
43.2937
44.4483
47.7403
81.2863
54.4337
58.94
54.9434
1328.01
47.1772
86.384
82.1347
815.86
65.2774
685.375
45.059
41.8491
41.9666
44.2757
61.5168
51.2785
44.4849
43.8202
44.7636
51.8877
44.9618
158.822
96.0245
52.4382
45.4341
865.767
49.1649
746.666
64.7062
55.3813
115.418
92.6654
48.1774
42.2228
43.9564
42.566
60.0761
67.7817
584.771
88.9873
72.8409
58.3162
46.4499
83.7205
63.6427
57.5796
105.965
62.2971
46.8843
49.6084
43.7116
52.372
46.496
47.3707
116.314
60.61
42.4419
47.318
45.6273
54.5943
41.4105
87.7751
47.2164
41.8659
56.7437
56.4838
45.7079
60.7001
64.5016
42.1469
53.5444
52.872
50.4827
50.2406
42.2703
41.5904
69.9476
45.2745
66.5481
69.8186
42.208
42.6636
41.935
44.3316
44.077
44.181
44.0174
45.3011
95.5806
55.3704
52.3416
49.4672
43.6531
92.5762
89.4705
51.1077
124.114
100.87
106.766
44.6102
104.565
59.7897
157.74
64.3526
48.108
75.528
96.6959
75.9978
66.0748
121.885
115.557
113.863
44.6478
44.3
59.8823
41.3617
55.9364
58.0595
49.4867
58.5579
42.2721
44.1619
49.2902
44.8078
49.0125
44.4905
44.5061
44.5115
42.2576
41.9865
48.9903
48.9827
41.2599
43.2915
45.372
939.713
42.5324
45.3804
41.9292
41.9599
42.8022
45.1669
41.8015
48.014
51.8668
43.1729
47.3659
44.3998
55.2036
178.15
53.6845
47.3412
90.0522
43.006
41.9384
42.7702
49.5561
43.7172
43.9662
43.3278
42.7301
42.0773
42.3205
51.9748
44.5236
61.4522
46.7235
45.5065
43.2054
46.2064
42.592
44.8095
47.2079
46.0916
51.3379
46.1206
47.9485
57.5341
107.03
62.2829
59.5445
49.5153
119.782
41.9076
41.0337
70.0632
42.2649
43.2589
73.5645
50.2273
45.0719
50.8077
54.6838
169.754
214.896
50.8485
94.8924
53.9387
57.2185
44.1771
43.55
43.0402
60.0666
45.1732
231.281
925.703
902.925
44.819
156.873
44.2026
46.4233
48.1756
46.4752
54.7478
57.6747
51.9584
49.5236
47.6451
58.7715
49.0089
44.8505
44.2508
41.9637
44.8116
49.5968
43.8336
43.7059
43.6968
41.8931
41.8191
42.2795
47.5016
42.0403
41.388
41.2847
49.2373
85.488
47.9568
141.21
78.9801
53.3499
45.1661
1129.63
655.037
223.176
1073.15
79.8464
1200.61
136.089
41.556
86.8471