/*--------------------------------*- C++ -*----------------------------------*\
| =========                 |                                                 |
| \\      /  F ield         | OpenFOAM: The Open Source CFD Toolbox           |
|  \\    /   O peration     | Version:  2506                                  |
|   \\  /    A nd           | Website:  www.openfoam.com                      |
|    \\/     M anipulation  |                                                 |
\*---------------------------------------------------------------------------*/
FoamFile
{
    version     2.0;
    format      ascii;
    arch        "LSB;label=32;scalar=64";
    class       volScalarField;
    location    "0.0948794";
    object      p;
}
// * * * * * * * * * * * * * * * * * * * * * * * * * * * * * * * * * * * * * //

dimensions      [0 2 -2 0 0 0 0];

internalField   nonuniform List<scalar> 
3972
(
10.3508
19.1117
0.934861
-1.24099
31.5696
6.0906
-3.25817
19.5175
16.6609
12.1729
7.11897
19.6092
-12.206
8.35236
8.77457
9.56132
5.59186
-3.57601
6.69846
5.19645
-50.5938
-28.8902
8.86474
-2.89726
-73.491
16.8519
8.39458
10.3359
-21.3053
14.9194
-38.5586
15.8588
10.857
-12.302
15.3319
9.54543
-10.8888
0.941871
13.3276
-12.096
-7.45948
-7.64258
16.8227
-22.563
4.45004
8.10497
10.6486
-24.5236
-0.79735
12.1215
-3.37333
9.13707
-14.2763
8.48384
5.26504
4.56445
0.726632
14.7728
8.58163
-27.1191
7.60369
9.57504
12.225
0.69214
-2.14506
-17.9558
-11.3018
9.21263
-8.63729
-26.8924
-1.93265
-3.13426
-24.0107
8.47871
-14.8635
11.463
3.07253
1.40357
3.65527
-7.58917
2.03698
-7.47391
13.5513
2.96312
13.3667
5.31838
6.13635
5.79961
7.6095
7.39198
8.28886
-4.87746
10.4246
9.96661
10.7995
6.06664
9.21455
-4.64818
3.10387
10.4412
11.4768
0.194155
12.2641
9.17559
0.77068
9.43103
21.1384
-1.35887
-17.01
-3.2962
17.8043
4.15805
9.13063
7.54907
3.93888
-7.15721
16.2763
-1.32594
-1.47908
6.02761
33.1233
3.2197
10.5866
3.99049
11.3034
-44.8361
10.9232
-40.1281
-40.611
-42.528
-41.1455
17.2948
-25.7813
-28.3639
5.60157
5.04069
7.52334
7.54663
8.02455
8.29067
-0.778379
11.3908
26.497
-4.07987
0.423573
10.6458
-15.6645
9.49007
10.8515
3.64576
10.3669
10.7451
12.072
3.38494
2.8551
9.77602
4.7059
-4.66993
-2.5004
-10.894
14.2014
15.18
-6.83934
-10.8166
16.3999
18.1827
-11.6856
-18.4263
13.7759
-10.4174
-16.2587
2.27722
11.023
11.348
2.66017
4.00216
8.50955
11.3926
10.7954
11.2364
9.67243
9.53431
-8.21445
-16.9819
11.7573
9.59598
9.63698
8.46657
9.32804
-50.2761
9.95578
9.35511
-13.0795
10.0829
0.517767
10.16
3.44212
5.3103
-20.2308
6.13053
8.35094
7.57233
-11.3277
4.17363
13.4323
1.54059
14.2802
0.865979
-18.4109
-1.82282
-1.63806
2.24419
-36.524
-33.7382
4.16785
3.78144
-23.7476
-2.9462
-7.95499
5.62276
8.1013
29.7246
-6.96545
7.06227
-2.81561
10.5522
-13.6334
-28.0263
-30.4273
-14.5976
-43.7817
-42.9305
29.2152
43.563
2.63669
-1.77919
-5.87376
12.8667
12.8055
8.45626
16.4148
-39.6744
36.4801
25.0512
-3.16314
3.25075
9.69628
1.54722
-7.10226
-1.23433
-1.02655
27.1498
1.65054
3.15053
-0.803364
-5.73377
32.6152
33.3804
-2.82423
-1.77778
-21.784
-1.90387
8.04462
-4.05192
-0.242074
-1.69557
1.68823
21.0572
20.4878
-4.91618
9.08031
-14.5696
39.5439
-16.8612
-9.16598
14.9076
-10.9328
-0.152578
0.302804
10.5304
7.62746
-22.2048
4.68901
42.6334
-49.5465
11.889
-4.18346
-0.588929
-6.65086
10.4463
-1.14849
19.6469
3.20911
-0.723562
7.48888
5.92946
-5.06352
3.86804
15.7064
36.1712
7.74393
3.84518
-3.84261
-12.7895
-3.11918
-3.73969
18.9443
2.28347
-1.61966
1.74415
3.22328
-1.95671
9.55882
-4.78433
-51.1417
12.0583
-4.9097
-3.58132
-6.92123
-0.476161
-22.4492
27.8198
-10.47
9.49951
10.1061
-1.1295
8.07329
14.5791
-4.67608
2.31162
-2.70838
-5.90738
5.959
4.11063
11.0376
8.14899
-2.14865
-8.36307
14.3468
-19.1948
-1.65634
11.9963
-8.72511
-3.4981
-5.48715
10.0123
15.1252
18.2129
-1.36058
-9.61286
-2.37828
0.423572
2.6551
2.70534
-49.1482
12.243
36.9895
3.21388
10.7025
10.2378
12.1754
10.0229
-4.14188
-21.5988
-4.67991
-4.10336
-3.29589
8.16596
11.6379
10.0346
3.8818
7.39099
9.12855
4.88175
-4.89526
-2.97825
-3.0284
-1.39331
-1.9931
-1.33647
2.55399
-4.14944
2.02662
-11.1929
1.34776
-8.07772
7.16578
27.0723
-2.08677
-1.2945
-34.7387
-5.76793
-30.675
-6.18403
-27.5393
-2.79636
-50.4685
-38.9802
11.5259
7.52059
12.7611
-1.48039
13.0179
-4.1045
23.5836
12.9344
-3.73959
-14.0211
-3.01706
-5.40289
11.3594
-12.6599
-10.573
-9.01238
7.91914
25.4123
6.8388
-5.83203
-5.73466
3.75136
-6.44461
8.78759
13.6103
4.88691
-3.97528
-5.31526
18.0814
-0.438937
10.3742
4.69691
-5.32312
-3.50478
10.9903
5.33544
7.79165
20.9574
3.7251
0.0501781
9.11917
9.66859
3.84497
2.12238
9.24647
0.374074
-4.45164
-7.17526
15.583
5.13924
-2.64295
11.6221
6.6508
-2.2096
6.20122
-4.38455
-3.31473
10.957
20.4665
0.0985703
-18.7301
-9.28644
23.1733
3.71333
-4.70984
8.37572
-2.77635
-11.967
14.273
16.9833
3.65104
17.7043
-0.869108
5.96823
17.5273
3.28855
5.83973
18.8193
-22.2342
46.0737
-9.76067
-8.60176
-17.6635
-16.0148
-23.736
-23.8965
-25.4343
9.74518
9.45821
-21.3371
9.99209
7.64607
6.84247
5.85906
-32.8175
-11.7093
-36.1309
-47.6888
-20.6353
6.28317
4.59427
5.52411
6.35964
-21.1983
-1.94548
-8.02519
-9.50106
12.3434
5.8696
5.65808
6.87107
7.13085
-19.5281
5.3809
-21.7994
-31.0832
14.9591
14.2865
9.59558
-4.54512
-4.56645
-7.13816
2.88838
1.61674
-1.66024
-1.42578
9.25488
-5.00641
15.4837
7.16432
-22.5423
10.2224
-16.4597
-24.8072
-3.07847
-11.3914
-15.3015
16.435
2.19548
-2.08198
-2.81588
-1.93609
-2.95708
14.9944
16.75
10.7506
-3.05273
-2.77682
21.0637
15.0877
10.452
6.81969
-2.39357
-1.25431
8.80677
5.95918
-0.466045
4.99074
1.41017
-12.9887
8.97887
2.04137
-5.19871
22.8485
-0.133772
-24.8056
1.40477
-28.6129
-26.6939
-34.1762
-3.00696
31.6563
15.3306
5.47015
12.0872
-4.18709
-9.29362
-3.06057
7.35084
-4.59845
-3.71129
8.25013
-2.51557
-2.80396
-1.88246
-4.4426
-7.50775
-6.13192
2.9128
3.15795
2.10935
3.62869
25.0985
-20.8414
-46.8743
-30.9592
20.0958
-21.0183
-2.39651
-2.34421
0.430069
14.2349
-2.19996
-2.14642
-1.88232
-2.27868
19.6781
28.266
27.999
8.00132
31.8789
-3.64642
-4.61909
8.16593
-5.37881
5.02618
3.99524
4.9121
4.55158
9.18115
9.70809
9.13872
10.1326
6.38763
7.07729
8.08524
5.98293
-2.54691
-0.980422
4.91974
5.76583
9.76783
16.311
16.0647
10.5464
-11.4589
-17.3927
9.62948
5.43387
11.3609
11.2646
11.8825
11.8617
24.0854
21.1686
11.1936
11.1492
-3.94319
6.08513
-34.9018
-4.49859
-5.5131
2.94698
-10.8351
-39.4147
-43.992
-0.246923
-0.132532
0.86658
0.890074
2.10904
25.9236
32.1318
29.4054
4.48516
32.6551
0.86859
-1.38063
-4.08509
-1.39658
-5.82721
-5.07554
3.79625
7.94583
7.75782
7.39773
8.18279
6.68689
6.82132
10.1658
2.86811
11.5165
12.7878
15.911
-8.80049
-6.71654
0.979456
-0.332445
11.784
0.71727
12.4538
11.543
12.0351
-21.8981
12.2649
12.7926
12.8671
-4.03266
15.142
4.0139
13.7861
12.3534
9.7009
-3.15721
12.2148
6.36645
12.5866
-11.1424
5.72252
14.2164
12.0573
10.2604
-6.15552
-2.4955
-0.256243
7.59732
-45.3239
3.26843
9.45683
8.04429
9.08052
4.39793
9.20698
13.0946
2.2668
-4.08086
4.47812
7.87113
13.8064
3.38718
0.818874
-2.52286
7.01105
7.72146
6.21812
6.78484
4.92043
4.71978
6.51345
5.81959
9.7486
10.409
1.49507
-3.47775
-6.83411
-4.04526
0.418176
16.2149
8.75382
0.631026
9.19066
-3.66486
8.73586
-1.21775
8.58532
14.9878
17.4637
11.1042
-4.01143
-13.126
-50.7629
-22.5558
31.4391
-39.9667
17.4715
19.3497
-3.1292
12.1098
2.37454
11.0898
7.99783
-6.0379
-1.95088
-4.83921
12.5596
5.74171
7.86862
11.1784
6.47382
1.62653
-1.85012
-11.6018
-2.23493
-1.96231
-4.09721
-8.44053
-17.7355
-13.9552
6.05285
-15.9265
8.55758
1.41431
12.0187
-20.2391
6.34997
11.0518
3.15041
3.48878
4.59537
-16.2682
-0.874203
-1.89068
10.9095
-0.815019
-0.853361
10.4406
12.7646
10.5433
20.5599
-0.138449
-31.4833
7.76845
14.1921
1.22481
8.34016
8.42974
13.3769
14.9073
11.183
11.3279
8.86479
23.6386
13.9048
12.1045
6.38649
9.34771
-20.6115
4.31813
-4.16329
-16.6304
-11.423
15.2169
8.20399
-3.79151
6.90417
1.46084
-3.63403
-19.8299
-13.6519
7.86866
-26.6113
-12.4631
-44.9633
44.4287
-3.33082
-2.84193
6.16167
4.80517
0.755918
18.7918
-8.68803
-29.5099
-26.8725
-18.6208
-5.73541
-3.57214
19.6697
11.5044
8.2616
-18.6447
14.3613
31.5865
13.8195
13.9086
9.24364
10.5658
14.1392
1.16757
-3.68198
0.673529
6.23654
-36.7931
-7.42486
-5.08994
0.218929
2.10291
3.64355
1.91853
18.1879
7.33347
6.93557
8.71561
9.41439
4.73061
6.63109
6.96434
9.05463
-23.5112
-46.2476
11.5612
-2.11371
-2.09859
-1.2545
9.51744
1.95571
7.65328
10.1407
-25.2889
10.0225
-36.318
42.6187
1.24898
-17.808
-1.5474
-1.42877
-1.95395
-1.93739
-1.36419
-1.76961
-0.495484
12.388
-0.097314
-0.559223
-2.23943
-16.2808
12.0185
8.38709
-0.783174
-1.0514
-15.6458
8.87996
4.59006
11.8159
11.3452
11.9613
20.683
1.4537
11.9658
-0.530181
3.51042
9.57171
24.2681
-0.339684
9.85262
12.8075
9.12763
10.5221
11.9939
21.2186
12.1433
4.46371
-3.227
12.719
1.05041
12.2535
11.0823
-0.811673
30.1936
-47.4187
11.1017
9.65301
4.87549
2.26176
9.28216
10.9459
-4.3789
10.9024
-7.76265
4.27804
10.2332
10.6775
8.08961
-8.7165
-4.0544
13.4597
8.30201
11.884
3.34814
-3.39164
-1.64002
-6.61875
18.2319
-6.97156
-43.0743
-3.02033
3.77728
6.97259
9.57514
21.2502
10.0597
-29.3799
-6.23779
10.9085
32.976
11.2605
-6.77551
-3.00088
4.85378
-0.473422
-13.7572
4.26179
1.72925
3.1815
-48.9829
10.5026
-3.06232
33.9238
-47.6097
-5.93851
-18.7521
11.7109
-32.109
-44.6563
11.6055
9.97409
-0.0342383
0.562646
17.7696
7.43776
-5.14639
-20.7751
15.5753
10.158
5.04828
20.1646
-39.4223
-4.99911
6.13663
8.29541
-7.07677
-10.7828
-3.18747
-124.865
-14.5614
-52.7714
-39.2083
-2.96789
-12.1897
-13.7422
2.97722
3.55355
-17.0913
-1.27753
0.25427
-6.17243
-4.40056
-5.86496
-4.09498
1.72064
-5.4287
5.17136
7.17762
-2.45991
8.67693
-3.54863
-6.57933
-4.18738
6.12696
-4.44123
-4.20136
-9.50231
3.63428
3.48707
5.71288
-5.89951
-4.87159
-4.33854
-1.15725
-8.13408
7.24022
-5.7475
-3.5865
-0.0492973
2.16313
-6.37825
-4.3228
-12.8179
-15.8935
11.7894
11.9103
4.52246
3.83688
3.43886
1.86324
12.0365
11.2283
-1.66362
-1.10745
-1.76411
-6.04482
-4.05896
-4.37267
10.9149
-37.4759
12.1117
-6.53142
-8.08459
-7.34739
-6.02029
-5.7513
22.6625
3.24667
20.7507
-7.03011
10.2028
13.8596
-0.448344
1.07686
1.59603
-0.954662
-6.02195
-4.96837
17.1807
-0.563139
4.60361
1.16564
-100.975
-47.6087
11.0873
0.913828
0.0912806
10.3734
-3.11233
-6.38016
-33.2093
11.6573
40.8041
2.4662
10.6325
16.1453
10.8765
11.8411
14.1295
15.2606
-4.02754
-2.098
-4.09691
16.6456
11.4099
14.8968
12.9205
14.9941
10.7291
11.8033
9.29907
-17.4731
16.1097
21.2092
-1.96695
-5.8897
-1.66902
2.76959
-53.0878
-3.46111
8.50969
3.27522
13.4006
10.658
11.9562
25.5303
4.26294
-14.054
-3.30977
24.4748
-3.70479
21.3458
-0.0836664
30.1823
11.5931
26.8932
15.0407
7.87365
10.0011
10.5181
6.48211
13.2141
12.513
7.28087
4.21418
-5.27474
4.85126
10.8367
14.2246
13.4911
8.99352
4.44641
0.466434
2.59544
3.86737
24.003
44.8638
22.3637
20.6279
-12.2878
-12.076
-14.0045
-14.2977
-8.1829
-8.21054
2.26022
16.5826
-8.70865
9.10803
7.34929
11.2496
23.7187
12.3118
28.9027
-15.3028
-45.083
-3.86911
-30.6073
-14.0907
-27.8963
-2.73992
7.16135
-1.98203
39.18
13.4886
12.9761
21.5637
-2.31125
18.4138
-26.1349
7.0583
13.4781
7.11977
6.17398
3.02375
20.4684
-0.390402
1.83093
-1.98122
-13.1687
-6.67149
-7.71541
-1.94021
-2.3977
4.5913
4.12744
0.977332
0.673416
-1.06041
-7.50185
-6.66965
-1.47891
-1.39827
9.58829
12.2419
12.801
14.5426
9.81178
10.3971
18.4149
19.3392
0.685461
0.912408
5.81573
8.22237
7.47435
6.79788
-1.98237
-2.01595
7.74642
11.9575
8.4071
6.96271
12.5858
12.771
13.7818
14.6331
11.9602
13.1019
13.4426
13.7793
8.30983
10.7832
11.2364
10.6837
17.6957
14.1814
14.543
15.3386
13.5057
13.9598
16.814
10.4419
-19.795
-22.9535
-5.31017
-11.5453
-2.5392
-0.531083
-18.4289
-2.10076
-6.08706
-0.199848
-24.0755
-50.8888
10.0034
10.607
7.62386
5.25589
8.46087
7.51449
12.5199
6.90861
6.53711
1.71213
1.06506
1.68062
1.47459
0.582038
1.79363
-0.146986
-1.10093
-1.23968
8.77401
5.38882
-5.37841
7.06873
2.73804
9.3401
7.69099
-4.01257
-2.05955
-4.67221
-6.15095
3.67005
25.1507
11.4653
11.1498
7.12851
1.39293
17.2835
3.75735
11.5002
9.84776
8.33878
7.47187
8.28526
8.44737
8.04401
7.9139
11.5438
11.4423
10.8372
13.3687
12.3273
11.7571
22.2656
15.6751
12.0736
27.2754
-5.81017
-8.42618
3.36256
8.85385
6.69896
-9.38724
12.6791
9.51551
3.91965
-1.07342
-5.71942
-2.83159
12.0268
10.4938
10.603
10.1784
9.27626
8.22098
11.3917
-3.02618
11.5207
1.76518
-0.913537
2.49876
2.43467
7.07156
5.97986
7.95347
1.80156
5.58651
9.89841
10.0568
11.6336
15.5896
8.24507
15.0284
10.6312
11.7969
-30.0303
-17.221
3.26066
3.58655
1.84857
2.40815
6.46573
-34.4434
3.91677
-28.5988
4.5414
33.7043
-33.0904
6.33326
16.6441
21.6439
6.37327
-41.1619
-9.77435
7.36465
38.2106
-12.5615
56.3733
54.9339
-62.3301
11.4886
37.1594
45.5401
32.0488
10.8345
40.0898
6.18701
-1.95322
4.16732
3.95137
4.19903
5.74332
1.68438
13.2911
18.1964
11.752
-1.80037
-1.11721
22.4931
-43.5704
19.8408
-2.23827
1.96249
1.54972
2.95561
14.0606
12.2921
8.8427
5.73901
4.70342
5.86505
9.17651
6.94779
5.39935
-50.6677
12.4551
17.4415
18.9006
18.7464
12.1255
6.11415
7.1406
18.8567
15.1253
8.80877
4.63411
12.1727
9.51268
6.43507
7.38536
13.6603
11.6989
2.48824
-1.69814
-1.54597
-0.365508
8.61333
11.2555
15.4142
11.5509
-3.37633
3.39998
-3.24043
-5.83501
0.382351
4.6744
13.8761
8.94603
32.5661
1.68058
0.561455
-1.71896
-5.15126
-8.17092
-4.71435
-6.38124
-4.49943
-0.291604
-1.0806
-3.23807
-1.08594
-1.44097
2.83921
-5.17899
-3.14063
-95.5388
13.7291
10.1644
8.69813
13.5874
-2.97575
4.84981
23.4499
1.81855
3.70778
23.4749
5.26346
3.46044
14.1676
13.4653
8.78372
9.70916
-50.3482
-1.36468
-2.39598
-19.4693
-3.23181
-10.5806
1.87359
-10.226
-4.68914
-3.63148
-2.15462
-4.09717
-164.735
-1.96902
-1.21207
-1.11713
-0.907295
-1.27456
6.33594
7.65675
7.15054
-0.771957
-1.13233
-0.846898
11.682
11.1844
11.5805
-3.29575
1.27595
-3.3441
-4.86291
5.00076
6.19281
4.57807
8.25028
6.23897
7.51795
3.77903
7.26413
13.9999
10.147
10.7385
10.9458
11.7409
9.76147
-2.80854
-2.41399
10.5528
10.7121
3.98453
2.69538
8.47815
10.034
5.17979
12.3931
12.6043
-50.5446
10.214
-54.3434
-51.6304
8.98426
10.5345
10.6112
10.1343
10.2348
11.4257
-3.29329
-0.942804
-50.3796
3.23795
-27.7213
3.31019
11.4424
9.86866
26.004
18.4905
-1.08074
23.8505
-50.0195
33.3973
48.5656
-34.5346
0.232044
-3.35674
-2.71043
9.28947
4.31781
14.7825
7.97534
6.97558
-6.63195
-2.31432
-0.645532
-8.67257
-2.14534
-3.07069
-22.4469
7.99391
-2.19312
-3.36235
-12.5639
2.84176
14.584
20.0392
-0.364777
-0.313281
-0.409655
-1.80386
2.40965
-0.405223
-2.93753
1.0038
-8.15368
-0.91325
2.9627
-6.12436
-0.410262
-0.71311
-0.337314
-0.38443
3.29566
-48.7681
-33.0595
-7.04174
-8.37327
3.10407
-26.4432
-51.4287
1.74126
2.79095
3.33113
1.92653
-20.1978
10.2717
2.10479
-4.19488
2.59862
-7.25397
4.39508
3.06285
2.99234
-13.1573
-2.02694
-3.7223
-0.994124
0.15208
1.32095
-9.14392
8.13222
-0.15327
3.41449
8.11432
8.19135
-0.59158
5.42435
6.46062
-5.34852
8.12528
-14.0559
26.7694
-2.68572
2.84285
11.152
4.57131
3.46171
12.0416
5.73248
1.77081
9.95811
0.294071
17.6138
-36.4835
7.50887
9.56739
-31.5029
0.490956
-2.48457
2.27761
1.33576
2.14891
1.60262
-29.9757
8.59815
-0.586194
8.80022
8.79234
8.52846
-1.98466
-7.84859
5.62569
-4.16544
7.79348
-3.3269
-7.82195
-2.92995
-6.35611
-7.30364
-5.41139
-4.20138
18.9534
-3.32127
-8.18505
-4.53724
-13.6054
-6.42016
-22.8825
-4.39434
-3.37309
-3.75512
-12.5338
-6.45014
-4.00761
-4.87726
14.8654
-21.5097
-17.0767
-19.0701
-16.8098
-5.74314
-17.1044
-11.7366
-9.65005
11.9838
19.2629
25.2836
10.7343
10.821
8.19635
10.9736
10.4559
-2.34
7.36502
4.25671
-2.53526
4.1841
11.1851
9.13591
15.0445
-2.66127
-4.39517
-3.60537
-3.61196
-0.771286
6.72914
1.8417
12.0153
3.66237
3.23458
-12.4528
1.71951
-10.5287
0.723772
9.28171
8.0133
-10.535
-1.91953
1.9062
1.22559
4.44782
14.1844
0.391804
7.44135
-5.0243
13.5497
15.3815
14.2982
9.78252
-5.12935
-6.01234
-5.09557
0.352523
-6.31721
5.38356
17.7384
8.64764
0.596654
3.89601
-1.50974
12.9438
7.09206
1.08436
8.74713
5.33926
7.1866
2.8605
14.6386
11.28
0.437592
4.91574
2.25159
12.3817
0.0563203
6.49475
-9.9694
-6.17961
-0.883408
4.43709
2.86209
7.85822
10.6633
11.5495
13.107
-30.4597
16.6955
12.1127
-40.8562
10.016
11.2054
34.2344
36.6382
24.8416
12.5245
12.5045
9.67755
8.43427
12.4749
15.1816
6.87189
5.6179
11.0043
23.4729
17.7328
-7.68496
-0.751739
-1.47256
7.64508
-2.56862
-3.54737
4.8224
13.0496
8.97952
14.9487
-34.526
-25.2472
-24.1829
-20.4012
-29.4532
20.4252
15.1957
-33.4913
0.124462
-0.636479
0.107081
11.8665
-1.84101
25.3707
25.4936
17.1483
-1.05185
1.83673
4.03823
-4.04195
-9.17141
-12.7278
-8.96793
-16.5674
-2.78159
-26.9062
-9.68214
7.76451
11.5759
13.8078
-26.0995
-2.79336
-6.36471
-10.7537
5.57602
2.47803
0.616179
6.18198
6.75131
17.1867
15.3734
12.1599
13.465
10.5518
9.20346
12.4805
12.3112
12.4669
8.45579
7.7798
8.37674
4.35353
-0.340521
7.37391
7.72956
-0.413381
-0.196152
0.835008
-2.0951
-0.624437
-2.51635
1.77204
9.53664
9.27975
9.17621
0.388929
28.01
9.28902
10.9121
9.1236
10.653
6.13332
-2.47901
7.75336
10.003
13.0973
10.394
9.55429
9.61115
1.9
-5.67376
12.3188
-3.37432
-9.68666
-1.31952
32.1928
-20.2162
1.1775
31.6485
-49.0485
-42.3908
4.79977
4.5066
2.95909
-53.013
2.73548
4.59532
0.567151
1.76788
2.14593
23.8124
21.5192
14.2732
12.0172
13.8907
16.067
13.8876
17.6645
12.9485
19.5574
10.0405
-8.37409
-4.95691
10.5164
17.3548
16.4788
14.5551
21.2003
-30.5131
-139.803
24.724
-8.1439
-142.837
21.6183
21.646
24.8068
14.6372
31.9729
-51.5697
0.557936
-0.542255
-2.8112
-1.46978
-1.61863
-0.0772746
0.712134
1.28281
-0.411353
-2.73556
-2.17267
2.86502
2.33069
10.7254
17.8104
17.9521
8.35664
6.45636
7.36979
7.19262
11.4042
5.57488
4.76509
8.0824
4.1713
4.86176
6.2286
7.35715
13.4172
10.7995
11.9023
10.2494
9.16733
10.984
10.8267
-2.06164
12.1717
11.3355
0.353608
1.17008
12.8833
11.1879
12.8283
11.6823
13.8279
9.14236
6.78561
8.68619
8.71283
-2.48021
-2.05504
-5.27699
-2.91882
-3.06442
-0.901988
-0.357783
2.22366
-3.29446
-4.84428
0.987854
0.669222
4.44113
7.98217
-4.68353
-5.26734
7.97841
1.10353
-26.3209
21.7947
7.91792
12.3455
12.4554
10.3893
-2.85467
-3.17777
12.7018
-3.80302
2.49205
5.3501
-5.03868
5.14886
-3.22366
8.81135
7.39536
10.3623
9.78493
5.24092
10.2795
10.53
6.52836
8.50242
2.03359
5.69977
13.1699
11.1622
9.39271
7.51958
-6.01731
6.47274
5.15895
2.67553
6.55726
5.69583
1.26823
0.710953
1.02941
0.177592
1.41789
0.34526
1.79341
1.53246
0.0379169
-4.63552
-4.64362
0.239791
2.1599
1.90234
-2.34108
0.413088
8.90285
0.717332
-12.4953
-3.18866
-7.87309
-1.30278
-5.73086
-14.4634
-4.42298
16.4763
8.90226
11.2909
9.00972
9.82887
2.69661
10.7996
13.2758
10.726
9.87606
14.2904
20.5144
11.1507
11.4813
13.1552
10.6312
22.5992
4.6356
1.89271
5.90021
11.9292
11.8515
14.8734
-3.37197
-5.69859
-4.91393
-3.87577
-2.68584
0.674204
-1.97476
-1.70693
22.9551
11.5038
-6.97499
-51.304
11.6172
10.4505
8.92397
14.3205
10.3459
7.90613
-8.47645
13.8767
27.8778
13.7658
29.5427
12.0542
3.02197
45.1302
40.2556
15.4829
43.6917
11.6304
11.8206
8.05154
-64.0397
-28.308
-38.1154
12.7996
14.8808
-41.556
-50.4187
15.7794
14.6102
22.1321
-15.052
-4.88437
11.5149
11.8462
-7.69243
-3.39528
11.9613
4.41798
35.9623
-4.62643
-6.94365
13.0003
8.91689
8.25832
9.01339
9.82335
12.3443
5.27424
-0.0259828
7.49016
9.00114
8.35492
0.13632
0.527039
5.12559
2.06604
9.11676
5.48415
-3.18998
-1.1678
20.0877
9.60444
15.1504
-3.73732
-1.47858
-3.17559
-3.75479
-5.4154
-54.2798
3.77882
20.6894
-4.4035
-0.0602481
2.58173
1.53685
4.24598
5.28241
-6.65761
0.669752
-10.2119
4.6347
1.07747
6.86583
-0.959379
3.56936
6.02851
0.553151
1.72469
-2.49991
1.33161
5.471
-5.33555
-19.639
-5.42654
-6.12291
-2.65634
4.81521
-20.7844
2.61495
4.76838
14.8916
6.14095
13.3657
-9.19921
2.41432
5.61976
-2.53078
4.42685
-7.42995
0.815076
20.1059
14.8938
-5.37802
7.27348
-41.523
-4.31001
-13.03
-3.95793
-5.76938
-3.5178
-1.09873
-26.7545
-15.607
-6.62042
-7.07555
-2.25854
-9.30889
-3.5745
-3.97329
-4.48518
-4.23533
-9.78939
-2.98033
-3.38455
-24.3874
-5.0641
-7.7909
-7.52227
-1.94607
-2.52175
-2.14042
-1.19164
-5.11656
-3.97071
-4.36617
-4.29803
-4.24266
-5.63417
-6.42496
-4.84274
-2.43035
-4.5235
-4.00871
-2.97289
53.8988
-5.72371
-4.51876
-3.80092
-3.88008
-4.33312
51.7078
-3.16787
47.6708
-3.26433
-4.03574
-2.35462
-1.99834
-2.2105
34.5617
18.2306
-2.3005
-5.61409
-14.5392
-4.54962
11.2585
8.34732
2.33163
-2.44735
6.42974
2.39975
15.5235
5.9339
5.06959
10.3517
-1.32428
-2.50035
-1.10368
-3.11982
-3.276
-3.49902
-3.97728
5.83752
-2.41453
-3.09003
6.96284
16.1635
11.7811
14.0653
14.3569
17.1313
25.5716
-9.95947
-18.7524
-11.8287
-10.9035
-17.3318
10.1537
11.483
-15.0851
9.71484
11.6427
-10.654
4.81444
-36.5079
4.68232
4.1559
-1.96403
-1.49469
-31.5359
21.0147
-26.1617
-19.3488
2.40631
-23.3127
3.06675
21.0339
36.5609
8.62925
0.222487
6.83722
6.20501
1.33597
9.09376
8.69613
4.98512
12.7921
2.54067
11.9684
13.0199
0.501557
10.6352
2.89205
6.8047
-36.802
-2.04842
1.60721
7.18649
2.20461
4.17386
3.21982
8.20504
0.736019
1.85604
-2.8512
33.6505
23.6821
15.3993
15.2933
42.9116
-24.8461
10.6163
-8.06157
-8.03398
2.01225
-9.83426
-1.09529
1.12376
7.92202
6.57155
-0.986987
2.76089
23.5035
0.218864
2.58654
2.87388
10.1455
7.67901
16.5881
11.1099
9.04962
31.3781
12.7156
13.8836
10.4312
13.9566
10.1582
9.58663
39.5244
22.697
12.9252
-8.14506
14.9294
29.2138
-2.09479
17.8017
9.8239
19.1572
30.1879
-8.37554
-2.73895
-4.24391
-7.25682
38.5295
-152.729
21.9096
7.83281
-6.34282
45.2406
11.5748
6.01754
11.4058
12.2911
11.4887
32.58
13.6427
4.13663
5.02326
9.3988
10.1279
8.08886
-3.07371
0.245909
-2.09145
1.29026
-13.9667
1.16443
-37.8854
26.2014
-41.0831
21.2881
-0.0113292
-3.75301
-14.9364
-10.4248
-62.3717
-8.84508
-11.7647
-17.6585
-39.1326
31.0634
-36.1782
-34.2222
-2.37224
27.8851
-2.93613
-22.5971
19.9887
-3.98424
-3.92876
1.51704
-2.18992
20.5859
-3.90306
-18.2888
-1.03781
-7.00133
-5.42654
-29.0294
22.9353
-25.7388
-18.5202
17.704
-39.7609
-12.1792
11.4766
-4.683
22.027
11.1154
9.20018
13.5085
13.2097
24.5071
23.7771
12.2156
29.508
26.2731
33.2198
8.33113
-12.4211
14.9765
22.9654
19.5883
23.2194
8.19259
8.66081
-25.5163
-40.5139
26.9361
25.896
19.0335
2.28637
3.60463
23.6958
2.96236
4.85431
4.79259
1.31668
-1.40851
11.1744
6.77485
18.8968
8.78175
9.97807
9.15054
6.84151
-11.0316
-13.2822
12.9071
13.1735
-5.05657
-2.98909
-1.29629
-1.90697
2.13972
-1.64843
-1.83503
7.56948
0.583285
3.77879
4.81456
2.38099
11.5856
-4.98927
-18.1243
9.44095
11.5917
11.411
11.1577
-0.652261
3.43435
6.48709
-1.9862
0.00297273
3.68666
-1.33078
9.29519
10.2009
9.95341
8.51094
8.96243
8.25056
9.72955
2.35766
2.24991
10.201
8.14547
-2.65216
3.406
1.17391
7.84517
1.37004
4.54562
7.24345
7.74416
7.90413
8.37912
7.1962
7.55285
4.89248
10.7495
8.0352
10.1105
13.5725
11.1564
10.2075
12.3836
12.3808
5.7986
8.67651
9.14232
7.87994
10.0903
5.6812
0.465934
6.94084
1.92027
5.15275
-1.74546
-2.30129
-2.56751
1.28018
-2.36233
1.54523
15.3364
0.309673
22.0947
46.0151
32.3225
39.2776
-0.480974
4.58925
3.14876
-0.666683
6.42393
0.519541
2.47284
2.21217
13.713
14.299
-2.17175
-0.498334
19.5014
1.60324
4.97474
7.19627
11.8676
3.89307
-2.74281
3.2517
3.48743
5.02836
3.3333
9.80497
7.84934
8.78067
12.9288
-1.24896
0.526615
-1.88531
3.71081
6.88426
-10.499
-19.5763
-20.2007
-40.1849
6.36975
31.3822
28.8317
-41.1435
11.2076
3.97181
23.551
-69.7417
20.3521
19.0644
24.6888
-10.9249
16.1888
11.5943
11.1538
-51.9812
5.67845
4.91161
-50.7436
4.80194
-48.3924
10.1127
9.64919
12.5251
11.2252
13.061
10.6737
10.7073
11.8944
9.42851
9.09732
11.9324
9.55373
8.87795
9.91522
10.3173
10.2449
6.97447
8.13984
5.40525
12.2266
3.80661
6.49955
5.85075
4.22962
-1.18767
0.163657
-2.39573
-0.941285
9.46707
11.3212
8.12767
4.78498
10.801
15.0415
11.3055
6.73458
8.99359
-3.35532
-1.93815
5.76308
4.89838
6.3112
7.99878
7.07972
12.9359
-1.42111
-4.49399
12.4645
10.9411
11.0586
11.3861
10.2441
11.9261
9.97599
11.4828
16.1066
11.9487
21.5194
19.3524
-2.94785
0.509296
0.277492
-2.82677
1.27708
9.63691
7.74319
8.94858
12.1408
10.747
-0.798675
-41.9181
4.81301
6.59991
-21.0996
9.21124
-6.02779
9.05628
6.10026
6.23543
7.06794
8.98719
15.4499
8.98223
7.9626
15.6504
5.90991
8.68517
11.4462
16.9798
12.2908
12.1821
-8.74787
-8.4956
8.12742
-22.3436
-15.7434
-24.0293
-4.63046
11.2601
6.73217
-37.0248
-1.75522
-6.90252
-1.19885
3.26048
4.82269
-13.9714
13.4188
24.5723
1.26108
8.34315
1.14361
13.8407
10.9519
9.19705
11.4678
12.0906
7.28346
-43.4568
0.741599
49.777
20.9847
14.9684
29.7564
18.8662
17.4579
22.3382
26.9856
20.5129
12.8424
-41.873
-2.13991
0.222796
-4.66431
3.47928
-4.50959
-2.48628
-52.2006
-52.0052
-50.843
35.5031
-22.0639
-50.6659
-19.156
-6.78499
-2.21719
-38.9616
0.179041
2.49625
2.60515
-0.124473
1.27593
2.53926
2.05426
-0.724254
0.533636
0.694972
14.2607
-4.73519
-4.55459
-1.0413
1.76493
9.12469
0.346231
11.9365
-7.08904
-0.806193
-21.7084
-9.70114
-12.6745
-1.07508
-2.93604
-4.06533
-0.818017
12.5461
-1.8757
-0.00648997
9.93541
11.9391
8.33723
5.89399
0.790096
-1.68897
-0.417507
26.0373
11.5558
8.81985
14.7896
12.1098
5.18588
15.0874
10.8844
9.61208
6.83514
-53.8042
-7.66313
7.2588
10.6567
11.073
9.92917
9.25107
6.90944
6.32773
18.5247
13.6654
10.4374
-10.6394
6.28436
13.7871
3.27712
20.6687
-14.6141
-0.937672
-7.85846
10.8277
5.11101
9.21013
-5.97379
-9.26448
-2.66356
-4.94257
-2.89145
-24.2117
-6.29209
-3.7146
-18.9655
-3.12726
-109.201
-48.2923
-30.9014
12.4278
-1.21507
-0.484185
-1.99257
-5.43039
-1.60624
-6.68532
0.265633
-5.94191
-11.0264
-12.3854
-3.99288
-16.2099
-1.90872
-6.66612
-2.04855
-9.2229
-13.3174
-46.1134
9.16422
4.30003
14.0552
26.1861
-23.5988
3.658
-6.08978
-10.3428
-3.17974
-1.26133
-4.48406
-20.4845
2.02813
-5.42157
-5.32468
-3.37169
3.87508
17.4936
0.385592
10.7711
11.2187
-16.2591
-5.5217
-17.1739
-34.6229
-15.0527
-5.92432
-8.67057
11.7206
-3.70116
-4.06177
-2.88726
-8.96535
11.9032
-4.8774
-1.99758
14.3286
8.81861
13.5882
-3.21247
-4.20698
-3.41776
15.3087
13.0368
5.77342
10.9538
7.86958
11.2436
13.004
17.9971
9.72349
11.2377
10.0784
7.16414
6.01807
5.25547
9.24036
26.5315
10.5276
7.30919
8.71555
10.22
7.76462
10.5723
7.06289
5.49224
16.7196
10.5055
14.6892
2.47153
5.71606
2.67262
0.0309805
1.34887
9.77751
5.0025
-4.11538
11.4512
11.7824
21.2988
-1.11307
-0.823851
-12.1203
1.0515
14.1189
14.9377
5.67748
27.2267
44.886
13.4439
2.05888
-2.7167
2.16634
-1.39758
1.29571
11.4405
9.61665
19.986
-2.11045
-1.81875
16.0091
-1.66307
-8.35009
-45.7582
8.92523
4.86488
8.30841
8.15036
10.6028
11.813
9.24046
10.5352
9.72396
3.04103
3.08758
3.68905
7.21211
-1.82027
15.9852
-6.98854
-3.33788
0.126393
-0.981369
-1.67473
-1.70199
-3.00774
-13.2064
3.05255
-1.75094
-0.640102
2.82093
-3.29322
-1.22962
19.9295
10.6687
15.9717
-19.7658
-1.03837
-0.737658
-73.2623
13.8462
13.0148
16.2694
-7.67179
10.4364
19.2562
-13.9579
-13.7239
4.94039
1.29943
10.7661
-52.1901
10.2523
8.45659
10.5367
9.78965
12.0969
-18.7695
16.9941
9.40553
2.11973
4.35906
-47.1274
4.2351
15.6905
17.4567
5.09433
44.4307
44.5565
38.5607
10.7921
-2.97117
45.5434
-30.0466
-34.3154
-30.8723
-25.1306
-5.79917
-2.93261
-7.74006
-8.28441
-0.76463
0.45623
0.104636
0.567016
-37.599
-4.15046
-13.8127
-3.73514
-1.893
7.32521
14.6314
-3.69547
-4.75815
4.62043
-4.45849
4.59562
12.5051
12.6692
13.0312
13.7302
0.72528
2.75924
4.01615
14.6984
13.5186
8.62278
9.17927
13.1155
11.3211
-2.94656
-1.87641
10.0653
-1.88936
-1.45006
-16.7901
-20.384
-4.70924
-4.46567
-4.17719
-2.90439
0.0884884
-26.8285
-1.71686
-7.61383
-15.073
-25.2892
-41.0987
-47.2545
-41.3071
-10.6165
-1.89368
-10.7093
-3.08412
-4.68215
-3.12791
-18.905
27.2183
-3.36168
-4.82185
48.3663
-3.40465
10.0368
-3.64706
-3.63822
-4.61823
-5.58142
-6.96178
11.2862
10.02
8.3047
9.60108
3.00239
0.434969
-0.16939
2.07392
14.2503
14.3245
12.4033
14.0125
38.6265
10.4639
36.238
-5.92706
10.1254
-4.3789
-5.60269
-5.93698
13.6267
10.4868
9.1181
10.1624
9.92572
11.9299
12.3838
12.9724
10.9539
10.8948
10.8696
10.4039
10.6641
5.90053
8.48843
-1.24846
12.6726
9.68757
12.5042
9.64827
-0.26882
-0.72177
-1.32933
0.73513
-0.846222
6.54869
-1.77233
7.18448
8.88421
4.98723
3.8685
6.73292
4.87677
1.40817
6.0288
3.52872
2.45383
3.89167
8.56742
6.20302
-1.40556
11.229
11.4712
10.8426
10.8355
8.58462
12.7234
11.6395
11.2851
2.09926
0.34983
1.34889
-1.49663
0.497781
-3.76893
9.16521
-1.08191
-1.85178
-1.66376
-2.02097
-1.61238
-1.53026
-1.64741
5.1768
5.04378
3.74519
3.36248
3.14067
-99.3076
-0.898882
11.3147
-16.3453
36.4133
-0.945141
-0.588914
1.18819
-32.4537
1.89936
0.621275
10.3927
-9.66261
11.1349
10.4228
9.0534
8.90896
-6.38386
17.5327
12.618
10.6669
13.0033
11.4545
10.9783
7.44305
8.12809
7.64905
9.74568
7.19789
-0.519482
11.4241
0.692709
-14.3117
9.34848
8.9507
9.56647
9.64195
12.1848
7.59345
-0.119745
-0.473625
0.240523
-11.0612
-5.61652
-0.688771
-0.188862
-0.525655
-11.4496
12.7514
18.6862
10.0252
10.2351
9.9131
0.477048
5.63805
-4.60717
-11.3342
4.63525
4.75767
9.05928
9.68302
8.71439
-49.9092
7.25424
3.88588
8.87182
13.3997
9.77016
9.08447
9.81679
9.23026
9.24491
-55.71
0.382109
3.87201
9.79634
8.22911
9.02025
4.60774
-0.248106
0.24141
1.37185
-0.041056
2.47742
1.83944
-0.111584
3.27783
-0.302857
-6.82047
-2.72188
-5.23822
-1.25575
0.660576
-0.761654
2.38787
3.51729
-2.37191
-5.78647
-3.32957
-10.3945
-5.62209
-1.02839
7.31998
-6.30688
11.3268
10.6818
18.5875
11.9496
16.1794
10.3667
13.0067
17.8845
-3.51778
-0.155882
-6.90309
-5.99916
10.078
14.2365
20.7969
17.6377
18.308
33.4102
-9.53769
0.732495
-1.72736
-5.28878
-3.40092
-1.52318
14.2193
-2.02141
-4.70436
-1.82441
-4.81664
-5.77515
-0.904879
6.33921
5.28736
6.52552
6.99401
14.9105
12.0901
12.805
15.5697
13.8227
16.42
8.85508
-19.4192
-48.2211
9.0131
-51.5878
12.4817
15.0748
11.1526
10.9165
2.21257
14.9674
16.8211
10.421
7.41606
4.22085
8.84229
11.0649
9.797
20.8942
17.0978
18.1322
20.1258
7.20605
7.06873
13.3833
7.04615
10.6136
13.6502
14.1335
7.18141
20.9321
13.5235
15.1618
6.93945
17.2724
-43.4304
-7.8913
-3.70069
-5.08644
-52.2034
-9.43173
-10.4286
2.38562
-2.28758
8.05199
-6.49693
-16.8653
-11.7173
-0.847906
-2.74938
1.68055
1.05068
6.72361
-1.03766
-0.453804
1.73566
1.03595
-49.4882
-8.78548
-7.90402
3.73008
2.00093
-21.3093
-18.0608
5.12371
-5.95615
1.63659
1.10237
9.47543
6.34883
-15.9391
-13.9157
-1.98352
-6.94976
-8.20776
-1.3261
-14.8083
-5.90152