/*--------------------------------*- C++ -*----------------------------------*\
| =========                 |                                                 |
| \\      /  F ield         | OpenFOAM: The Open Source CFD Toolbox           |
|  \\    /   O peration     | Version:  2506                                  |
|   \\  /    A nd           | Website:  www.openfoam.com                      |
|    \\/     M anipulation  |                                                 |
\*---------------------------------------------------------------------------*/
FoamFile
{
    version     2.0;
    format      ascii;
    arch        "LSB;label=32;scalar=64";
    class       volScalarField;
    location    "0.0948794";
    object      omega;
}
// * * * * * * * * * * * * * * * * * * * * * * * * * * * * * * * * * * * * * //

dimensions      [0 0 -1 0 0 0 0];

internalField   nonuniform List<scalar> 
3926
(
88.0175
41.6268
90.6254
224.443
122.89
493.134
677.367
861.898
434.61
783.921
714.243
94.2653
41.5212
136.22
43.063
42.9958
82.6786
43.2788
124.598
69.2029
97.2981
163.105
141.236
123.196
55.9073
117.17
113.056
216.626
239.219
168.802
187.961
66.6152
160.351
108.982
73.7227
116.635
641.111
61.2012
42.9538
78.3285
198.571
944.596
63.9482
48.495
41.4858
843.709
61.8515
112.754
700.355
59.043
89.6692
938.616
354.248
711.93
45.1377
68.7248
1218
370.952
76.4371
319.055
48.0937
291.413
677.573
62.9747
650.645
512.954
624.963
324.716
489.278
588.326
384.838
41.6787
395.065
49.0308
82.3115
531.421
68.3575
273.158
76.1621
42.9213
125.946
64.2431
539.552
1099.63
91.5884
55.8888
52.9552
119.38
543.402
42.9733
43.3084
68.0859
107.683
250.694
59.1739
997.199
62.4639
74.0296
339.426
91.9313
210.255
58.6723
91.3754
61.2589
249.062
184.721
67.3582
53.3236
58.3576
50.5699
100.618
64.7006
51.0246
60.8794
44.5799
398.397
136.73
42.0834
568.741
597.152
62.5853
62.7662
43.7564
95.8604
54.6275
73.1685
328.343
52.7465
216.223
81.3237
63.5388
63.2883
58.7566
63.5506
792.003
742.119
651.358
529.342
666.077
104.336
83.5978
43.0242
78.9102
109.218
50.8439
203.108
73.6504
154.688
64.0692
71.5925
85.82
97.3789
71.2688
115.575
152.779
188.139
69.7361
213.161
142.348
181.88
104.86
56.2355
62.0991
269.306
415.643
59.0518
45.562
41.3155
60.0739
158.726
1101.09
81.5678
46.5798
42.3488
62.9981
94.9237
61.0904
402.743
163.131
66.6631
984.984
78.3195
524.01
98.9341
43.1895
79.8198
92.6954
47.932
109.501
89.3113
497.826
58.5987
233.367
51.8678
53.4455
42.5037
59.8563
47.5729
51.5932
734.943
69.2904
725.736
385.955
56.2975
52.0885
157.581
44.3093
746.958
69.524
49.9656
41.8706
49.1013
88.806
109.344
44.8908
157.231
47.1738
92.4988
84.1771
118.13
61.4196
101.87
77.3514
602.725
71.0909
508.004
810.665
78.0539
44.7986
69.1813
61.209
201.939
98.2492
48.3635
86.8987
84.0468
76.9071
144.613
789.488
84.2735
657.841
59.034
192.148
339.191
42.131
68.6527
709.766
70.672
42.8617
946.391
505.13
1032.48
1235.37
182.35
64.5243
539.446
981.074
79.3408
146.916
853.221
628.889
603.007
60.1583
323.728
419.428
72.0951
47.5562
91.4696
79.8333
593.781
463.789
782.536
59.073
93.2752
64.8055
125.613
46.3077
78.5926
42.6624
49.2293
387.562
715.652
92.8206
47.2696
246.455
447.798
279.793
410.935
624.564
194.614
144.061
42.2721
50.3946
354.413
40.8191
111.171
54.6
75.6956
69.2218
739.991
972.625
165.633
50.6508
100.968
52.1996
238.485
989.715
85.2159
50.1302
523.301
708.775
199.692
227.681
48.0967
112.402
88.8053
59.2573
71.0861
192.021
84.309
271.444
49.4242
830.702
156.158
178.312
63.5543
479.791
126.305
757.379
61.5393
106.999
45.7111
52.556
41.821
51.9084
41.4103
89.2069
601.256
446.671
523.454
215.745
607.381
86.4147
45.2176
58.2049
87.4639
391.595
234.691
396.301
481.68
501.293
523.504
509.784
582.984
440.675
774.435
458.999
491.183
83.5872
46.2798
54.484
41.9749
143.769
112.672
550.573
146.668
95.342
47.6806
167.067
82.8275
127.838
48.6131
455.079
46.223
236.818
62.4322
89.254
49.166
338.286
69.942
46.3455
113.311
90.5876
133.548
56.4981
48.1851
158.805
273.807
102.373
78.9903
578.69
49.6831
896.333
95.9911
63.5469
86.451
91.3907
41.5714
76.1215
60.4068
81.1327
81.1152
50.8232
50.0229
108.283
116.291
84.8165
47.2954
119.259
114.708
44.0071
684.727
202.369
127.612
56.6744
54.2744
67.0243
600.533
51.4441
46.8716
45.0662
93.0722
81.4218
118.378
58.8276
49.6249
64.3484
44.8302
77.5299
61.7666
80.8503
85.9308
190.52
68.9648
42.3191
43.8255
73.0076
54.4232
439.832
46.2321
54.9901
822.339
873.273
85.9167
321.966
745.418
187.127
539.615
48.5623
41.9336
894.232
74.2391
101.172
572.866
93.4014
236.877
209.743
90.5618
81.3873
144.49
109.826
155.195
104.409
52.0994
63.1685
44.2487
57.9289
795.386
78.3485
75.1062
140.076
65.4449
59.7028
58.5888
131.18
124.592
68.6559
126.459
48.8967
179.4
156.289
101.616
42.1387
53.6865
46.7056
69.166
390.136
146.906
106.74
951.953
68.733
151.719
764.631
744.478
103.998
206.276
307.44
85.7509
170.651
482.244
112.186
445.156
79.1247
107.482
167.036
603.278
49.9571
120.836
45.1165
402.621
126.142
902.441
757.776
91.7273
156.884
263.842
665.285
139.11
859.971
534.405
651.586
643.682
458.221
258.679
698.057
87.0321
102.06
320.896
373.844
103.996
47.6962
44.6311
59.0475
42.3244
448.288
505.789
717.37
877.016
139.608
90.6617
131.472
451.741
676.529
923.487
1111
527.601
421.545
83.2135
80.2214
93.8987
91.3577
121.454
257.728
44.6873
46.4005
262.004
109.024
207.777
265.823
80.8299
78.0279
106.729
69.0202
60.9555
62.2462
67.1418
577.322
474.015
351.097
1285.26
55.8591
52.3789
50.7023
50.9708
50.0242
305.368
114.093
84.5602
593.715
55.4661
409.086
70.244
107.491
51.2272
105.591
147.096
634.422
48.3638
46.8182
47.2424
256.941
82.2369
572.535
649.699
670.218
42.29
163.724
614.007
352.196
252.986
144.66
56.3418
63.9168
50.0325
41.8635
42.0075
58.9285
191.38
160.214
367.956
286.479
103.653
222.436
47.6666
42.2407
43.8409
42.9971
91.9048
44.0426
47.5374
49.0163
140.398
97.3971
63.2051
599.029
480.501
292.792
54.8875
63.7504
56.3199
46.2883
62.9222
49.7823
52.6018
200.836
52.4769
45.4583
231.58
165.919
498.766
122.602
91.1942
64.4483
86.0826
489.387
66.2021
72.2609
90.9656
89.0735
125.516
44.9213
82.037
79.7844
70.8145
47.0627
118.489
88.469
77.6897
81.4195
151.806
176.759
70.5576
54.4458
79.3846
96.6489
90.3593
74.6475
767.544
86.9727
54.3393
67.8578
40.7984
42.43
62.7264
66.3793
72.375
137.88
71.2533
52.7528
94.3072
45.9046
50.9
98.6136
377.447
116.862
51.7181
43.521
42.999
40.8949
41.3855
102.062
77.356
249.84
107.28
88.0524
43.1601
42.397
42.3453
170.995
60.6429
58.3102
58.8667
72.0587
47.5805
54.5153
47.6911
58.7464
79.6043
178.93
122.375
49.5927
50.9658
47.9321
50.9721
42.0226
50.21
44.5181
95.9585
125.437
116.755
52.0364
52.34
44.0489
47.8439
43.106
42.9358
41.8797
41.8882
41.9203
73.8095
52.8281
62.2364
69.3503
49.594
59.2366
81.806
60.731
87.893
47.4746
45.2276
48.6256
52.3353
305.479
51.8484
45.474
47.118
52.3295
50.2602
50.3326
41.4214
41.1437
41.0033
41.6598
41.664
68.6369
79.459
516.338
89.2759
516.134
63.0484
785.57
62.4176
77.4013
58.2424
243.032
71.0877
298.277
249.895
66.7034
817.822
43.2266
800.172
798.176
117.973
41.8702
251.706
265.511
42.6373
42.1741
78.0862
75.2484
387.122
80.9505
70.6896
42.7768
42.7723
44.3142
47.7512
111.75
55.0251
51.6879
46.9745
47.9256
196.19
74.5671
60.0212
75.3833
42.2836
49.469
83.764
244.577
76.3575
606.048
58.0439
79.9509
956.164
714.117
81.6375
73.7031
65.7014
49.2413
366.758
56.261
57.7742
91.3398
48.8507
42.7701
44.4555
53.9568
45.8096
307.763
166.901
752.639
99.6201
72.5215
55.5217
84.7087
1042.09
146.504
1103.87
42.0459
42.2383
605.276
592.545
262.584
78.9247
42.1198
69.5026
42.1483
777.894
49.7117
49.0295
531.653
55.7644
52.0688
97.6004
214.385
91.9406
79.7942
122.021
62.3221
811.472
85.0604
46.0101
780.927
243.566
48.5862
406.524
678.472
47.7373
763.379
43.0963
48.4714
55.3893
166.539
55.0244
56.5433
42.4931
951.342
622.307
805.152
105.569
510.975
102.561
44.9686
79.1301
55.5935
53.0991
293.663
141.649
351.212
46.8614
42.8961
124.727
73.2447
103.111
529.835
67.5664
76.3834
94.8555
91.3583
48.3625
62.2544
79.593
425.291
45.354
281.609
51.1654
45.1052
87.9662
199.029
680.12
143.556
74.8713
245.991
56.4158
70.5436
53.8207
928.181
148.355
71.0682
1152.83
41.2068
82.157
54.6049
74.6497
874.608
179.152
333.949
111.877
104.803
43.9886
85.4786
178.682
53.2213
48.0936
421.544
186.68
251.608
141.761
117.39
90.9752
1026.04
453.638
68.5879
64.8432
121.062
47.0585
1021.63
830.348
82.0468
40.7442
55.379
41.2937
42.2328
76.7421
55.4101
54.3966
139.855
731.666
331.266
153.206
47.1027
87.2703
630.4
281.82
698.958
296.27
65.6083
44.7065
129.52
222.283
605.506
79.1913
60.9417
101.816
80.3384
425.794
48.2583
602.638
699.261
123.712
107.207
45.067
87.7357
107.728
502.908
216.959
94.4582
66.8575
64.4687
50.0035
79.1216
90.1276
166.279
61.6726
48.8206
45.7226
92.4329
557.634
82.6034
595.418
868.516
475.88
267.166
127.008
58.9918
56.1398
131.93
141.834
119.433
57.6828
572.073
473.623
78.8861
69.5003
86.7861
77.0204
779.063
74.6499
60.6811
64.7401
129.328
79.9743
318.739
92.5941
249.307
45.7043
45.8217
68.0241
751.084
147.352
83.8902
760.694
831.524
171.618
65.3958
91.9541
75.1634
42.1779
41.9998
41.3259
85.7026
48.7514
54.256
229.698
56.2756
735.906
123.255
70.0367
49.0194
558.554
46.8777
54.5409
79.992
790.705
58.4477
87.6038
44.4769
857.636
52.9134
99.1771
67.2484
506.009
223.188
619.221
58.8586
240.598
420.998
165.285
56.7593
230.092
256.363
892.156
54.4356
47.8788
54.854
59.0534
54.2084
796.088
56.752
63.0914
392.027
188.226
882.37
111.022
43.5216
43.8894
278.085
127.326
83.1793
53.1991
42.2567
41.1324
43.4896
42.2083
42.0775
41.9775
43.7558
43.3228
52.8623
121.452
51.9905
52.2101
42.998
42.1382
41.2531
113.071
45.8807
43.9698
41.6562
41.2226
44.778
52.16
871.792
615.975
68.6919
597.981
52.243
46.358
43.7536
49.7332
50.418
47.0366
591.378
1062.73
959.094
65.1026
49.9274
262.997
368.813
85.7868
64.5806
145.902
97.3576
627.462
176.358
59.3277
81.2343
55.9074
420.071
235.403
159.236
502.246
87.8523
184.251
85.5412
56.3254
515.702
370.501
59.7164
1035.48
545.413
205.055
202.797
244.27
82.3263
625.491
94.0727
45.815
282.521
138.767
433.918
337.084
352.07
516.595
312.655
370.024
175.591
41.4975
858.028
88.4203
278.986
129.971
52.9516
42.9867
970.402
888.643
465.418
516.279
599.581
73.5668
316.212
989.574
128.823
795.098
854.122
226.386
139.902
100.038
44.452
51.1576
79.6952
54.7229
411.237
868.889
688.54
920.602
711.132
1012.94
423.621
874.044
69.2894
42.909
44.7545
45.6362
42.4917
66.2528
135.827
407.927
394.134
615.358
102.327
46.3335
596.031
1028.31
888.583
602.899
169.262
57.3805
910.8
1225.36
1106.14
56.8902
344.474
43.5268
475.315
297.773
405.52
372.226
80.7519
151.456
163.457
645.017
761.395
556.283
889.951
655.448
785.009
949.929
910.41
167.37
107.342
130.068
79.4841
67.5052
41.1168
78.4745
53.9233
62.6729
53.7893
42.6892
53.0122
43.7326
126.853
48.6529
47.7929
42.1414
48.5348
187.381
43.87
103.856
63.7617
70.951
56.9679
103.755
81.6931
155.462
66.3867
104.85
189.836
478.368
213.046
268.928
47.3774
53.1638
47.3062
61.7034
64.747
64.6318
50.4747
42.6764
82.2066
477.507
45.8187
173.213
55.7933
71.4927
95.5199
62.2194
796.674
63.7425
70.3587
76.1693
51.5345
53.5262
86.61
46.5038
256.009
159.079
44.1505
52.7278
76.4742
94.1886
882.135
180.254
44.5172
205.772
165.164
170.045
660.221
269.175
129.226
217.395
184.876
762.274
71.1186
55.3731
94.438
51.1495
139.095
49.4976
68.3379
43.5562
41.5805
41.3881
45.2036
89.6404
84.5356
45.0764
44.6012
50.8581
104.606
67.7569
102.119
42.8055
46.6599
123.991
109.005
1031.88
169.486
163.234
1034.46
669.811
438.155
301.286
92.7855
67.0685
47.7115
47.6691
81.6865
81.4143
540.82
76.7933
283.029
763.678
295.979
366.722
92.1596
43.3401
88.1909
49.8667
52.6899
67.9739
62.8545
60.4348
59.6436
53.2447
66.1646
57.8748
98.7523
400.256
1004.4
70.1229
68.8934
82.0648
41.6968
45.4439
43.3959
65.1578
73.7029
357.654
57.7417
50.113
156.893
75.081
41.3347
61.4712
41.6638
416.762
189.936
68.8198
58.9214
45.5309
45.1972
413.241
48.1848
116.879
480.85
56.1416
231.396
235.996
59.2979
302.763
50.4005
50.4598
803.46
63.0987
52.1984
53.9177
48.1804
60.0472
62.7766
46.4416
57.9073
41.3758
220.503
307.353
987.404
202.78
162.413
83.9297
965.891
43.0069
53.2608
89.3797
79.3858
50.1547
41.7424
45.7652
56.7663
51.3702
56.6889
434.572
89.169
217.585
98.9638
283.978
183.794
71.3366
222.154
439.982
256.49
88.5281
78.6974
954.805
974.979
307.191
99.649
89.45
469.705
103.323
207.15
149.291
79.142
75.5075
210.583
47.803
133.421
46.2789
350.297
126.811
109.556
338.074
689.689
67.9447
61.5026
88.3195
353.186
91.1658
53.6192
688.621
585.679
153.589
68.1079
49.1038
46.4542
114.261
43.5243
67.45
102.551
60.0953
381.712
634.33
66.8027
86.407
135.9
96.5423
644.736
45.5725
843.715
1003.62
44.0401
63.1164
45.3516
67.7085
403.555
56.172
410.768
57.9031
61.1802
609.134
59.0686
191.206
470.439
71.1488
86.6935
71.4856
109.32
51.2814
41.5714
123.216
52.5784
62.2316
121.061
50.3701
69.7715
210.786
238.9
807.309
623.508
141.129
440.921
49.8942
67.6096
78.3802
69.047
53.9629
54.583
72.6928
43.8683
62.0442
92.1395
80.486
100.571
80.1618
111.901
45.0978
44.5974
92.2962
46.6278
351.448
63.733
53.963
51.9289
69.4927
55.226
55.6774
162.094
193.643
171.403
189.356
220.182
369.752
67.771
62.8863
61.0575
54.1916
589.537
56.2615
55.8138
90.6758
42.8368
689.153
227.964
68.9859
83.0396
94.0677
415.35
52.776
43.1749
79.2926
65.1198
678.207
59.0562
65.7349
318.834
45.9302
157.219
44.9442
175.94
155.411
149.593
71.5471
441.638
79.1934
741.624
51.1687
695.585
315.821
157.142
48.1542
56.3545
103.934
119.55
346.37
691.544
376.624
52.2117
151.847
612.299
137.472
393.682
318.656
242.758
690.34
56.6675
43.7377
43.9163
43.625
537.306
1103.7
97.4364
264.109
1091.52
121.124
111.728
126.845
188.065
352.98
57.9579
129.262
79.4388
46.3497
45.6129
44.7888
54.9678
43.6234
42.3225
282.154
172.175
253.008
198.31
201.65
905.01
178.515
237.437
250.992
207.136
235.932
205.578
163.423
41.1782
80.866
407.596
59.6186
55.9401
301.291
648.568
285.243
949.11
60.7267
861.374
559.386
1188.61
727.837
80.261
1001.89
690.84
381.646
915.704
882.434
588.159
162.217
667.17
82.3505
408.668
46.4132
768.646
469.016
261.901
262.882
574.417
585.472
133.618
210.703
200.112
548.263
592.871
304.725
1025.75
114.368
242.261
419.666
595.774
579.665
60.4256
45.657
191.008
82.6972
152.204
247.237
105.615
688.295
705.094
461.455
262.152
366.186
344.397
42.7249
1012.74
59.7376
1149.93
1227.14
113.48
890.486
98.7893
870.037
390.693
185.54
75.6868
47.4191
44.7085
54.1279
73.3915
409.598
661.75
408.742
64.4098
757.012
808.608
1273.88
331.692
43.6988
1154.15
1544.08
618.266
990.609
42.3221
770.16
794.178
789.662
50.227
42.0266
310.193
53.0485
75.8715
442.892
350.428
58.6631
57.9944
100.403
73.9311
50.2099
79.8611
56.9048
60.9305
54.2671
55.4853
48.8875
225.713
905.278
87.3215
155.199
195.612
74.2825
63.353
45.1278
71.409
68.6216
73.2064
90.516
94.5344
74.1638
62.4145
80.8357
73.3136
44.8087
248.701
48.1741
42.2567
74.5722
991.149
51.269
74.0083
54.4603
57.907
471.182
380.66
201.561
685.186
42.9907
43.4509
170.962
286.676
1067.55
414.538
581.095
926.102
454.186
451.536
692.283
53.783
384.307
387.183
456.57
68.2364
695.97
47.2138
49.9965
98.3163
76.3637
71.7316
174.833
147.995
75.0148
64.4003
50.3584
126.052
200.56
805.738
270.824
290.882
169.903
217.08
457.737
385.904
192.584
126.143
1171.16
46.2237
196.315
467.47
44.0119
54.3957
88.6033
127.969
89.3109
64.1748
417.528
82.0158
59.401
665.399
87.1644
264.611
157.665
49.6755
57.8037
62.997
45.7616
164.061
833.169
46.761
61.0985
45.6364
47.9205
49.6534
45.9664
45.8511
41.49
86.5363
46.4114
51.9392
73.4109
49.151
66.8288
58.674
44.5778
1009.74
91.9145
60.0837
261.512
69.0871
55.8279
78.4431
195.72
70.0977
83.0087
57.3175
54.6624
96.803
63.7123
41.8966
50.0385
41.5167
43.2425
289.815
268.813
60.92
50.1889
708.941
58.1051
100.482
109.883
269.4
291.683
273.269
190.262
979.059
978.261
747.955
987.984
761.086
147.702
57.9273
62.7192
67.1169
444.724
96.622
432.417
49.5218
53.0343
71.5748
111.25
65.7938
54.0353
669.622
60.5907
87.2956
485.2
86.7004
81.8565
86.7151
70.3962
123.71
154.667
819.63
64.0518
155.579
88.5256
53.9148
49.851
41.5674
41.6452
101.485
76.8333
49.8859
41.9254
61.9863
43.3256
71.3245
51.4306
52.0023
140.202
66.3919
105.18
66.2688
48.62
827.525
224.293
189.18
167.72
1206.97
203.586
50.3946
69.6987
62.3727
841.453
73.0688
46.2668
67.6914
50.009
133.749
519.37
76.2571
68.2726
121.631
74.7391
67.4425
738.549
50.0467
92.0352
50.3533
53.6754
466.273
76.5408
885.312
237.495
45.5644
45.1639
44.7891
71.9827
117.361
287.025
739.335
586.793
107.046
87.875
170.03
727.312
171.692
151.163
598.319
221.539
1188.71
1001.97
98.8506
1271.33
1018.17
931.755
918.117
48.2992
129.634
66.3103
41.1534
42.3356
46.4077
169.416
52.6887
440.716
56.6347
785.82
241.997
41.7825
49.7291
50.5616
60.3493
60.2837
87.7443
369.055
771.158
221.976
778.262
1028.95
144.628
280.582
59.5349
60.1454
201.439
817.166
399.116
70.5141
44.2598
51.268
55.2946
43.189
53.8322
41.6796
53.0925
45.1682
61.5027
92.0064
59.5203
47.6588
50.0115
65.2916
158.042
247.405
823.401
909.845
65.112
255.313
72.18
732.067
115.115
449.357
84.6249
100.233
639.32
74.5558
74.8667
80.3923
108.322
83.4181
929.234
1392.44
64.6632
524.209
596.986
813.035
935.09
78.1687
118.616
160.167
49.9186
73.034
54.5119
60.7141
703.58
88.5146
131.593
62.9078
58.724
242.737
641.91
912.876
168.821
612.308
431.081
623.095
411.053
59.4055
51.517
379.966
56.3387
553.639
99.3551
296.716
54.902
57.4272
54.2784
118.703
138.238
82.1061
92.2485
44.5411
71.8206
75.1371
60.0559
227.112
301.87
160.937
861.974
171.759
831.636
429.062
613.296
129.579
78.1527
44.8195
61.5193
44.5052
41.1999
54.4864
64.3897
94.3529
59.8431
74.4104
58.2442
809.951
126.303
56.1254
725.171
278.874
151.247
275.914
72.2143
357.698
171.072
465.228
55.4029
197.414
472.078
465.437
168.859
940.369
111.776
292.988
53.0683
60.1048
65.7875
55.8056
51.4511
47.3949
144.11
50.6047
504.655
43.1535
216.098
143.383
866.116
478.757
73.9725
63.8838
305.752
45.0069
101.467
164.093
134.543
53.4802
511.635
65.3424
78.0675
62.3662
148.238
49.6147
87.1222
48.0726
124.82
157.91
93.8453
93.546
41.8287
41.1072
48.0095
44.6634
43.732
133.948
105.995
828.925
544.968
682.227
923.235
83.5521
95.0791
121.249
978.958
91.8211
498.92
859.696
136.626
47.023
117.549
246.929
467.72
43.1498
129.32
48.233
54.8414
52.3496
114.22
127.2
78.2762
141.629
66.6768
57.7874
64.3632
72.307
85.0633
104.778
589.606
305.808
179.095
352.241
236.049
183.019
208.875
160.939
153.018
49.2083
58.8228
47.957
55.7076
53.198
135.332
62.7032
54.281
45.9134
57.9552
59.6003
53.9996
43.1141
52.4415
78.2721
54.0189
728.781
73.8797
41.383
42.167
416.673
956.555
394.783
480.347
57.5168
88.9348
76.7369
78.6646
82.9685
84.6962
71.2761
933.278
509.417
201.493
85.2888
451.769
53.4387
715.981
60.549
849.97
136.583
284.439
480.844
987.225
1126.59
666.014
649.291
376.349
89.1548
83.8179
760.143
67.2751
69.9931
52.1975
479.517
56.4309
47.475
43.1993
47.0492
55.8854
219.205
861.42
123.121
67.4076
48.5199
41.4725
41.6879
181.128
146.218
82.5439
172.686
41.7803
42.0296
62.4371
83.3131
85.4464
652.131
156.52
453.468
462.563
854.817
385.344
841.548
817.478
776.127
635.831
712.65
896.083
812.244
341.625
735.272
256.281
334.716
54.0569
309.693
51.5007
100.478
68.5861
81.7929
80.2109
175.034
41.8486
155.271
222.512
146.819
186.659
170.244
807.817
94.07
563.042
534.635
77.5247
371.335
89.3612
778.391
771.78
46.1966
46.2433
49.8534
48.4345
45.4748
45.4782
43.2136
68.1152
126.87
693.627
977.605
136.701
361.453
94.7235
65.1584
64.1306
1006.2
283.802
69.6147
67.2516
58.3235
832.1
78.8984
60.7161
58.0489
584.962
366.564
336.033
68.9126
68.0269
82.6291
104.616
97.2172
838.68
97.554
233.189
849.802
273.941
76.9188
89.4527
609.423
77.8721
147.624
40.8034
41.1065
45.8562
96.106
70.0798
62.8761
61.2674
216.661
223.93
406.976
516.051
346.244
323.382
158.621
96.0104
98.1813
77.1242
56.7022
69.1126
52.2875
61.7173
60.9269
56.3179
89.5108
189.685
52.4475
55.1047
89.8953
45.7916
45.9318
47.8782
46.2928
45.566
41.7
42.62
81.7793
90.5309
155.07
53.9794
74.5017
94.8233
69.9076
77.0551
66.8008
70.3642
42.4403
143.123
79.8546
69.8708
256.515
51.1424
295.68
60.0519
47.019
48.4542
47.2479
65.3237
735.936
43.0282
662.325
118.712
81.7248
86.7901
50.6566
83.4398
148.732
41.0426
54.7323
86.7743
71.3931
70.4329
84.6212
69.2274
67.0094
132.169
538.62
71.1904
65.7093
72.9639
58.1898
146.938
231.674
192.683
100.572
157.447
73.2518
160.033
284.101
46.0145
43.1946
45.4047
54.6189
43.783
363.115
41.6376
51.1215
53.2903
1116.81
787.566
367.626
734.279
106.213
689.778
825.409
144.776
479.937
61.567
86.5419
106.505
137.308
195.642
93.8216
80.1417
44.0458
62.0704
86.2059
288.725
47.7496
57.8352
80.6397
85.8377
528.12
58.3966
55.1027
72.4699
49.8838
44.7537
93.9725
49.7598
44.9521
43.3446
41.5854
41.3534
41.4989
41.8909
47.5677
67.3863
43.2688
42.464
45.9717
41.8114
86.8914
48.5843
50.7055
62.63
49.9504
61.0218
74.6082
55.7788
219.734
61.2256
67.2941
42.8863
72.8482
52.8103
52.5002
49.2136
43.2032
45.9931
49.5375
158.817
47.3587
112.444
294.205
42.0499
103.721
78.6856
77.9233
47.7562
62.4783
64.179
138.128
84.048
101.14
88.5469
51.8684
41.844
49.6018
42.3322
49.7544
45.1624
41.1975
42.0802
45.2968
44.245
168.752
42.558
49.9116
155.548
110.103
132.742
309.285
75.9569
63.813
64.2935
44.4404
43.369
123.132
46.0008
46.0112
46.5613
54.8964
107.965
44.9234
96.6285
43.6123
45.0866
73.7743
181.777
85.7393
198.942
53.9453
56.0299
68.1134
92.1049
71.1934
45.2826
45.0978
43.0676
45.2035
46.989
146.032
61.9154
70.5112
59.7065
65.4735
111.451
42.0794
49.3491
48.7058
50.8854
54.4144
73.047
518.53
136.997
851.286
253.582
48.2096
120.286
80.3224
653.03
87.0725
42.7776
42.1474
46.9944
50.6351
52.8944
43.284
43.8467
41.8468
49.8399
526.326
276.922
42.6337
42.226
48.166
54.0145
421.853
202.98
195.938
63.2285
162.38
95.2024
128.262
119.791
203.018
523.909
61.8197
79.2063
71.5471
70.2999
345.236
399.13
75.7283
71.4475
602.458
52.6958
42.6573
100.013
42.2522
87.2974
64.7106
55.7406
55.1566
118.815
43.4605
92.5994
333.227
72.9632
42.0866
42.1295
52.3245
41.804
85.671
41.4416
41.3805
43.3545
212.007
50.2806
46.0892
71.9814
118.707
50.2711
50.2124
47.7043
145.321
81.2796
92.0043
73.6323
691.749
240.912
72.3366
444.004
159.195
577.636
43.2058
79.4682
127.396
68.2515
72.5579
137.643
66.7309
81.0736
895.571
210.22
41.0927
61.6969
90.2684
48.6638
49.9373
41.5185
95.847
118.781
60.7541
1046.96
76.2593
121.114
68.9906
118.365
138.023
80.8328
114.044
70.7567
68.2913
183.583
126.579
73.5434
96.7123
63.5275
182.05
69.3409
74.1689
123.151
305.14
50.9256
41.6494
40.9437
47.9871
50.6176
155.273
46.0476
56.6544
452.827
113.478
173.041
340.361
104.915
99.5947
65.405
52.929
52.5017
46.9569
59.3045
46.1477
41.1502
86.2136
76.2171
854.633
978.481
74.3432
62.237
58.9454
132.632
556.202
647.185
122.668
662.312
235.186
85.6731
205.602
203.259
110.804
890.103
112.214
91.4428
507.326
539.914
49.4943
69.4968
51.6503
42.123
82.8865
41.9055
41.1954
80.0112
64.7947
696.904
458.927
58.017
260.835
172.556
79.0696
102.848
448.762
538.012
94.2138
132.789
148.237
55.9679
43.837
44.3051
46.1366
93.4875
57.7665
57.8601
917.439
249.908
134.713
69.5469
77.0843
406.646
59.6078
70.4987
66.605
43.0941
54.9334
287.672
174.458
225.878
62.1333
57.8973
54.9875
64.4767
683.026
92.6988
85.6471
59.5589
89.4081
80.7641
177.419
224.607
85.6896
123.824
55.3623
61.5525
162.877
48.807
91.9454
54.9187
62.7222
63.2463
423.581
210.475
133.798
80.6916
110.075
758.277
784.967
124.251
71.4716
239.475
544.271
74.197
716.194
196.461
362.008
53.4994
174.747
107.117
54.2909
99.0223
59.9137
60.524
214.808
48.531
51.6918
69.0644
496.988
61.304
56.4683
53.1755
43.9567
191.899
363.68
760.449
80.7166
61.0477
361.488
171.444
77.7385
316.675
53.2546
51.0751
44.2418
202.786
148.047
75.1219
48.5601
96.7375
496.419
191.761
43.7214
46.6396
73.3521
224.342
52.0947
146.074
721.623
1002.3
803.959
81.8144
86.7945
69.0491
123.66
769.009
156.136
124.346
109.645
167.724
50.0332
42.2116
42.1119
60.0065
69.2165
233.323
75.3566
65.5344
78.787
86.9259
155.472
488.658
504.656
77.9004
140.371
703.863
141.207
290.466
208.2
124.46
179.355
59.9705
592.293
173.135
144.084
74.0745
445.195
51.8047
72.8903
64.2813
48.2381
639.695
55.4696
642.605
56.3373
85.4665
61.5597
108.432
60.3416
327.273
218.212
68.3632
48.3579
44.2766
150.451
329.934
699.995
548.679
51.0546
491.91
44.8964
63.8828
370.927
70.4574
442.674
1094.69
42.5748
535.597
58.9467
60.5888
47.8371
54.9862
51.6346
129.255
491.109
61.9587
370.225
132.638
394.757
60.2139
115.018
61.4736
61.7594
46.4355
690.266
262.58
46.9219
406.284
41.5088
67.3859
112.293
260.189
684.464
68.7335
120.508
255.949
142.714
201.183
80.2225
77.9261
181.968
899.522
135.418
350.203
907.202
101.284
127.594
80.3787
73.1288
873.504
44.716
50.3906
567.35
88.1133
740.232
42.9065
42.6419
43.2312
46.3215
43.8953
57.5756
61.8208
94.6606
62.4478
62.5921
78.0093
45.5644
46.3856
278.598
738.499
45.8225
766.603
126.993
88.0106
81.9823
69.9066
254.927
103.155
217.544
242.086
77.8856
590.635
53.7625
41.4109
42.6533
50.2071
162.228
76.4881
153.44
196.568
73.877
106.71
915.304
53.2917
53.7006
815.386
953.986
236.197
469.632
641.278
386.489
615.888
366.306
445.166
146.973
292.474
198.482
154.075
844.409
722.498
765.082
256.761
79.0477
929.381
348.533
357.059
84.8582
292.349
677.675
144.221
254.55
167.26
80.3411
263.211
153.608
877.908
747.784
1048.94
169.923
79.2216
794.76
465.259
696.332
56.9695
46.6762
975.632
741.376
75.989
62.1932
60.3056
790.499
1272.14
1240.92
49.04
50.2849
53.3915
65.6352
46.5105
89.1979
48.115
343.316
393.023
887.659
945.588
713.687
740.339
539.521
112.449
80.4046
53.8182
191.053
210.797
81.9867
44.7457
47.5107
167.426
123.176
570.306
41.3032
65.1797
117.083
89.5485
60.72
108.982
64.8772
202.527
82.444
603.715
558.517
64.4584
48.6975
87.6073
1112.28
666.25
1060.19
81.5486
812.904
715.102
41.9429
866.986
816.369
1088.95
90.3644
46.8344
53.4796
46.237
58.6834
44.0547
46.7906
41.9983
40.8407
770.394
577.393
639.483
499.721
525.814
748.281
41.8262
41.8665
50.2774
41.413
825.247
44.9779
48.7725
56.8832
49.1593
57.6039
68.5367
61.8671
55.5414
50.0074
42.5181
656.672
41.213
43.3079
52.5027
46.8364
70.8764
87.7396
42.4705
42.923
679.113
116.425
108.096
55.6618
43.3614
52.1698
164.841
112.012
304.801
180.3
41.9379
41.9723
126.576
83.6335
781.425
865.305
598.999
714.333
170.491
97.024
86.9043
51.1719
45.2289
48.2527
49.8405
92.3605
76.468
227.689
62.1491
225.823
56.4984
43.3773
91.1605
42.2478
44.5231
44.9255
128.609
42.5512
53.7164
117.312
42.2792
139.259
47.1268
41.8861
43.0194
43.7678
48.2329
56.0467
432.061
54.7307
205.961
76.102
49.2532
115.501
170.069
89.1064
174.25
768.49
127.343
98.2211
201.609
425.63
122.303
76.9605
361.242
851.915
92.0133
138.961
728.903
87.7038
113.576
81.3076
173.909
720.44
909.995
423.41
804.733
918.157
155.884
133.902
129
61.9292
95.0718
63.5901
92.4213
80.9494
73.4947
95.7233
74.7072
69.4062
80.24
79.0007
179.984
126.443
166.383
292.441
48.514
45.2636
42.9006
44.6121
50.2808
43.0401
44.0841
50.9724
140.66
78.1946
48.9776
53.2212
70.3104
43.086
43.2528
44.679
45.1011
44.9507
159.291
343.507
499.192
318.423
685.811
558.024
69.2243
687.722
363.221
55.1761
41.1482
570.611
489.946
64.453
292.916
78.8138
66.9333
46.99
44.1936
97.5409
134.253
95.6659
111.13
52.8105
51.4096
50.2662
212.636
92.9298
76.0509
76.3862
58.7744
966.119
118.212
250.78
59.9774
94.3465
268.349
152.519
112.552
84.7772
69.8024
83.8602
1268.79
138.779
111.239
69.0215
78.1481
773.925
597.291
834.704
586.159
348.167
46.9371
54.4189
44.4912
41.7517
149.869
191.23
43.0463
218.77
112.015
92.4423
539.401
65.6431
57.8022
51.5729
91.9962
105.2
158.921
521.312
130.125
65.7574
399.525
151.618
59.0398
736.781
116.074
67.35
87.0873
139.971
546.168
709.244
311.685
495.242
202.083
201.122
275.081
40.8218
41.2708
42.5029
47.1531
49.1656
43.4641
44.2102
121.765
255.701
718.282
124.894
158.376
182.666
676.065
604.818
90.8728
70.8951
51.8364
717.709
90.7728
913.056
58.4072
60.3553
49.4427
79.5781
965.656
133.069
94.6316
203.291
59.3989
74.6577
107.437
701.195
414.551
107.78
49.9368
79.3093
51.2257
82.6008
168.957
138.334
69.5233
155.479
83.3112
83.1523
143.096
65.1761
62.7552
192.872
73.4969
75.9284
268.953
48.3661
75.7683
54.0072
68.0043
64.3206
66.0102
56.7663
58.1645
69.7521
79.3685
51.5939
43.4803
46.8186
55.5908
72.1598
105.564
122.908
56.2013
154.538
447.692
40.8268
43.2592
351.561
41.1461
89.5985
972.684
903.28
264.099
41.805
57.4691
60.6646
44.6856
43.8206
44.7569
51.4889
47.0808
56.8748
150.461
47.3642
49.2966
119.901
866.707
68.4621
396.74
133.974
100.193
143.035
95.5261
227.32
87.7356
187.458
709.407
126.216
104.361
238.165
476.648
735.395
50.7539
464.72
123.937
145.718
619.248
122.202
305.115
547.065
102.881
541.759
53.3885
45.3405
66.8894
64.2355
67.2798
73.1504
99.4833
73.5243
46.1061
59.5673
45.2202
285.519
125.825
267.792
49.7939
501.661
325.026
94.8436
102.856
413.923
270.193
77.4619
51.0115
63.7236
100.169
56.2913
112.674
113.842
92.0693
119.418
100.311
43.5964
60.335
60.3542
58.846
45.6014
117.631
41.5292
147.228
44.534
41.2631
211.319
48.2523
62.8608
104.143
58.3059
103.518
44.6739
59.5482
51.2175
52.2434
53.489
59.7005
51.8235
48.8011
77.5709
109.993
94.79
66.0216
43.944
43.2968
42.2644
60.0461
59.5659
51.2336
47.9672
51.2262
56.9246
57.1612
112.748
59.2809
91.1972
64.5219
95.6759
59.1377
84.4622
86.4837
53.5117
137.367
68.1467
62.3938
43.2245
148.524
43.263
43.1902
78.1108
85.4372
165.226
156.488
49.5496
46.9823
48.3434
43.1986
44.0419
177.681
109.453
108.573
263.627
214.266
108.738
200.078
89.1909
91.5507
154.328
72.7342
74.9248
118.243
106.847
156.216
156.51
191.72
300.469
346.76
576.119
572.014
540.437
376.489
563.004
584.009
79.7739
82.0477
79.8145
505.304
178.887
140.167
170.757
129.295
166.249
121.767
79.334
82.963
82.6306
82.6038
109.544
92.0171
62.3183
60.5142
76.2919
71.1974
77.0487
95.1826
92.1629
113.5
58.4269
41.4916
42.0687
41.4682
245.764
117.183
62.884
123.695
68.2041
110.405
61.7469
61.3993
72.3505
54.8897
336.698
223.374
240.299
109.98
217.681
136.922
286.326
249.643
404.277
328.647
492.649
560.831
77.3321
758.883
441.667
68.4394
731.51
1059.74
797.42
818.97
171.652
228.27
472.255
62.3769
92.8501
73.7911
466.535
95.006
698.7
871.682
303.875
110.764
541.846
475.429
474.95
881.905