/*--------------------------------*- C++ -*----------------------------------*\
| =========                 |                                                 |
| \\      /  F ield         | OpenFOAM: The Open Source CFD Toolbox           |
|  \\    /   O peration     | Version:  2506                                  |
|   \\  /    A nd           | Website:  www.openfoam.com                      |
|    \\/     M anipulation  |                                                 |
\*---------------------------------------------------------------------------*/
FoamFile
{
    version     2.0;
    format      ascii;
    arch        "LSB;label=32;scalar=64";
    class       surfaceScalarField;
    location    "0.0948794";
    object      phi;
}
// * * * * * * * * * * * * * * * * * * * * * * * * * * * * * * * * * * * * * //

dimensions      [0 3 -1 0 0 0 0];

oriented        oriented;

internalField   nonuniform List<scalar> 
7488
(
0.0121793
0.00836528
0.0129885
-0.033533
0.0010727
-0.0126902
0.00290753
0.00871001
-0.00255024
0.00336562
-0.000614344
-0.000201035
-0.00186212
-0.000701905
0.00153303
0.001031
0.0018814
0.00178288
-0.0015681
-0.00209617
0.000988587
0.000677163
-0.000703613
-0.000962137
0.00358694
-0.00187106
-0.000428052
-0.00128782
0.00164275
-0.000599163
-0.00104359
0.00856791
-0.00183024
-0.00293271
-0.00380495
7.81268e-05
-0.00064016
0.000562033
0.0051418
-0.00444287
-0.000726044
-0.018872
0.0186218
-0.0537174
0.00776002
-0.0390342
-0.00821505
0.0394893
0.0398585
-0.0109505
-0.028908
0.00737305
-0.00588364
-1.66573e-05
-0.00147275
-0.0152724
0.000299172
-0.00200202
0.0169752
-0.00186065
0.0152092
-0.00827594
-0.00507256
0.00161202
0.00926988
-0.0124687
0.00158675
-0.000208063
6.41641e-05
-0.00144983
0.00159373
0.043154
-0.0143124
0.0381313
-0.0669728
-0.00355923
0.00342414
-0.000229648
0.000247384
-0.000954154
-0.00029733
0.0010041
-0.00179164
-1.11604e-05
0.0019008
-9.79923e-05
0.0335909
-0.0122853
0.0185529
0.00127314
0.00210666
-0.000863615
-0.00251619
0.000231804
-0.00197749
0.00168015
6.55276e-05
0.000250525
-0.00181036
0.00200367
-0.00171668
-0.000298152
0.000399886
0.00129546
0.000308325
0.0203233
0.0132675
0.0326722
-0.0293097
-0.00336244
-0.0028818
-0.000519209
0.000352514
0.0030485
0.0102722
0.0528174
-0.0304174
-0.0337935
0.0118915
-0.0107968
0.0326988
0.0118367
-0.00332084
-0.0136679
0.00515204
-0.0136673
-0.00985398
0.0015795
-0.00139926
-0.000180243
0.000327577
-0.00405175
0.00171539
0.00396191
-0.00692428
-0.00430444
0.00726682
0.00129323
0.00251034
0.0197787
-0.0235823
0.00239494
-0.000437033
-0.000737023
-0.00125539
0.0029822
0.000490848
-0.00221767
0.00126379
-0.0082606
0.000652801
0.00634401
0.0103332
0.00972509
-0.0169726
-0.00308561
0.00757287
-0.00204992
-0.0103189
0.00479598
0.00072819
-0.000743647
-0.00250376
0.00251922
-0.0033412
0.00546079
0.00291362
-0.00503321
-0.00502364
0.00522357
-0.0029479
0.00274797
-8.14506e-07
-0.000309839
-0.000875856
0.00118651
0.00132836
0.00236369
0.000808218
-0.00450026
0.00108502
0.00346316
-0.000820414
-0.00372777
0.000852783
-0.0015263
0.000980452
-0.000306936
0.000165595
0.000295652
0.00027707
-0.000738317
0.00254189
0.00170172
-0.000656678
0.00697983
-0.000498288
-0.00291708
-0.00356446
0.00299474
-0.00251073
-0.00426788
0.00378387
-0.000291725
0.00115819
-0.00132503
0.000458566
0.00364692
-0.00080919
-0.00182729
-0.00101044
-0.0020445
0.00199752
0.000811407
-0.000764431
0.00578734
0.0115363
-0.0118934
-0.00223061
0.00258778
0.000115984
0.00287582
-0.0037357
0.000870177
-0.00170059
0.00260858
-0.00378862
-0.00190827
0.00308831
-0.000957927
0.000531077
0.00262973
-0.00220288
-0.000346087
-0.00403796
0.00342612
-0.000617341
-0.00213607
0.00328449
-0.00320765
0.00404823
-0.00145792
-0.00299557
0.00465052
0.00915435
-0.0108093
0.00265146
-0.00109317
-0.00212113
0.000562848
0.0133528
-0.00922793
-0.00330824
-0.000816627
0.0160835
-0.0262019
0.0163395
-0.00622109
-0.0056882
-0.00779278
0.00279581
0.0436947
-0.0113834
0.0185463
0.00821912
-0.0108724
-0.0158931
1.91135e-05
-0.000828303
0.00312291
0.00430919
-0.00738038
-5.17144e-05
-0.00137442
-0.000289767
0.00105491
0.000609273
-0.000586935
0.000996125
-0.00370036
0.00329117
0.00334044
0.000544396
-0.00778095
0.00389611
0.00187788
0.00117699
0.000825368
-0.00388024
0.000488382
-0.00159598
0.00243596
-0.000402523
-0.0022178
0.00345633
-0.000398103
0.000219288
-0.000311015
0.00048983
0.0368977
-0.0399985
-0.0205433
0.0236441
0.0109117
0.0244192
-0.020357
-0.0255609
0.0276228
-0.0182715
0.0162096
0.0298152
0.0292072
0.00300992
-0.00169862
0.000376294
-0.00168759
0.00154928
0.00940939
-0.000280828
-0.0106778
-0.00240131
0.00395998
0.00579497
-0.00735364
0.00137055
-0.00154604
0.000838042
-0.000662548
0.00337132
-0.00314631
0.001622
-0.00184701
0.015044
-0.0274867
0.0124427
-0.00779612
0.000788734
0.00815815
-0.00115076
0.00114149
0.00227341
-0.00256212
-0.0100073
0.0108283
-0.00126808
0.000447059
0.00425634
-0.000261768
0.0078421
-0.000676132
6.23137e-05
-0.000451265
0.00106508
-0.00183525
-0.00510936
0.00952255
-0.00257794
-0.00385188
0.00307866
0.000973547
-0.000200329
0.00675502
-0.00866645
0.006116
-0.00420457
-0.000564359
0.00173612
0.00363343
-0.00480519
0.00307775
-0.0022557
0.000574329
-0.00139637
0.00224553
0.000110129
0.000181567
-0.00253723
0.000319958
-0.00140857
0.00283159
-0.00174298
-0.00154148
0.00207646
-0.000990429
0.000455451
0.00874711
-0.00327377
0.00299312
-0.00846645
-0.00103806
0.00160799
0.00177233
-0.00234226
0.00146087
-0.0122456
0.00123678
-0.00242535
-0.000176259
-0.00086879
0.0034704
-0.000786843
-0.00180113
0.00104649
0.000375044
-0.00508997
0.00162746
0.000260136
0.00239116
-0.00343814
-7.62309e-05
0.0076302
-0.00871744
0.00116346
-0.000327461
-0.000464047
0.000189855
0.000601654
-0.000869753
0.00137806
-0.000570267
-0.0132505
0.00073749
0.0149399
-0.00242688
0.00213473
-0.0006009
-0.000126689
-0.00140714
0.000939732
-0.000433361
0.000820618
-0.00132699
-0.0235507
0.0089447
0.0161972
-0.00159116
0.00070046
-0.0216024
-0.00264875
0.00952817
0.00252319
-0.0104393
0.000724885
0.00107731
0.000520166
-0.00232236
-0.000994484
0.00231466
-0.00557125
0.00425107
0.000730969
-0.00052913
0.000964502
-0.00116634
-0.00174874
-0.00268921
-0.000685994
0.00512394
-0.0014113
-0.0091936
0.00637636
0.00422854
0.00241264
0.00247519
-0.0026423
0.00140777
-0.00366478
0.0029819
-0.00133724
0.00195924
-0.00370417
0.00308217
0.00205682
0.000931662
0.00301369
-0.00600218
-0.00532727
0.00541231
-0.00843356
0.00834852
-0.00477966
-0.00498991
0.00390127
0.0058683
0.0011896
-0.000650382
-0.000187819
-0.000351397
0.000450531
0.000739067
0.000934955
0.000808444
-0.00133895
-0.000404449
-0.0012631
0.000695247
0.00284206
-0.0022742
-0.00114272
-0.00126581
0.00114543
-0.000550707
0.00139993
-0.00136441
0.000515181
-0.0359826
0.0413561
-0.00794448
0.00257096
0.00435286
0.0134908
-0.0230462
0.0052025
0.00177761
-0.00211204
-0.000151032
0.00048546
-0.00189023
0.000961896
0.000620381
0.000307955
0.00553036
-0.0131061
0.00368046
-0.000276685
-0.000779128
-0.000806309
0.00119653
-0.00157726
0.00298931
-0.0013902
0.00122167
-0.00263088
0.00279941
0.000834086
-0.00324353
-0.00108083
0.00349027
-0.000591638
-0.00184075
0.00326647
0.00134015
0.000297256
-8.62505e-05
-0.00155115
-0.000353844
0.000241222
-0.00174792
-0.000955761
-0.00084652
-0.000753124
0.000702455
0.000897189
0.00103381
0.000296254
0.000283233
-0.0016133
0.000523163
-0.00045329
0.000963939
-0.00279576
0.00208802
0.000967879
-0.00123396
0.00113835
0.000706056
0.00108466
-0.00150852
-0.000372487
0.000146955
-0.0010882
-0.00194975
0.00493313
-0.00189518
-0.00725574
0.00412582
0.00131433
0.0018156
-0.00175337
-0.00220544
0.00254808
0.000367065
0.00018567
-0.00113145
0.000578717
0.000253093
-0.000592944
-0.000812439
0.00115229
-0.00122527
-0.00155209
-0.00101127
0.00239337
-0.00527391
0.0069173
-0.00403677
0.00799658
0.0094716
0.000488956
-0.0179571
0.0011521
-0.00834308
0.00585208
0.00133889
0.000125145
0.000182367
-0.00110211
0.000794596
0.000446703
0.000883529
-0.00222716
0.000896927
-0.00454252
0.016177
0.00182809
-0.0134626
0.00209138
-0.00309403
-0.00948994
0.0104926
0.00455485
0.00758342
-0.0134927
0.00135442
-0.00161227
0.00181308
0.00329753
-0.00349833
-0.00617543
-0.00353555
-0.00420573
0.00112333
-0.000161122
-0.000439694
-0.000451282
0.00106239
-0.00017141
-0.00106676
0.00103425
-0.000175552
-0.000117128
0.00265663
-0.00239288
-0.00014663
0.000305687
0.000277986
-0.000583672
0.022406
-0.0323965
-0.00744034
0.0174309
-0.000399392
-0.000411559
0.000810951
-0.0306079
-0.00683624
-0.0325222
-0.010687
0.0231926
0.00191539
0.000715008
-6.00796e-05
-0.00257032
-0.00223823
-0.00226746
-0.0011383
0.00564399
0.00866143
0.00427364
-0.00868793
-0.00424714
0.00142231
-0.000911597
-0.00161438
0.00110367
0.00056289
-0.00192987
0.00124021
0.00012677
-0.000823367
0.00148554
-0.000662987
0.00124546
-0.00285412
9.6337e-05
0.00123756
0.00022858
-0.00156248
0.00304948
-0.00485299
-0.000839851
0.00264336
-0.00111166
0.00318076
-0.00464099
0.00257189
0.010387
0.00214724
-0.00938515
-0.00314909
-0.00156339
0.00765266
-0.00372337
-0.0023659
-0.00285676
0.0028751
0.00696148
-0.0164
0.00232528
-0.000346525
0.00347574
-0.00154751
-0.00123298
0.00270756
-0.00584898
0.00378691
-0.000645492
0.00213419
-0.000832551
0.00140341
-0.00270505
-0.00354742
-0.000209304
0.00332856
0.000428167
0.00332748
-0.00116385
-0.00528541
0.00312178
-0.00469232
-0.000477476
0.00190753
0.00326226
-0.00111042
0.00142197
0.00103911
-0.00415957
0.00613977
-0.00301931
-0.000457476
0.000699292
-0.000241816
-0.00134787
0.000450361
0.00591964
-0.00502213
-0.029811
0.0177922
0.00740974
0.004609
-0.0279432
0.0075015
0.00516936
0.00180105
-0.00318424
-0.00122444
0.00260763
-5.89253e-05
0.000330305
0.00101429
-0.00128567
-0.00971181
0.0244408
-0.0267483
-0.00331103
0.00878921
-0.00551563
3.74458e-05
0.00133004
-0.00190465
0.000234359
0.000340246
0.00914278
-0.00216496
-0.00458445
0.000402101
-0.0014376
-0.00067622
0.00171172
-0.000118369
0.00180498
-0.00220582
0.000199085
0.00110486
-0.00529233
-0.00627833
-0.00455656
0.00131032
-0.0029477
0.00619394
0.0103945
-0.00984989
0.000719159
0.00163573
-0.00247488
-0.00413308
0.00497223
-0.000364214
0.0103406
-0.00846083
-0.00151557
0.000755747
-0.000693407
-0.000502033
0.00119438
-0.000523967
-0.000670412
0.00128306
-0.000741826
-0.0021108
0.00156957
-0.0240053
0.0207051
-0.0163182
0.0196185
-0.00243378
-0.00114753
0.0086028
-0.00502149
-0.0082062
0.00307549
0.00388736
0.00124335
-0.000224144
-0.00227633
-0.00104695
0.0211671
-0.0790776
0.0108747
-0.00274949
-0.000808648
-0.00731654
0.00404248
-0.00262856
0.000936365
-0.00235029
-0.00282775
0.00201671
-0.000358228
0.00116926
0.00115232
0.0160644
-0.0217593
-0.00080667
-0.000503698
0.000921288
0.00038908
-0.00286983
0.00378369
0.000536572
-0.00145043
-0.0036323
0.00163131
0.000681553
0.00131944
0.00141413
-0.00135669
0.00293007
-0.00298751
-0.0066298
0.000824789
0.00246382
0.00556119
0.0226283
-0.0131455
-0.000180153
7.95472e-05
-0.000308516
0.000409121
0.0161735
0.00737811
0.0080468
-0.00825025
-0.00717465
-0.000908677
-1.39754e-05
0.00117574
0.0058545
0.00263819
-0.00643587
-0.00640412
0.0123124
-0.00694463
0.00103635
-0.000946377
-0.000579922
-0.00196121
0.00185171
-0.00148777
0.00159727
0.000937533
-0.000409781
-0.000527752
-0.000158804
0.00106107
0.000156834
-0.0010591
0.00439074
0.000135106
-0.0021132
-0.00242653
-0.00117133
0.0107811
-0.00718322
-6.22644e-05
-0.000337128
-0.000711753
-0.0015144
-0.00122563
0.00345178
0.000131724
0.00147643
0.00187102
-0.00347918
0.00393326
-0.000927575
-0.000559255
-0.00244643
-0.000738842
0.00308051
-0.00158043
-0.000761234
0.000542228
0.00207902
-0.00134575
-0.0012755
0.00143028
-0.00135934
-0.000894315
-0.00168291
-0.00385573
0.00369789
3.52731e-05
0.00120972
-0.000515273
-0.000729718
-0.000763978
-0.000107732
0.00101867
0.00578344
0.00179666
-0.00922826
0.00164816
-0.056601
0.00705503
0.0311196
0.0184264
0.00163767
0.000631163
-0.00192783
-0.000341001
-0.00107141
-0.000967798
-0.00183875
0.00387796
-0.00130105
0.00271518
-0.00132843
0.000596712
0.00112003
-0.000388314
-0.000185929
0.00192207
0.000398056
-0.0105721
-0.000444526
0.0167079
-0.00569129
-0.00836059
-0.000904357
0.000610989
0.00865396
0.000861697
0.00537537
-0.00273553
-0.00350154
0.00122653
0.000844645
0.00130014
-0.0138562
0.00603539
0.00325091
0.00456987
-0.0040364
0.00268707
0.00112729
0.000222043
-0.0191523
0.0141302
0.00937494
0.000918882
0.00929636
-0.00855373
-0.00166151
0.0119585
-0.00302543
-0.00401466
-0.00491838
-0.00223491
0.000878221
-0.028172
0.0200867
0.00906979
-0.000984431
-0.00679903
0.00624718
-0.00435866
0.0049105
0.000669964
-0.0164756
0.00653597
0.00926962
-0.00907035
0.00405211
2.16182e-05
-0.0028755
-0.00158828
0.00444217
0.00208448
-0.00206041
-0.00384128
0.00381721
0.00280813
-0.00122863
-0.00327437
0.00094464
-0.000865238
0.00319497
-0.00155413
0.00314064
-0.002215
0.000628484
0.00601316
-0.00896275
-0.0138961
0.0168457
-0.00437451
0.00359592
-0.00359231
0.00437091
-0.00336232
-0.00254489
0.00799168
-0.0146543
0.00848049
0.0362487
0.000247439
-0.00262585
0.00157174
0.00384952
-0.00603905
-0.00420798
0.00639752
-0.00204388
-0.000709465
-0.0046655
-0.00489103
0.0110331
-0.00147658
0.00053652
-0.000382831
-0.000153688
0.000708271
0.00104451
-0.00130608
1.89944e-05
-0.000844276
-0.000896071
0.00172135
-0.00278798
0.00761277
-0.00247085
-0.00235394
0.00250552
-0.0014015
-0.0136496
0.00384102
0.00295976
0.0068488
-0.00478662
0.00102582
0.0028472
0.000220869
0.00219956
0.000801737
-0.00322217
0.00679283
0.00557069
-0.0198751
0.00751162
0.0102235
-0.00810101
-0.00103373
-0.00108872
-0.00167577
0.00265474
-0.00167607
0.000697095
0.00181139
0.0017236
-0.0113369
0.00774907
0.00299718
0.00059069
0.000302262
-0.000919844
-0.000225279
0.000842861
-0.0144089
-0.00627063
-0.00152444
0.022204
0.00125261
-0.0026851
-0.00211853
0.00355102
-0.00802682
-0.00676412
0.0212806
-0.00648964
-0.00441457
0.000538186
0.00219348
-0.00560955
0.0264312
-0.0202586
-0.000563086
0.00208482
-0.000236953
-0.00182223
-2.56345e-05
0.00735419
-0.00288018
0.00513871
-0.00961272
0.000644131
0.00493588
-0.00432384
-0.00125617
-0.00648077
-0.00226791
0.00203648
0.0067122
-0.00123686
-0.000394112
-0.00136149
0.00299246
-0.00189286
0.000611345
0.000317496
0.000964022
-0.00197721
0.000504235
0.000771069
-0.00143969
0.00418105
-0.00263281
-0.000108554
-0.00719942
-0.00248988
0.00298683
0.00670247
-0.00205037
-0.00134371
0.00150121
0.00105224
-0.000715605
0.00155521
-0.00189184
0.000710565
-0.008683
0.0111927
-0.00322025
0.000518412
-0.000248965
-0.00111597
0.00372212
-0.00125352
-0.0029045
0.000435901
0.0203534
0.00881599
-0.0324454
-0.0101242
0.0102334
0.00473627
-0.00484541
-0.0363638
-0.00277687
0.0135798
0.00622325
-0.0197909
0.0146404
0.0012154
0.000411122
0.00188605
-0.00351257
-0.000257745
-0.000198278
0.000456023
0.000310001
-0.000710851
0.000143104
-7.27484e-05
-0.000311629
0.000384378
0.000757432
0.000239469
0.000533297
-0.0015302
0.000340973
-0.000455555
0.000114581
0.00766294
-0.00727601
0.00640591
0.012288
-0.00743595
-0.00966311
0.00481108
0.00418087
-0.00481532
-7.42327e-05
0.000708688
-0.0021411
0.00210524
-0.0342747
0.0343106
0.000307482
0.000352241
-0.000537235
-0.000122488
0.00263624
0.00113433
-0.00301313
0.00207063
-0.000488477
0.00105408
0.000234734
0.00414272
-0.00207209
0.000395017
-5.40438e-05
0.000203291
0.000191726
4.19789e-05
0.000268023
0.00165979
-0.00465536
0.00222396
-0.000225967
0.00142798
-0.00342598
0.00388375
-0.000232631
6.66442e-06
0.0036962
-0.0180862
-0.00653001
0.0291264
-0.0056759
-0.0169205
0.00202762
0.00225978
-0.00807797
0.00379057
-0.0241772
0.0071243
0.0327691
-0.0157163
0.0101935
-0.0129097
0.000662085
0.0127137
-0.000807757
-0.0162093
0.00430334
-0.00333078
0.00441034
-0.00169827
0.00311784
-0.000286274
-0.000726186
-0.00210538
-0.000486302
-0.00299257
-0.00214113
0.00562
-0.0142222
0.00239975
0.00336119
0.00846123
0.000725831
-0.0064905
-0.00451274
-7.52776e-05
0.0102412
-0.0133496
0.00318373
0.0110162
0.0106596
0.00289921
-0.0245751
-0.000731992
0.00170502
0.0127757
-0.0137488
0.00185593
0.000599291
-0.00137109
-0.00108413
-0.00265617
-0.00126388
0.00487284
-0.000952794
-0.00120404
-0.00381493
0.00255714
0.00246183
0.00329885
0.00127325
-0.000391229
-0.00405592
0.00176129
-0.00150974
0.00380437
0.00536918
-0.00114567
0.00491926
-0.000259868
0.00122931
-0.000722379
-0.000247063
-0.00248571
-0.00426718
0.00488349
0.0018694
-0.00936814
0.00346721
0.00912428
-0.00322335
0.00928302
-0.0131831
-0.000618058
0.0045181
-0.00229701
0.00156011
0.000642852
9.4054e-05
0.000695414
-0.00148312
0.000291627
-0.00923464
-0.0177925
0.00331663
0.00492899
0.0095469
-0.00292607
0.00433118
0.000205936
-0.00161105
-0.00965643
-0.00926339
-0.00155389
0.00321015
0.00737356
-0.00917142
-0.00141229
0.00362808
0.00950955
-0.00115894
0.00188713
-0.0135621
-0.00707234
0.00423447
-0.002011
-0.00059938
-0.000259459
-0.00497031
0.00289324
-0.00247949
0.00543747
-0.0119017
-0.00715767
-0.00432845
-0.00436341
-0.00958071
0.0182726
0.000339417
-0.000630737
0.00087224
-0.00058092
0.0439694
-0.0209749
-0.00447278
0.00582574
0.00358849
-0.00265921
0.012307
0.0647321
0.00389082
-0.0146246
0.0331398
0.0112181
0.00490023
-0.0117171
-0.00440125
-0.0033236
0.00227659
-0.00192368
0.00297068
0.00742587
-0.00260116
-0.0057743
-0.000980904
0.00172585
-0.000385674
-0.000359272
0.00045816
-7.34926e-05
0.001253
0.000805196
-0.000766612
0.000692385
0.00212482
0.0091933
-0.00212923
-0.00918889
0.0160506
0.0257646
-0.0136431
-0.0281721
-0.043859
0.0200213
0.0484691
-0.00304246
0.011249
0.00152795
-0.00973446
-0.00339402
0.00266699
0.00138022
-0.000653192
-0.00183746
0.00635855
-0.0010976
-0.00342348
-0.000731861
0.000312833
0.0016698
-0.00125078
-0.0044181
-0.00744775
0.00580614
0.00605971
-0.00737736
0.00438284
0.0017975
0.00119702
0.000971899
0.00643064
-0.00212191
-0.00528063
0.00476138
-0.000317521
0.000465299
0.00315611
0.0023988
-0.00602021
-0.0109028
-0.028368
0.0335143
0.00575651
0.0015262
0.0101546
-0.0211137
0.00943284
-0.0264045
0.0168184
0.0368282
-0.0272422
-0.00291056
0.00176441
-0.00248615
-0.000724059
0.00214079
0.00547076
-0.00399072
-0.00597025
0.00449021
-0.0159212
0.00456281
0.0188818
-0.00752348
0.00246657
-0.00323636
-0.000289923
-0.0134105
-0.00689208
0.0137725
0.0511183
-0.0465519
-0.0369304
0.032364
0.0505141
0.0379536
-0.00182853
-0.00133941
0.000870935
0.0207304
0.0129476
0.0116327
-0.00243606
-0.00275122
-0.00644541
-0.0106797
0.00626269
0.00107411
0.00334287
-0.00219833
-0.00604482
0.000651419
0.00759173
-0.000967705
0.00509014
-0.00743346
-0.0021787
-0.00294863
-0.0108442
0.046724
-0.0404561
0.00457632
0.00146401
0.00329737
0.00119887
0.00702853
0.000561807
-0.0015824
-0.00243109
0.00263411
0.00137938
-0.00300227
0.00172225
0.000176232
0.00110379
-0.000846373
0.000435244
0.000411129
0.0248755
-0.00643973
0.00596048
-0.0243963
-0.000389459
-0.000512523
-0.00186907
0.00277105
0.00390598
-4.80272e-05
-0.00304073
-0.000817223
0.000106632
-0.000805209
0.000823722
-0.00242585
0.00603692
0.00066731
-0.0171183
-0.00235149
0.00722422
-0.00757409
0.000827856
-0.021197
-0.000875023
0.00056589
0.000309133
-0.00316364
0.00413027
-0.00320486
-0.0460288
0.0777364
-0.0546251
0.00204319
-0.00010685
-0.000996603
-0.0336882
0.00680937
-0.00226418
-8.15034e-05
-0.00244094
-0.0016417
-0.00134619
-0.017635
0.00403054
0.0175451
-0.00394062
-0.0192464
-0.00630147
0.0179967
-0.0206564
0.0340339
-0.0215953
-0.0430466
-0.000795536
-0.00145836
-0.0601461
0.0474242
0.0334523
-0.00456456
-0.00241114
-0.000280042
-0.00358686
0.00383691
0.00539419
-0.00564424
0.00323496
-0.00224002
0.006384
-0.00737893
0.0102447
-0.0114922
-0.000100349
0.00154423
0.00099453
0.00055073
-0.00308949
0.00132639
-0.00434285
0.0023143
0.000702152
0.00210027
0.00232263
-0.0164315
0.0120086
-0.0169897
-0.00997508
0.0181091
-0.00610861
-0.00640054
-0.000874844
0.013384
0.0235066
0.00136168
-0.00451484
0.0170904
0.00963696
0.00336901
-0.000928678
0.000244987
-0.00268532
0.0032314
-0.00475175
-0.00280462
0.00432496
-0.00692079
-0.0012046
0.00156705
0.00655833
-0.00345354
-0.00326452
0.0065797
0.000138358
-0.001194
-0.00440071
0.0159279
0.00585276
-0.0119873
-0.00520238
0.00567106
-0.00607227
-0.0134353
-0.0021241
0.0100542
0.00550522
-0.0228767
0.0260065
0.0224307
-0.0255605
-0.00252327
0.00112612
-0.00606121
0.022109
0.0122974
-0.0122066
0.00280129
0.00168378
-0.00163144
-0.00663527
0.00161341
-0.00186793
0.000284105
-2.95892e-05
0.00203546
0.00115211
-0.00550308
-0.00289203
0.00167746
0.00102864
-0.00107801
0.00119468
0.00154896
-0.00166563
0.00305413
-0.00168124
0.000149242
-0.00152213
-0.000743585
0.00214423
0.00122908
-0.00341242
-0.000359517
0.00133276
0.00243918
0.00840604
0.00987837
-0.00788454
-0.00613204
-0.00804463
0.0220612
-0.0126415
0.0192893
-0.0145323
0.000659573
-0.00725943
0.00157622
0.00187822
0.000523337
-0.0049949
0.00259333
-0.0012467
-0.00211645
0.00298443
0.000378718
0.00226819
-0.0044336
0.00404364
0.0029193
-0.00413036
0.00318039
-0.00196933
-0.00322564
0.00102292
0.00156138
0.000641343
-0.000296566
0.0025296
0.00123013
0.00115072
0.00160684
-0.00237741
-0.00127071
-0.00100723
-0.00123189
0.00320685
0.00518382
-0.00715879
-0.00333951
-0.00417601
0.00866605
-0.00115053
-0.0105565
-0.00609234
0.00728066
0.00359083
0.0106213
-0.00564422
-0.000188951
0.00139377
-0.0010163
-0.000188522
0.000417734
-0.00209193
-0.0003368
0.00137792
-0.000960182
0.000470201
0.00180027
-0.0024215
-0.000214557
0.00021285
0.000928034
-0.000926327
-0.000137927
0.000639144
0.00103182
-0.0011543
0.000543549
0.00177127
-0.00116052
-0.000140402
0.000887741
0.00123587
-0.00189961
0.000663733
-0.000723824
0.00724473
0.00131575
-0.00177036
0.00045461
-0.000464374
0.000795618
-0.000389203
0.000394216
0.00151461
0.00163622
0.000965909
-0.00140301
0.0026147
-1.51647e-05
0.00189918
-0.00225935
0.000165443
0.00019473
-0.00054278
0.000130326
0.00013882
0.000273634
0.000557843
-0.000334184
0.000304162
-0.000527821
0.00194992
-0.00319705
-0.0035587
0.00892301
0.00401305
-0.00733851
-0.00126778
0.00459325
0.00023269
0.00347515
-0.003574
-0.000133836
0.024628
-0.0287518
-0.00677904
-0.00263663
-0.00257328
-0.00198951
-0.002336
0.00330394
-0.00360458
0.00194305
-0.00222448
-0.00185464
0.00214129
-0.000831069
0.000632824
-0.00872609
0.00477882
0.0168698
-0.0129226
0.00799425
0.00253169
-0.019252
-0.00707205
0.0174121
-0.00312428
0.00307988
0.00122638
-0.00118198
-0.000891474
-0.00064405
0.00153552
-0.000618754
-0.00222157
0.00194885
-0.00176084
0.00165748
-0.000540688
-0.000668092
-6.00117e-05
-0.00239618
0.00194594
-0.00593558
-0.00102834
0.00501799
0.00959481
0.00477506
-0.0114072
-0.00296264
-0.00311202
0.0134106
-0.000703793
0.0197787
-0.01635
0.00134628
-0.00340128
0.0157714
0.00740865
-0.0174459
-0.00471215
0.0261886
0.00419702
-0.00392927
-0.00211734
0.00184959
0.0201021
0.00808051
-0.0185139
-0.00966865
0.0147315
-0.00376241
-0.000207067
-0.000535551
0.000174088
0.00280335
-0.00244188
-0.00121518
0.00024486
0.00282623
-0.00185592
-0.000771401
0.00164104
0.000645674
-0.00166295
0.00242422
-0.00140694
-0.00217245
0.00218827
0.00450034
-0.00451616
0.000595474
-0.000565991
0.0017318
0.00359438
-0.00993972
-0.00744355
0.0137889
-0.00353716
0.0164957
-0.00936419
0.00897567
-0.00805606
-0.00918022
-0.00109322
0.00854456
-0.00568285
-0.0017685
-0.00271039
-0.00132154
0.000665629
0.0033663
-0.00149336
0.00353751
-0.00475455
0.00540839
-0.00451477
-0.00339122
0.00249761
-0.00174429
0.000278972
0.00202586
-0.000560542
0.00230659
0.00112226
-0.00763458
0.00581633
-0.00761173
0.0120189
-0.00924847
-0.00287735
0.000651125
0.0114747
-0.0132305
-0.00588223
0.0155756
-0.0109428
0.00102647
0.00974894
-0.00595978
-0.00481563
0.00277294
0.00154867
-0.00433391
-0.000231839
-0.00398581
0.00466801
0.00309723
-0.000996625
0.000909306
-0.00132951
-0.00940642
0.0137584
-0.0030225
-0.000731901
0.000270437
0.000648933
-0.000187468
0.00518399
-0.00729198
0.00343439
-0.000801599
-0.000699833
0.00312343
-0.00316246
-0.00442696
0.000435145
0.00715428
0.000306304
-0.00127683
0.00122393
0.000141189
-0.0006009
-0.000764216
-0.0011694
0.00044529
0.00165907
-0.00929586
-0.00320156
0.00933497
0.00706903
0.00236566
0.000463613
-0.0098983
-0.00671838
0.00449156
-0.000126129
0.000113638
0.000738534
-0.000726043
0.00565029
0.00272921
0.00269367
-0.0026973
-0.000595754
-0.00152324
0.00180738
0.000912153
-0.0011963
-0.00105351
-0.00139233
0.00119764
0.00124821
-0.0118311
0.016408
-0.00558751
0.00101054
-0.00344161
0.00166749
0.00017571
0.00159842
0.00244413
0.000880146
-0.00161678
-0.0017075
-0.000642192
9.85926e-05
-0.00212577
0.00266937
-0.000491233
0.0003937
-0.000353748
0.00115629
-0.0011432
-0.000973081
0.000959992
0.00408084
-0.00837922
0.00147297
0.00282542
-0.00684578
0.00386621
0.00706041
0.000767293
-0.00858988
-0.00055664
-0.00887576
0.00934229
0.00703497
0.00515576
0.0158434
0.00367859
-0.000333594
-0.00777262
0.00126043
-0.00130002
0.00163148
-0.000357068
2.56003e-05
-0.000195521
-0.00160159
0.000952831
-0.000892579
0.000739858
0.000537765
-0.000385045
-0.000456075
0.000320914
-0.000757418
0.00205329
-0.00134585
-0.00211308
0.00140565
3.43427e-05
0.0011294
-0.000711636
-0.000452105
0.00410448
-0.00334494
-0.00394661
0.00318707
0.00342544
0.00557513
-0.00916642
0.000165844
-0.00187627
0.00275966
-0.00138168
0.0118403
-0.0280418
0.0181379
-0.00193645
-0.0132962
0.0344665
0.00563042
-0.0268007
-0.0125698
0.000404748
-0.000408005
0.00749847
-0.00241852
-0.00467195
0.00752086
0.00353091
-0.00468476
-0.00636701
0.000409131
-0.002284
-1.83816e-06
0.00187671
-0.00326575
0.00428728
0.00020914
-0.00123067
0.00112095
0.00270411
0.00382381
-0.00764887
-0.00432699
0.00154538
0.00637661
-0.00410154
0.0115938
-0.000132203
-0.00766149
-0.00380013
4.96386e-05
-0.00804086
0.0031759
-0.00186136
0.00651777
-0.00501514
0.000358739
0.000866555
-0.0180165
0.00657789
-0.00380351
0.00174221
-0.00275639
0.00499108
-0.0012628
0.00288574
-0.00119307
-0.0113949
0.00970226
0.00462065
5.03611e-05
-0.0120429
0.00737188
0.00178663
-0.00127151
0.00899073
-0.00777362
-0.00497148
0.00375438
0.00196715
-0.00706172
0.00129106
-0.00689055
0.00817484
-0.00741633
-0.000813637
0.00605744
-0.0121344
0.00379093
0.00042572
-0.00311897
-0.00109768
0.00255612
0.00807995
-0.00252786
-0.00810821
-0.044181
0.0513524
-0.00560884
0.00774422
0.00631823
-0.00845361
-0.00128511
0.000935056
-0.000280187
0.000630237
-0.00711633
-0.00359378
-0.00307296
-0.00255273
0.00177564
0.00167904
-0.000901954
0.000340266
-0.00346089
0.00107613
0.000385085
0.000689737
-0.00155174
0.000476917
-0.00267362
0.00191611
0.00109778
-0.000873686
0.00224403
-0.000724667
-0.00426318
-0.00509194
0.0107149
-0.00135977
-0.00265168
-0.000107541
0.00156638
0.00119285
-0.00256543
0.000454696
0.000692646
-0.00490957
0.00263967
0.00176844
0.00836129
-0.00538479
-0.00474494
0.00180241
-0.00152116
-0.00471554
0.00783442
-0.0085577
-0.0104202
0.00649463
0.0151966
-0.0028789
-0.00448329
0.000799439
0.000386717
0.000616253
0.000328038
-0.000448443
0.0401336
-0.054451
-0.0155094
0.0298268
-0.00888507
-0.0130636
0.0063523
0.0155964
-0.00323626
-0.00217128
-0.000778428
0.00142855
0.00032395
-0.00136282
-0.00151786
0.00255673
-0.00282143
0.000753235
0.00347596
-1.3476e-05
0.00225833
-0.000813634
0.000703064
-0.00108152
-0.0174114
-0.00837593
-0.00342778
0.00128793
0.000568066
0.00157178
-0.0186671
0.00974807
0.0221443
-0.0132252
0.0040931
0.00300546
-0.0280921
0.0209936
-0.0031013
-0.00312779
0.00280131
0.00171765
0.000737719
-0.00561901
-0.00792413
0.00698508
-0.00338292
0.00432197
-0.00383654
0.00245304
0.000782283
0.000601215
0.00424086
0.00241276
-0.00118286
0.00451773
-0.00863025
0.000121805
0.000758728
-0.000964751
-0.00474555
0.00495157
-0.00373609
0.00341872
-0.0072798
0.00759717
-0.00170441
-0.00156847
-0.00282902
0.00292525
-0.00243015
0.00233392
0.00377996
-0.000601647
-0.000630713
-0.0025476
-0.0043405
0.0016462
0.000981813
0.00171249
-0.00218622
-0.00159225
0.00557952
-0.00052131
0.000451707
0.00867399
-0.00860438
0.00251229
0.00537255
-0.00885255
-0.00559394
0.026218
0.0280319
0.00758019
-0.00151509
0.000233385
0.00604976
-0.00476806
0.000895324
0.000814733
0.000852086
-0.00256214
0.00221714
-0.00277607
0.00017219
-0.000142087
-0.000331434
-0.00157481
0.00204833
0.000806778
-0.000453168
-0.00133452
-0.00431717
-0.00187978
0.00578894
-0.00503658
0.00810458
-0.00738517
-0.0112546
-0.00144489
0.00766293
-0.017748
-0.0290111
0.0174494
-0.0087502
0.0016961
0.00255246
-0.0133547
0.00761257
0.00318963
-0.00982184
-0.00733709
0.00881585
0.01119
-0.00214771
-0.0169692
-0.00581539
0.00719248
0.00350922
-0.00488632
-0.00346784
-0.00283479
-0.00303569
0.00933831
-0.00614031
0.000925048
-0.00597558
0.000323684
0.0087753
-0.0031234
0.00287696
0.00173296
-0.00192286
0.00139539
0.000180451
-0.00225635
0.000680509
-0.0111594
0.0165208
0.00565484
0.00264201
0.00982985
-0.00410277
-0.00836909
0.00392525
0.0127365
-0.0114002
-0.00526147
-0.00845121
0.00754384
0.00380804
-0.00290066
0.0116147
-0.00289472
-0.00479473
0.00376891
-0.00766991
0.00379064
-0.00106768
0.00256551
-0.00528847
-0.00512096
0.00137926
0.00514648
0.00242414
0.000333671
-0.00050184
-0.00225598
0.00102517
0.000847715
0.000551259
-0.00150563
0.00169721
-0.00335251
-0.00516285
0.00520604
0.00330932
0.00678265
-0.00385177
-0.00415615
-0.00525684
-0.00815772
0.00915139
-0.00992786
0.0073766
-0.000801253
-0.00565804
-0.00039354
0.00968394
-0.0318102
0.010379
0.0191847
0.0310056
-0.0249246
-0.0252658
0.00181005
0.000405693
-0.000121215
-0.00209452
-0.00747303
0.00640517
0.0143887
-0.0133208
-0.00435814
0.00862868
0.00655774
-0.00539784
0.0104362
0.00124374
-0.00628208
-0.00755731
-0.00470989
0.00345497
-0.0158048
0.015918
-0.00356816
0.00269717
-0.00133367
-0.00249627
0.00113277
0.00223243
0.00106209
-0.00062082
-0.0389798
0.0582225
0.0111627
0.00332036
-0.028892
-0.00403468
0.0113862
-0.00854555
-0.0320684
-0.00406757
0.0298654
0.0268597
0.0167277
-0.0324247
-0.00095288
-0.00022126
0.000463289
0.0401926
-0.0139537
0.00953273
-0.0166515
0.0104392
-0.0047191
-0.0103675
0.0165433
-0.014057
0.00491564
0.0173446
-0.017453
-0.00429236
0.00193952
0.000137