/*--------------------------------*- C++ -*----------------------------------*\
| =========                 |                                                 |
| \\      /  F ield         | OpenFOAM: The Open Source CFD Toolbox           |
|  \\    /   O peration     | Version:  2506                                  |
|   \\  /    A nd           | Website:  www.openfoam.com                      |
|    \\/     M anipulation  |                                                 |
\*---------------------------------------------------------------------------*/
FoamFile
{
    version     2.0;
    format      ascii;
    arch        "LSB;label=32;scalar=64";
    class       volVectorField;
    location    "0.0948794";
    object      U;
}
// * * * * * * * * * * * * * * * * * * * * * * * * * * * * * * * * * * * * * //

dimensions      [0 1 -1 0 0 0 0];

internalField   nonuniform List<vector> 
3926
(
(10.8439 0.336588 -0.658974)
(9.1737 0.139665 -0.357639)
(8.67799 0.163516 -4.14189)
(4.03965 0.0617603 -4.35189)
(4.32046 0.0653969 0.518971)
(2.89108 -0.407604 -6.77428)
(5.49035 0.142877 -11.3007)
(7.2736 -3.89622 -2.67347)
(11.7816 0.258878 -0.671206)
(-1.31811 -1.53526 -2.00961)
(12.0424 0.801803 -4.36328)
(10.1553 0.38218 0.411749)
(9.20343 0.234997 0.0441733)
(10.6407 0.0875548 -0.289569)
(8.62511 0.337466 -0.660342)
(9.30578 0.241581 -0.476684)
(11.0531 -0.0991217 -0.816882)
(9.20133 0.456261 -0.928428)
(6.87243 0.436188 -5.19881)
(9.67799 0.0772625 0.343019)
(8.83473 0.458572 -4.26098)
(5.1445 0.747059 -4.85162)
(5.65855 0.348022 -3.85252)
(10.8486 0.0786768 -0.362038)
(8.08545 0.349144 -2.56747)
(5.024 0.331705 -2.48097)
(5.90838 0.186859 -3.14877)
(4.04881 0.0539219 -3.95305)
(3.76779 0.000420552 -4.80402)
(10.9975 -0.0161054 -0.276108)
(12.4526 -0.0453909 -0.0900262)
(8.0793 0.384826 -3.50324)
(12.5399 -0.0863304 -0.108292)
(12.7159 -0.0942331 -0.126374)
(12.8458 0.157177 -1.45915)
(12.6281 -0.0675942 -0.193765)
(3.82598 -0.715386 -0.376769)
(8.33322 0.430507 -2.88647)
(8.27857 0.07002 -0.141456)
(10.2772 -0.108773 -0.767552)
(5.84738 -0.772498 -5.58055)
(11.1516 3.69931 -5.3269)
(11.7332 -0.0675095 -1.8286)
(9.69348 0.420347 -0.92235)
(8.76269 0.0358594 -0.199139)
(7.72982 0.0876085 -0.304719)
(11.3388 0.297741 -2.34247)
(13.3724 0.111731 -1.23262)
(1.40747 -0.129095 -6.36766)
(7.77339 0.217452 -2.5103)
(7.6711 -0.174161 -3.80657)
(6.01006 1.76309 -2.08089)
(1.49429 0.045992 -0.172444)
(9.27166 -0.625288 -11.3756)
(7.8661 0.129332 -0.0663069)
(11.2045 0.116061 -2.64068)
(5.74155 0.559415 -0.133672)
(1.87402 -0.726741 2.55256)
(8.51856 0.238873 -3.90202)
(0.987696 -0.333067 5.45239)
(9.50905 0.119036 -1.45075)
(13.4218 0.747068 -2.65787)
(6.70265 -0.600299 -0.118215)
(6.42787 0.303477 -1.06642)
(12.5014 0.438904 -5.68942)
(12.9058 0.348308 -6.38371)
(13.1891 -0.182148 -4.85064)
(13.2746 0.177288 -4.5892)
(8.95226 -0.167562 0.664349)
(12.7792 -0.553659 -6.89721)
(9.97681 -0.0583011 8.04266)
(8.91877 0.363304 -0.116493)
(8.17998 -0.35672 0.469161)
(9.68291 0.0263477 -0.22017)
(12.4867 0.214868 -0.755635)
(-0.426734 -0.59733 2.248)
(12.0897 0.261998 -1.29539)
(3.93469 0.225163 -5.14722)
(6.2949 0.0107193 1.71513)
(8.74493 0.42689 -0.745712)
(4.02502 -0.164218 0.512104)
(7.9792 0.203132 -3.02026)
(12.8919 -0.222179 -6.79599)
(1.55161 0.290631 1.09923)
(9.6495 -0.198774 0.0878546)
(9.70206 -0.59595 2.43884)
(9.57594 -0.0276242 0.942209)
(9.67965 -0.185157 0.00239993)
(12.7571 -1.02334 -3.78983)
(8.35213 -0.157093 0.510424)
(8.85031 0.317916 -0.910316)
(7.29493 0.32526 -2.77083)
(7.81172 0.153743 -4.57532)
(11.812 -0.015308 -0.00756788)
(10.3839 0.0672045 -2.61123)
(9.79246 -0.480274 -3.48026)
(11.248 0.264499 -1.51012)
(12.9378 0.168378 -1.24514)
(1.87884 -0.303695 -3.6405)
(12.9199 0.343073 -1.99426)
(13.2134 0.923733 -4.18502)
(7.02871 0.2899 1.56695)
(11.0338 0.193513 -4.09833)
(7.30203 0.0172671 -2.83072)
(9.56515 0.748305 -6.41673)
(7.71326 0.537465 -6.66522)
(7.87375 0.388762 -3.07041)
(9.39872 0.0866733 2.02593)
(8.2615 0.351027 -2.78034)
(9.05807 0.303667 1.78539)
(7.98503 0.162852 -4.44465)
(7.88235 0.382237 -2.71682)
(7.36851 0.581621 -0.70512)
(7.56986 0.38331 -2.45731)
(9.1961 0.266958 -0.808745)
(1.30012 -0.0622586 -1.43237)
(4.75089 0.45976 -3.3293)
(9.25266 0.362732 -0.382046)
(6.85099 0.107593 -8.81854)
(2.52117 0.045331 -6.92049)
(10.006 0.325942 -0.70592)
(9.93269 0.310015 -0.654941)
(8.77128 0.514499 -0.911609)
(7.80736 0.313676 -4.21639)
(8.92192 0.502777 -2.30502)
(8.62801 0.337951 -3.36189)
(13.214 0.609826 -2.17192)
(7.49819 0.620872 1.16565)
(10.7913 0.448139 -6.09204)
(8.57259 0.0991821 -4.07835)
(9.21326 0.469437 -3.20571)
(9.9361 0.416737 -3.12017)
(10.9405 0.258208 -2.59453)
(11.7263 0.295309 -2.29289)
(0.894241 0.429847 -5.91511)
(0.857185 0.0517511 -6.83039)
(1.70388 0.483342 -7.28956)
(7.6076 -0.662253 -8.53099)
(4.97699 0.856298 -8.31763)
(4.9838 0.200808 -2.2428)
(9.7626 0.149523 0.436599)
(8.73499 0.250147 0.343021)
(6.03661 0.0093008 -2.54268)
(5.59973 -0.0991941 -3.43962)
(7.901 0.554025 1.77972)
(3.86561 -0.046723 -3.86134)
(5.78691 0.302578 -0.679032)
(6.6697 -0.0458178 -5.00779)
(7.71869 -0.00192103 -2.70747)
(7.03108 0.124527 -2.75993)
(5.84335 0.719508 -2.41801)
(5.79441 -0.117342 -3.21595)
(6.3484 -0.0342736 -2.1546)
(5.05878 -0.424976 -3.09053)
(4.43476 -0.367739 -4.25939)
(5.07081 -0.26386 -5.03538)
(6.8615 0.420334 -2.49255)
(4.11637 -0.755169 -4.96212)
(4.24859 -0.489436 -3.28841)
(4.08198 -0.570129 -4.00429)
(12.4794 0.208584 -2.93226)
(8.84062 -0.274687 -2.14974)
(7.41116 0.389114 -2.4689)
(2.02562 0.375693 -1.13388)
(2.61826 0.102938 -5.67285)
(6.64169 0.224524 -0.835136)
(7.83973 0.190376 0.553927)
(9.05647 0.0720397 -0.0747831)
(11.0623 0.33009 -1.55359)
(4.84995 0.422553 -4.7672)
(10.2142 -2.71598 -3.76674)
(12.632 -0.186725 -0.69689)
(9.24535 0.349958 -1.32)
(8.48066 0.486111 -0.223931)
(10.2014 0.40586 -3.15212)
(12.9803 0.387545 -2.12179)
(7.87872 -0.0477106 -2.52322)
(2.19177 0.0608506 -3.98388)
(6.16248 0.306368 -4.75082)
(9.10907 0.305315 -3.0548)
(0.467311 -0.120818 -3.58636)
(10.3654 0.257461 -0.568721)
(0.68674 -0.899128 0.977301)
(9.98315 0.277019 0.506858)
(9.47234 0.328699 -0.284968)
(9.84511 0.428765 -3.96117)
(11.7614 0.256664 -3.3808)
(7.64596 -0.233592 0.58029)
(6.51836 0.233521 -2.84838)
(7.20422 0.324139 -3.10433)
(3.20293 0.404393 -6.35425)
(8.1176 0.302959 -2.96092)
(3.9257 0.496892 -5.25499)
(9.43958 0.444043 -2.3597)
(8.54899 0.199962 -2.28641)
(8.68053 0.502795 -0.28743)
(10.932 0.344454 -1.76194)
(7.47028 0.29534 0.210144)
(9.34227 0.327141 2.155)
(5.07514 0.36207 -11.7865)
(6.12307 -0.154092 -0.59144)
(9.18256 1.2453 -9.31847)
(2.77107 -0.576037 2.45882)
(9.57579 0.377437 -2.89507)
(9.06203 0.378495 -2.34279)
(6.4251 0.601798 -4.71429)
(8.15068 0.387888 -0.749884)
(1.23599 0.101169 -3.22379)
(10.7257 -0.394199 -3.20455)
(9.59561 0.272048 -0.574278)
(9.31349 0.233341 -0.368926)
(8.7252 0.401505 -1.93715)
(5.57856 0.232359 -2.4089)
(12.6586 -0.0271828 -0.12309)
(8.89849 0.255828 -1.19107)
(3.7139 0.0767989 -1.76187)
(7.86031 0.0824112 0.986054)
(6.79709 0.0492853 -3.21746)
(7.56373 0.298558 -3.51863)
(6.42218 0.179746 -3.09791)
(10.88 0.238457 -1.4837)
(12.8266 0.139283 -2.94066)
(11.8078 -0.0261337 -1.14972)
(7.86568 -0.268419 0.622966)
(12.8289 0.117095 -0.928779)
(1.45988 0.168411 -3.05699)
(1.4566 0.176943 -5.74783)
(9.43599 0.180706 -3.95171)
(9.01139 -0.108265 0.326648)
(12.5382 0.359489 -1.65827)
(11.2695 0.495201 -1.2893)
(3.65302 -0.241107 1.55675)
(10.425 -0.380241 0.481472)
(8.51998 -0.0821401 1.3586)
(11.4642 -0.334452 -3.71909)
(5.6758 0.188301 -0.870987)
(12.986 -0.230503 -1.13264)
(4.23959 -0.0701061 -3.04705)
(9.3107 0.00584278 -0.647541)
(10.5758 0.466987 -3.7178)
(5.77209 0.403876 -0.124897)
(11.0643 0.412508 -2.1316)
(11.9062 -0.105036 -0.122487)
(2.1068 -0.286699 -1.96099)
(9.46592 0.312529 -0.237615)
(7.01639 0.518162 2.32797)
(1.06756 0.168854 -6.46472)
(9.98915 0.512126 -3.40542)
(8.38555 0.478626 0.313974)
(7.78415 2.09357 -4.21095)
(3.94992 -0.490068 -8.15125)
(1.50159 0.61442 -5.82539)
(5.4244 1.10806 -0.947324)
(11.6991 0.627701 -5.11506)
(11.8355 -0.302591 -1.85132)
(0.94899 -0.366334 -0.200805)
(6.08558 -0.0139741 0.0973388)
(11.5779 0.402047 -3.14936)
(10.3079 0.537563 -5.50967)
(6.4472 1.06679 -12.2001)
(6.95525 -0.264865 -9.14678)
(1.5975 -0.210431 -6.01078)
(7.32233 0.203002 -2.32052)
(2.69994 -0.491716 -2.80276)
(2.14512 -0.721385 -4.74441)
(12.8774 0.129402 -0.835412)
(9.33145 0.19281 0.463983)
(5.9949 0.220879 -1.9993)
(5.77446 -0.125599 -0.947046)
(4.52215 0.164569 -0.284983)
(2.13062 0.0905372 -5.4988)
(12.9497 0.0920157 -7.76848)
(10.4762 0.187538 -1.40462)
(13.0346 0.268382 -1.91007)
(9.78023 0.287988 -3.18235)
(8.0969 0.292627 -4.87652)
(9.29075 0.195141 -0.955915)
(10.1099 0.389431 -4.05549)
(8.45326 0.317111 0.147131)
(9.44711 0.00876189 -1.10732)
(4.34361 -0.044731 8.27794)
(4.96049 0.356549 -0.29769)
(10.7318 -0.0274313 -0.444098)
(7.43179 -0.232532 0.146665)
(12.5519 -0.446584 -0.180563)
(9.0444 -0.273863 0.561731)
(13.0074 -0.185448 -4.42556)
(13.2625 -0.566656 -2.93485)
(3.92875 -0.489376 0.0805282)
(10.2447 -0.00422535 -6.15166)
(6.95575 0.00673652 -4.84763)
(9.23637 -0.0835153 -0.386173)
(7.76183 -0.170629 -1.61257)
(13.9205 -0.379746 -2.8138)
(9.38927 -0.139259 -0.0436795)
(5.13735 -0.0602875 -2.8486)
(10.1265 -0.0331119 -2.19058)
(9.78304 0.322499 -3.89496)
(10.0823 -0.0735122 -3.2721)
(0.960355 0.139325 -2.84975)
(5.8345 1.99721 -1.03122)
(6.11942 -0.349192 -4.69361)
(7.28135 0.0484575 -0.951267)
(7.57136 0.0393781 -4.25232)
(8.1392 -0.390115 1.75386)
(13.8473 -0.427766 -3.35446)
(11.45 1.57598 -5.11121)
(13.1641 -0.0634314 -0.986436)
(8.96209 -0.00397992 -1.90699)
(7.44591 -0.387433 -8.65938)
(13.0327 -0.599171 -5.79993)
(9.31278 -0.722589 4.92962)
(3.30483 -0.0582855 -3.73732)
(9.39595 0.24167 1.31012)
(12.8639 -0.443834 -2.61708)
(13.0198 -0.111583 -0.46077)
(7.10279 0.123225 -1.8836)
(10.0753 0.0269941 -0.738526)
(5.68957 0.103021 -4.77638)
(13.146 0.0586369 -0.888623)
(13.6327 -0.218589 -1.55426)
(9.59257 -0.224952 -1.27682)
(2.96712 -0.591201 -11.77)
(3.48049 -0.188114 -2.10591)
(4.47643 -0.337748 -4.30909)
(8.49537 0.123627 -3.03586)
(12.9777 -0.447693 -2.13879)
(4.1419 -0.197845 -1.3198)
(9.00369 -1.10049 -0.706787)
(11.3855 0.0187968 -1.9221)
(4.96728 -0.317323 -2.50788)
(8.03139 -0.0831749 -1.07034)
(9.74124 -0.156343 -0.458856)
(9.10032 0.0665445 -0.493943)
(9.3905 -0.056148 0.887577)
(9.25441 0.0573932 -0.29737)
(6.97444 0.419268 -3.72086)
(0.593247 0.430518 -0.741028)
(1.21579 0.504714 -0.292182)
(0.332355 0.139756 -0.536574)
(2.38101 -0.632427 0.577111)
(0.802861 0.225532 -0.542673)
(13.2203 -0.0486319 -0.757883)
(9.30046 -0.141031 -0.717953)
(9.33212 0.0134913 -2.77062)
(10.1697 0.235663 -0.356026)
(1.35946 0.0173397 -0.184302)
(2.68707 -0.307357 1.68756)
(1.74915 0.591047 3.54248)
(0.0519134 -0.0809215 0.66137)
(0.0406071 -0.143306 5.44254)
(0.415487 1.51849 1.10256)
(0.137938 1.41578 -0.0178986)
(-0.208198 0.319397 0.534259)
(4.40835 -0.314913 0.681581)
(5.37232 0.0372568 0.886797)
(3.85665 0.770543 0.691474)
(-0.117052 -0.809609 1.57237)
(12.7908 0.0132615 -0.210518)
(8.96323 -0.268133 0.648786)
(9.24406 -0.330681 -2.7496)
(9.4837 -0.0400258 -0.210042)
(13.6937 -0.582086 -0.938273)
(13.3792 -0.25029 -1.16072)
(13.0707 -0.727154 -1.84065)
(9.15377 0.378218 -5.40776)
(12.5747 0.18067 -2.52296)
(8.58319 -0.0892946 1.48888)
(8.49141 -0.256414 4.19939)
(11.4773 0.225684 -0.746584)
(11.3908 -0.0543035 -0.426791)
(9.45778 -0.183315 -0.946303)
(3.87148 0.85629 -6.76355)
(8.09652 0.232193 -1.15991)
(13.6663 0.729568 -2.96366)
(9.45997 0.00560647 -3.10893)
(5.11023 0.134472 -0.63374)
(7.68657 0.113564 1.15059)
(2.45038 0.265065 -3.98115)
(5.89971 0.00079556 0.653982)
(9.16471 -0.239811 -1.13141)
(13.2653 -0.189635 -2.0428)
(5.88737 0.302509 -2.64617)
(4.50503 0.713252 -2.4065)
(8.71558 0.589498 2.18043)
(8.87158 0.140316 1.68847)
(11.2201 0.134848 -5.12294)
(12.6745 0.407453 -0.571685)
(13.13 -0.314535 -1.87455)
(13.0526 0.113495 -0.677496)
(4.65928 0.185482 -0.671142)
(8.93942 0.218511 1.95789)
(8.05413 -0.022639 -0.665723)
(12.505 0.219267 -3.17801)
(9.38551 0.227436 3.01756)
(13.0205 -0.393341 -1.30422)
(7.9417 0.576871 -4.23508)
(9.19277 0.34265 -0.0957118)
(6.47456 -0.0051237 1.97178)
(9.7439 -0.0354182 -0.154054)
(10.531 0.321131 -0.694677)
(12.1889 0.00707725 -0.905517)
(7.87407 0.41985 -1.82537)
(9.82593 0.399838 -2.01659)
(6.37815 0.408466 -3.76853)
(5.77608 0.385157 -2.51555)
(8.31044 0.281202 -3.82869)
(9.35655 -0.049244 -1.01094)
(13.0127 -0.275523 -0.189421)
(9.80528 -0.049228 -0.0538047)
(8.11717 0.541599 -0.150329)
(9.81472 0.333058 -10.3071)
(3.95665 0.0305918 2.28902)
(4.7071 -0.296204 -2.36324)
(7.66321 -0.0306773 2.24279)
(6.79721 0.116972 0.529719)
(8.78307 0.105286 -3.20017)
(4.89719 -0.817962 0.212255)
(7.48388 0.0279979 -1.56111)
(9.52564 0.0299067 -0.390885)
(8.59731 -0.318131 0.773073)
(10.0016 -0.0641605 0.347869)
(10.0376 0.490758 -3.99163)
(7.79559 0.401092 -4.52447)
(6.45411 0.158464 0.294522)
(9.1106 -0.186883 1.02922)
(6.72321 -0.471391 -1.66449)
(9.05289 -0.254557 0.506582)
(9.74377 -0.339319 0.151421)
(9.77489 -0.23729 0.0284381)
(6.04827 0.404783 -2.14683)
(9.7097 0.403015 0.220488)
(13.4927 0.249407 -1.81422)
(12.2276 0.156479 -2.3064)
(8.99109 0.232751 -0.64355)
(8.67557 0.244112 -1.01595)
(5.85299 0.315931 -0.188938)
(9.52121 -0.128797 0.601861)
(4.41972 -0.945539 0.150964)
(8.86207 0.2545 -1.48355)
(8.35184 0.288694 -2.5466)
(10.3261 0.92614 -12.3286)
(1.2687 -0.411486 -4.72877)
(10.5869 0.192922 -0.627259)
(10.1072 -0.652808 -6.42349)
(11.0053 0.726634 -13.8972)
(4.71438 0.333628 -4.86539)
(10.2727 -0.38371 0.249761)
(8.98419 0.353941 1.45362)
(9.38413 0.199516 -0.292365)
(2.81499 0.101896 -0.0574246)
(11.2325 0.422915 -3.25222)
(9.76567 -0.339861 0.0676012)
(3.84975 0.630872 -8.04599)
(10.4773 -0.0569447 -0.402196)
(13.5289 -0.408951 -3.78708)
(13.1255 -0.419285 -4.01983)
(13.055 -0.240778 -0.052403)
(13.0325 -0.266299 -0.214295)
(12.5502 -0.112412 -0.0609135)
(9.8914 0.264317 0.249938)
(4.72974 -0.0769101 -3.47808)
(9.72989 0.294776 0.116926)
(8.7836 -0.264295 -1.89703)
(9.58688 -0.00261998 2.81352)
(8.17831 0.162556 -0.605447)
(10.8572 -0.363742 -2.46173)
(11.0718 0.0494232 -10.2163)
(11.6578 -0.283956 -3.04299)
(11.5115 -0.183857 -1.13275)
(11.1663 -0.217677 -0.413729)
(11.0249 -0.181373 -1.43802)
(9.84833 -0.159663 -0.582664)
(9.89413 -0.160813 -0.705204)
(12.1083 -0.48098 -4.03384)
(10.7717 -0.267155 -5.06151)
(11.6092 -0.156061 -2.79016)
(9.82081 -0.202794 -5.42974)
(9.75167 0.493833 -1.08537)
(7.58504 -0.69872 4.46508)
(6.74928 0.135075 3.88663)
(13.3144 0.266359 -1.12201)
(8.979 0.274176 0.142024)
(6.99495 0.708105 0.557645)
(9.65943 0.274269 -0.273575)
(12.4395 0.461126 -1.06199)
(7.50793 -0.892167 6.54304)
(5.07398 0.756081 -4.07651)
(10.3925 0.197272 -4.38306)
(10.1478 0.0487607 -11.5999)
(6.31934 0.186986 -1.58368)
(6.8043 0.138209 -4.97308)
(12.2299 0.213436 -5.00383)
(12.0507 0.217338 -8.36133)
(13.293 -0.22767 -0.920866)
(12.9816 -0.174114 -0.290962)
(12.6681 -0.219522 -0.206465)
(13.1388 0.136265 -1.57498)
(11.7984 0.00909228 -5.15086)
(12.9336 -0.443318 -5.4897)
(11.9473 -0.180767 -3.93472)
(13.0268 -0.215443 -3.57309)
(8.74466 0.575151 -4.08121)
(7.9618 -0.0791897 -4.5938)
(8.02087 -0.00810257 -5.41426)
(5.29494 -0.144263 1.23809)
(8.0094 0.211699 -1.81317)
(12.5086 0.0612483 -3.69041)
(9.07628 -0.210029 -1.02329)
(11.8302 0.307781 -0.464281)
(4.23856 -0.0866832 -1.77345)
(8.11624 -0.417724 -1.39972)
(3.95138 -0.669539 0.139659)
(5.63318 -0.034397 -2.17469)
(4.9814 0.181334 -4.57971)
(3.86336 0.254623 -5.54477)
(5.66894 0.450206 -8.79676)
(4.96394 -0.324619 -4.59663)
(10.8199 0.824338 -8.87234)
(8.63407 0.323261 0.219053)
(5.93772 -0.572932 0.566647)
(2.76519 0.303438 -7.89623)
(0.366635 0.387977 0.00112148)
(5.84864 -0.719919 -6.47103)
(1.53972 0.363108 -7.14866)
(5.39054 0.551138 -0.451856)
(6.8099 -0.0703005 -4.061)
(1.61594 -0.265465 -0.969949)
(1.464 -0.0195338 -2.82051)
(7.23264 -0.0306981 -4.37708)
(9.188 -0.22519 -1.27402)
(8.65155 0.174777 -1.19885)
(9.13446 0.224125 -2.96729)
(9.42123 0.0103902 -0.299066)
(13.0605 -0.182726 -2.47702)
(13.0932 -0.283151 -2.59101)
(12.9754 -0.486063 -6.02546)
(10.8689 -0.201072 -3.7028)
(12.0046 -0.00763125 -0.410821)
(11.8978 -0.0508 -0.802281)
(12.0824 -0.079347 -0.470287)
(12.6599 -0.0760766 -0.916352)
(6.6961 0.311392 -0.897429)
(8.75468 0.501138 -1.63764)
(6.69245 0.0831041 -0.296992)
(12.4122 0.173392 -1.43218)
(12.1341 -0.391843 -0.678253)
(12.623 0.0176177 -0.611343)
(12.7582 -0.0070788 -0.492261)
(12.6311 0.0199959 -0.438974)
(12.701 -0.00260247 -0.359028)
(12.8866 -0.317532 0.0587446)
(12.0094 0.332238 -6.36425)
(9.01132 0.132589 0.67895)
(8.87749 -0.292414 0.84448)
(1.91338 -0.102393 2.51985)
(9.04933 0.457009 -5.13022)
(6.79392 0.443562 -5.83162)
(5.3204 0.117183 -5.66786)
(7.31127 0.252113 -3.45673)
(12.7022 0.151994 -2.16198)
(4.56421 0.205886 -1.73119)
(10.4831 0.0620684 -1.05803)
(10.2479 0.137051 -1.3132)
(11.3536 0.00657599 -2.005)
(11.5985 -0.0860537 -2.2967)
(13.4871 0.124564 -4.3596)
(13.4798 0.119318 -5.65134)
(13.7373 0.272372 -3.52093)
(8.01072 -1.59515 -1.72477)
(8.14162 0.0892908 -2.01243)
(8.98403 0.0167975 -2.1304)
(9.67003 0.151756 -1.81023)
(9.89264 0.148533 -1.61299)
(9.7266 0.115962 -1.49955)
(13.5367 -0.139724 -1.11937)
(11.2586 -0.257065 -4.50661)
(10.9483 -0.200057 -3.92816)
(12.4915 -1.09745 -2.91291)
(10.2484 -0.146639 -1.31241)
(1.8369 -0.421731 -4.19087)
(11.9161 -0.341214 -2.73303)
(8.55265 -0.187552 -4.62745)
(8.66281 -0.214288 -1.98907)
(5.59295 0.203256 -2.65973)
(4.05865 0.0388824 -1.95418)
(4.26777 0.0864445 -8.01939)
(8.88421 -0.183526 -1.98813)
(8.94134 -0.178723 -1.52358)
(8.89041 -0.136771 -1.79663)
(2.97816 0.288062 -3.4531)
(12.5635 0.184927 -0.643101)
(13.1456 0.339289 -3.47056)
(6.69873 0.551082 -0.055906)
(4.28924 0.942997 -8.25523)
(8.64561 0.100415 0.00751682)
(11.0433 0.52187 -5.43198)
(6.61564 0.609265 -8.73937)
(10.0394 0.4081 -7.05107)
(2.79025 -0.00742365 -3.38135)
(7.2653 0.386089 -4.95176)
(7.66628 0.150779 1.83888)
(7.49685 -0.143857 2.37187)
(7.79844 0.144879 1.37551)
(9.25409 0.26066 -0.42466)
(9.58954 0.0934745 -0.152279)
(7.45545 0.149626 1.74646)
(6.43005 0.109061 -5.96674)
(5.38928 -0.0967237 -4.15893)
(3.7092 -0.488866 -6.25018)
(3.25253 -0.504788 -5.14821)
(6.45881 -0.478196 -4.02944)
(3.82831 -0.378557 -4.12854)
(7.55046 0.0723414 0.133292)
(8.43502 0.27218 -0.258818)
(8.13313 0.253357 -0.253788)
(9.16833 -0.190586 0.157775)
(9.80572 -0.290691 0.242363)
(9.10623 -0.150562 0.207538)
(9.46093 0.317549 -0.813566)
(9.60181 0.371841 -1.0722)
(9.35445 0.283302 -5.13365)
(10.3006 0.190864 -4.31387)
(11.672 0.254026 -2.66571)
(12.7149 -0.560627 -2.40999)
(12.8708 -0.101875 -1.47876)
(13.2733 -0.257365 -1.35609)
(9.2806 -0.0145288 -2.50689)
(9.9584 0.110409 -3.17307)
(10.1523 0.308146 -1.26459)
(8.66692 -0.176287 -1.66501)
(8.44577 -0.0883881 -2.89691)
(9.35902 0.0174962 -1.46233)
(9.94983 -0.0148777 -2.02349)
(4.33444 -0.0772028 -4.23112)
(9.74693 -0.0809505 -1.58968)
(8.66955 -0.162254 -1.36623)
(13.2563 -0.15897 -0.57089)
(13.4678 0.00762294 -0.845998)
(13.3159 -0.243207 -3.81117)
(12.9532 0.0290086 -2.86981)
(9.74074 0.163751 0.196008)
(12.1318 0.237216 -1.6995)
(5.40118 0.433188 -2.04369)
(8.85105 -0.252878 0.451194)
(7.38083 0.160083 -2.77417)
(8.32028 0.285219 -3.44044)
(5.84855 0.370362 -2.8304)
(7.65154 0.462403 -4.03076)
(6.53307 0.127543 -3.89655)
(8.07374 0.529159 -0.631097)
(8.30754 0.103451 -4.07987)
(7.44529 0.223641 -3.43812)
(5.96185 0.466473 -0.278071)
(9.17177 0.582152 -1.62196)
(4.56427 -0.115046 -1.6826)
(11.9473 0.325319 -0.717733)
(11.8837 0.333935 -1.0102)
(12.2217 0.305934 -0.779694)
(3.8415 -0.0993181 -2.35599)
(3.33984 0.172927 -2.77334)
(10.2289 -0.178904 1.09195)
(10.0046 -0.0777844 1.73645)
(10.5667 -0.257719 1.02105)
(4.90123 -0.121625 -1.10098)
(9.56758 0.380584 -4.22994)
(9.03437 0.326175 -3.57765)
(10.5479 1.45127 -8.54801)
(8.00478 0.422199 -3.89369)
(10.3493 0.0230959 1.79596)
(6.28736 -0.308159 -2.06563)
(9.10534 -0.193964 -0.117935)
(9.15823 0.0185487 0.228149)
(6.50467 -0.277933 -1.5117)
(10.9183 0.400728 -2.85624)
(11.9811 0.299231 -2.86755)
(9.25556 0.407144 -5.30025)
(5.9453 0.203297 0.657971)
(6.79106 0.310171 -0.153793)
(5.84816 -0.00400409 2.72024)
(7.67171 0.078114 0.221544)
(7.16077 0.12901 0.330122)
(5.40183 0.211439 0.434369)
(2.28572 0.777926 3.29231)
(4.36224 0.020011 0.33452)
(8.31068 0.20314 -2.22681)
(8.23786 0.239571 -0.381021)
(8.62598 0.160832 -0.853241)
(9.44673 -0.163051 -0.103278)
(9.47523 0.0523805 -0.0193294)
(6.45179 -0.267198 3.01306)
(6.9668 0.365112 -3.31057)
(7.38012 0.987688 -6.40397)
(5.27449 0.450273 -2.36239)
(6.52964 0.18074 -3.16898)
(9.09359 0.367203 -0.81916)
(9.0242 0.361292 -0.646281)
(9.03106 0.3201 -0.645046)
(12.3893 -0.065147 -0.127311)
(11.0373 0.505112 -1.38615)
(10.6408 0.42335 -1.51734)
(10.8798 0.361963 -1.66883)
(10.7534 0.346771 -0.923381)
(8.75643 0.455649 -1.7555)
(10.1063 0.469259 -1.72729)
(8.98851 0.0164486 -1.53941)
(10.7372 -0.123442 -1.58923)
(10.682 0.217316 -3.82628)
(10.4005 -0.729075 -5.46559)
(11.5138 -0.0271936 -0.366688)
(9.67881 0.207554 -1.0197)
(9.80368 0.248406 -1.50367)
(9.52482 0.290126 -1.15885)
(9.60834 0.177746 -1.83968)
(9.2361 0.0618449 -0.474848)
(7.60153 0.365269 -1.35953)
(7.96781 0.539718 -0.346329)
(4.79446 0.374843 -0.696483)
(4.14275 0.541774 -0.994521)
(4.34605 0.582999 -1.6154)
(7.26737 0.28356 0.11694)
(7.22749 0.531472 -0.918933)
(8.04062 0.374095 -0.453728)
(7.4588 0.58086 0.250852)
(8.25398 0.466856 -0.445087)
(8.39317 0.483443 -0.495267)
(9.29872 0.314767 -0.302682)
(9.18335 0.227092 -0.491778)
(9.4545 0.126974 -0.203845)
(6.37512 0.291208 -2.00618)
(9.64426 -0.052375 -0.618348)
(11.4823 0.245926 -1.63366)
(9.57862 0.113535 3.067)
(7.71737 0.46325 0.946061)
(9.92874 0.15794 -0.91482)
(6.72757 -0.0915496 -3.37092)
(11.2392 0.406024 -1.73471)
(9.9461 0.28515 0.51061)
(9.23814 0.13941 0.975345)
(9.30941 0.482847 -1.235)
(9.32623 0.305013 0.967828)
(9.55232 0.131065 0.818917)
(2.46384 0.365069 -0.185046)
(9.6757 0.128441 1.08531)
(8.88574 0.106555 1.1081)
(8.8603 0.179569 1.57448)
(9.87897 0.491786 -0.728569)
(9.72737 0.478416 -0.824301)
(9.79399 0.495585 -1.00772)
(9.55612 -0.0250205 -0.154416)
(9.23209 0.00505826 -0.0353067)
(9.2563 0.0784482 -0.181634)
(9.24137 0.114751 -0.269439)
(9.32246 0.116113 -0.225774)
(12.2753 0.43595 -1.2408)
(12.3633 0.346535 -0.746607)
(5.13666 0.265041 0.112544)
(5.39506 0.297257 1.59856)
(11.2639 -0.0923642 -0.475794)
(11.676 0.36344 -2.08677)
(8.27872 0.325265 -0.651716)
(11.7227 0.378132 -2.00153)
(11.428 0.348486 -0.914221)
(8.04466 0.367295 -2.3953)
(4.19791 0.309515 -4.86466)
(7.96749 0.341462 -3.21455)
(4.64175 0.493567 -6.4107)
(10.7943 0.514492 -5.62228)
(7.31801 0.479833 -2.86209)
(3.8413 -0.46239 0.206643)
(9.05687 0.0704495 0.378457)
(7.9327 0.369802 -0.244816)
(4.78836 -0.0608671 0.263916)
(11.2971 0.0463126 -0.3444)
(8.61339 0.0937043 -0.314556)
(13.7204 -0.138808 -2.01587)
(2.2806 -0.391656 -0.61433)
(8.89623 0.393209 -0.811225)
(8.63358 0.212826 -0.516037)
(5.70497 0.305896 0.832405)
(9.8755 0.266876 -0.28182)
(12.8595 0.118959 -5.60019)
(6.68831 -0.343306 -3.19481)
(6.31137 -0.224111 -1.47268)
(9.28879 0.269336 0.139816)
(8.83587 0.533029 -0.549572)
(8.53435 0.312291 0.628525)
(9.25544 0.421251 -1.74539)
(10.955 0.218478 -0.427904)
(9.90879 0.393297 -0.925925)
(10.1474 0.494067 -1.91899)
(9.56442 0.353203 -0.653985)
(9.46892 0.321607 -0.943232)
(12.34 -0.0997089 -4.72302)
(12.9692 -0.0266674 -1.1186)
(11.2331 0.371677 -1.67949)
(12.9013 0.284495 -0.676422)
(9.19924 -0.0358265 -0.522157)
(7.943 0.011884 -1.80314)
(7.00891 0.218289 -3.24333)
(11.5029 -0.00568371 -0.170729)
(12.1655 0.211751 -0.971724)
(8.02634 0.551425 0.421524)
(10.7356 0.334917 -1.73669)
(8.60554 0.46495 -3.87506)
(2.39821 0.225323 -12.8133)
(5.41771 0.34409 -0.342603)
(12.9371 -0.0283167 -2.01287)
(11.1807 0.134498 -1.1082)
(6.26824 0.455178 -1.24158)
(9.84479 0.465118 -1.24569)
(12.9705 -0.367968 -0.569161)
(10.3416 0.553653 -2.23486)
(9.79 0.0096969 -0.723655)
(9.60639 0.347183 -4.16876)
(9.64056 0.364786 -1.25819)
(9.16565 0.255918 0.220204)
(7.97939 -0.060356 -0.16187)
(9.65771 0.142837 2.07209)
(7.89314 0.0286111 0.885942)
(3.74693 0.210672 -4.38806)
(3.79602 0.562091 -1.76102)
(12.0737 0.990022 -8.21604)
(9.82358 -0.309766 0.159697)
(7.0929 0.148822 2.9031)
(8.31042 0.0844221 -2.32324)
(12.3769 -0.0401407 -0.733162)
(11.2389 -2.86622 -5.58515)
(13.4463 0.415903 -2.77596)
(6.60298 -0.369906 -0.218857)
(9.23526 0.194287 -0.433859)
(9.3965 0.161521 -0.317574)
(6.00208 -0.278066 -0.0350053)
(0.480448 -0.369471 -0.677668)
(2.52914 0.126023 -1.81337)
(8.40423 0.00970546 -3.57253)
(9.31956 0.148364 -0.367562)
(11.3764 0.0467337 -1.31982)
(9.27452 0.143433 -0.413543)
(5.16162 0.72031 -12.6527)
(8.09715 0.4 -1.79765)
(9.66538 0.0914953 -0.20612)
(12.2335 0.299363 -0.986466)
(9.06868 0.569758 -2.87473)
(10.0292 0.246571 -1.65399)
(9.76637 0.0758519 -0.0420068)
(12.9424 -0.277216 -4.12781)
(10.7698 -0.0599679 -0.457907)
(12.7251 0.239387 -2.17058)
(13.4546 0.209888 -2.15948)
(10.9292 0.157396 -1.55122)
(13.0894 -0.24892 -5.71449)
(13.1305 -0.0943132 -0.53035)
(7.76455 0.396466 0.298373)
(9.0593 -0.607848 -9.12429)
(4.9231 0.578557 -5.68618)
(8.02828 0.44334 -1.52111)
(1.69992 -0.455957 -3.50731)
(0.984929 -0.275679 -4.77998)
(8.74137 0.181407 -1.70216)
(1.69586 0.90757 -7.58305)
(8.74864 0.44443 -0.892051)
(9.48065 0.267848 -1.28947)
(10.2909 0.321856 -2.22026)
(6.19416 0.587454 -4.49299)
(6.79529 -0.142794 -0.440613)
(7.41329 0.0984164 1.88159)
(8.33197 0.317032 -0.255418)
(10.6451 1.01833 -2.40389)
(2.3434 0.635041 -7.2438)
(0.931882 -0.178995 -3.37163)
(4.75462 0.240732 -2.64539)
(1.12253 0.457258 -3.64763)
(11.1702 0.199179 -4.25497)
(8.23317 0.248608 -1.09512)
(9.34958 0.193004 -4.0649)
(9.19787 0.179536 -2.83085)
(7.91296 0.293472 -2.13805)
(13.7721 0.167969 -3.254)
(6.36817 -0.227561 -4.90718)
(2.31922 -0.0469571 -3.87354)
(8.82939 0.139161 1.40577)
(8.32989 0.025194 -0.420558)
(12.4636 -0.486848 -3.81166)
(12.8139 0.355512 -1.3481)
(6.74098 -0.0763181 -3.91918)
(11.3085 -0.0892466 -0.0587978)
(6.32149 -0.395962 -0.907229)
(9.40535 0.373336 -3.822)
(10.3336 -0.0384995 -0.31462)
(9.83623 0.139253 -0.0949373)
(9.53498 0.204525 -0.493146)
(11.4454 0.239649 -1.6521)
(9.81816 0.206861 -0.185674)
(13.2505 0.457199 -2.14597)
(9.25826 -0.0752212 0.239964)
(9.49316 0.0619453 8.45422)
(7.70137 0.164849 -1.55773)
(9.30368 0.0631756 -0.645906)
(12.7821 0.246744 -2.21662)
(6.67311 1.25469 3.79004)
(0.74524 0.261581 -5.07943)
(8.67518 0.0546558 -5.23153)
(5.67396 -0.119444 -0.0627012)
(12.9144 -0.148552 -0.319881)
(10.3602 -0.203157 -1.41157)
(11.5672 -0.234527 -1.23056)
(9.92291 0.235294 -2.15095)
(9.28564 -0.524585 -3.41924)
(12.2278 -0.127731 -0.218741)
(9.32689 -0.138593 -3.48786)
(4.09921 5.60406 0.385499)
(9.29196 -0.0742926 -0.136611)
(9.84666 0.0155941 -0.199544)
(9.50668 -0.15725 0.550776)
(8.08031 -0.317524 -3.5013)
(8.27583 -0.402058 -0.236436)
(3.33143 -0.246756 0.959653)
(9.98176 -0.32235 7.53557)
(10.7131 -0.142884 -4.709)
(10.2402 -0.371513 0.271696)
(8.64492 0.0138943 1.04427)
(12.2873 -0.0444602 -0.733757)
(3.64808 0.136052 -3.06137)
(9.75325 -0.111829 -0.980579)
(8.71321 -0.066221 -1.66882)
(9.68284 0.0218204 -7.43031)
(3.48345 0.232297 -1.56184)
(4.18652 -0.151982 -5.20233)
(11.6248 -0.481034 -4.51551)
(11.4528 0.172992 -4.51745)
(7.25791 -0.114775 -3.58718)
(-0.343494 4.07831 -1.90137)
(13.8644 -0.196013 -3.64669)
(11.1283 -0.0367751 -1.28124)
(12.2757 -0.178233 -1.51626)
(11.0604 0.218021 -4.92866)
(9.45298 0.0661549 -1.13375)
(4.40944 -0.80149 -0.196546)
(10.9867 -1.77764 -7.72375)
(9.73832 -0.230631 0.0368867)
(9.21316 -0.218442 -0.179288)
(9.51078 -0.120983 0.4083)
(8.94209 0.00259681 -0.261354)
(8.38377 0.00672164 0.108785)
(9.77823 -0.362151 0.207101)
(7.24142 0.137564 -1.59372)
(8.54524 -0.0126593 2.10021)
(13.284 0.568859 -2.74721)
(1.63564 0.470254 -9.3396)
(8.62922 0.373034 6.09513)
(12.1825 -0.0115368 -4.38533)
(9.15266 -0.346883 -1.40406)
(7.35602 0.07035 -3.78635)
(4.41171 -0.910704 -8.09571)
(4.992 -0.14336 -6.10197)
(2.42819 -1.18554 -7.5829)
(9.65926 -1.04434 4.15418)
(10.8036 -0.200156 2.2728)
(8.87207 0.160251 0.885496)
(13.5186 0.139026 -2.29275)
(13.6532 -0.101152 -3.66252)
(12.6198 -0.144409 -3.07715)
(10.3975 -0.0384399 -3.88232)
(6.87903 -0.187251 -0.686391)
(5.37128 -0.140089 -2.80198)
(10.9409 -0.494105 -3.70893)
(13.8084 -0.0951635 -3.30671)
(8.0044 -0.147106 1.16374)
(1.34761 -0.0844295 -6.25746)
(12.7554 -0.0719085 -3.38606)
(12.7233 -0.338336 -3.38481)
(6.47777 -0.272143 -3.92831)
(8.8505 -0.103613 -1.18391)
(13.2205 0.00471761 -0.871386)
(11.3255 0.253346 -0.653122)
(8.9841 -0.356454 1.43464)
(13.4346 -0.460362 -0.52124)
(13.1529 -0.0762848 -0.646268)
(7.77058 -0.0857823 -2.3535)
(12.0997 -0.171025 -1.80291)
(7.92589 -0.046328 -1.60851)
(12.3125 -0.404057 -2.75485)
(12.9007 -0.222484 0.200559)
(10.6894 -0.56497 -5.90269)
(11.5433 -0.100647 -1.85716)
(9.64016 0.0465117 -0.256721)
(8.79515 0.176919 -1.41237)
(10.5142 -0.0559797 -0.419114)
(10.6829 -0.918503 -7.65858)
(6.69689 -0.244958 -2.82317)
(12.2888 -0.828214 -2.50755)
(7.11494 0.133733 -0.283705)
(3.12456 0.229909 8.29097)
(5.91205 -0.0555219 7.73108)
(7.82021 -0.641067 -4.95388)
(11.1214 -0.173632 -1.64361)
(10.5397 -0.244085 -1.85545)
(13.2463 -0.382642 -0.157236)
(10.9978 0.419575 -5.2565)
(9.86679 -0.106809 0.0409106)
(9.93117 -0.148545 -0.841247)
(8.2751 -0.348043 -9.18728)
(8.84245 -0.154236 0.47395)
(10.9567 0.320561 -3.48695)
(12.259 0.332454 -2.35014)
(10.2465 0.450899 -0.431234)
(11.6717 0.399062 -1.02646)
(11.0521 -1.88946 -3.80203)
(12.5694 0.264479 -2.05312)
(11.2617 0.372432 -2.25429)
(11.4416 0.361873 -1.46424)
(12.1785 0.21657 -4.06615)
(12.9559 -0.230457 -0.741852)
(12.0833 -0.359814 0.0536138)
(13.183 -0.0867511 -0.274398)
(12.9022 -0.401961 -0.436187)
(8.09328 -0.212781 -1.0327)
(8.96171 -0.0145178 0.772261)
(12.0008 0.195115 -2.35459)
(4.52576 0.947116 -0.252478)