/*--------------------------------*- C++ -*----------------------------------*\
| =========                 |                                                 |
| \\      /  F ield         | OpenFOAM: The Open Source CFD Toolbox           |
|  \\    /   O peration     | Version:  2506                                  |
|   \\  /    A nd           | Website:  www.openfoam.com                      |
|    \\/     M anipulation  |                                                 |
\*---------------------------------------------------------------------------*/
FoamFile
{
    version     2.0;
    format      ascii;
    arch        "LSB;label=32;scalar=64";
    class       volScalarField;
    location    "0.0321319";
    object      k;
}
// * * * * * * * * * * * * * * * * * * * * * * * * * * * * * * * * * * * * * //

dimensions      [0 2 -2 0 0 0 0];

internalField   nonuniform List<scalar> 
3989
(
0.366994
0.366042
0.347586
0.354803
0.356301
0.354785
0.357571
0.346056
0.364288
0.344729
0.378621
0.355407
0.372364
0.364588
0.354048
0.365757
0.368814
0.350479
0.354451
0.35564
0.381853
0.351901
0.347704
0.34689
0.357861
0.349931
0.370762
0.36301
0.359551
0.365031
0.3605
0.353229
0.361806
0.366295
0.377332
0.365301
0.361026
0.349456
0.35584
0.352512
0.347979
0.358847
0.365524
0.360963
0.370336
0.362782
0.357069
0.37575
0.369455
0.350568
0.346033
0.363545
0.36127
0.365805
0.346936
0.358444
0.358714
0.344842
0.375617
0.355088
0.347074
0.385113
0.587525
0.77079
0.360559
0.371311
0.346994
0.35161
0.343532
0.340571
0.385584
0.354674
0.350564
0.350394
0.35216
0.353076
0.350778
0.351736
0.357072
0.350068
0.354425
0.362348
0.352912
0.351177
0.35801
0.385733
0.357256
0.364866
0.346341
0.358954
0.355076
0.35655
0.364804
0.35047
0.353696
0.356407
0.351844
0.347904
0.353313
0.341811
0.357259
0.357465
0.363266
0.377867
0.346704
0.369636
0.349197
0.351954
0.358141
0.371139
0.3424
0.352852
0.367974
0.37051
0.357124
0.368975
0.362627
0.345024
0.363537
0.375701
0.363115
0.365838
0.351072
0.363026
0.367538
0.352199
0.35437
0.349506
0.374877
0.349701
0.360839
0.379408
0.369658
0.382544
0.375922
0.386719
0.355087
0.355597
0.361509
0.352829
0.360272
0.358545
0.337281
0.368627
0.363936
0.387016
0.350634
0.337319
0.350132
0.343254
0.345365
0.367401
0.359757
0.370962
0.399476
0.385708
0.346135
0.341899
0.350187
0.37699
0.366915
0.349581
0.361421
0.374166
0.374595
0.36737
0.34715
0.363832
0.356881
0.335749
0.345779
0.361818
0.387265
0.347333
0.357378
0.348034
0.355664
0.350553
0.37527
0.348684
0.376823
0.351401
0.365612
0.35523
0.382793
0.349859
0.356661
0.354754
0.353011
0.366962
0.344899
0.35572
0.359225
0.39892
0.34941
0.414159
0.787736
0.372113
0.351808
0.357216
0.379291
0.363739
0.388412
0.361011
0.379543
0.359801
0.356354
0.361397
0.404915
0.41096
0.356265
0.433429
0.434105
0.344286
0.345689
0.785501
0.429199
0.36824
0.377048
0.358854
0.348337
0.347077
0.361358
0.356117
0.380504
0.346342
0.348135
0.355503
0.371638
0.350089
0.374571
0.382137
0.357599
0.358193
0.363165
0.400359
0.389359
0.353755
0.354161
0.344011
0.364873
0.361833
0.363094
0.38807
0.379265
0.362189
0.377994
0.362003
0.359227
0.355433
0.378549
0.355717
0.365369
0.361473
0.373084
0.355608
0.374326
0.368651
0.352356
0.355431
0.342319
0.348176
0.352932
0.344885
0.353736
0.370447
0.354175
0.415424
0.38459
0.376912
0.374665
0.37566
0.375302
0.348614
0.3724
0.34472
0.393286
0.379794
0.346101
0.37807
0.348294
0.351752
0.36325
0.351874
0.349192
0.346878
0.352866
0.386955
0.379991
0.380648
0.375143
0.375307
0.380687
0.339642
0.351875
0.360725
0.35141
0.359162
0.494259
0.435904
0.341191
0.392835
0.379892
0.38484
0.383084
0.414085
0.34614
0.35902
0.357201
0.364707
0.348115
0.348172
0.435511
0.476038
0.360928
0.374885
0.355421
0.341123
0.344724
0.343646
0.354351
0.349166
0.343995
0.351728
0.358272
0.381358
0.366753
0.375164
0.368534
0.347717
0.351156
0.356933
0.384892
0.346879
0.35946
0.349142
0.341525
0.353872
0.37508
0.363651
0.432216
0.351747
0.348752
0.345109
0.351199
0.369467
0.585876
0.369879
0.346448
0.349235
0.354194
0.345682
0.34647
0.344775
0.345166
0.370546
0.354995
0.343907
0.885384
0.34682
0.339722
0.36979
0.358972
0.627326
0.435675
0.361668
0.351513
0.351736
0.347265
0.352286
0.350394
0.34485
0.387305
0.362426
0.340806
0.35493
0.342766
0.356052
0.341825
0.347052
0.375734
0.361146
0.354422
0.374389
0.367602
0.364719
0.347179
0.399824
0.351572
0.383242
0.355559
0.370405
0.361444
0.378376
0.362614
0.347456
0.360233
0.377688
0.376495
0.341838
0.347088
0.346027
0.363694
0.376248
0.358449
0.346185
0.346878
0.489344
0.345879
0.386968
0.344896
0.416794
0.36625
0.862584
0.35688
0.464443
0.356521
0.358674
0.353654
0.344529
0.830434
0.375216
0.377502
0.763271
0.343335
0.352458
0.354965
0.505114
0.369893
0.359119
0.341868
0.344211
0.348609
0.34218
0.573573
0.352679
0.364648
0.374303
0.35787
0.349426
0.35282
0.373341
0.365096
0.375715
0.359006
0.355956
0.356472
0.351647
0.381813
0.361984
0.352382
0.346199
0.348514
0.344246
0.403453
0.346136
0.379113
0.364236
0.347083
0.35026
0.343448
0.358443
0.382531
0.364386
0.380989
0.362753
0.371803
0.387062
0.392341
0.356259
0.366927
0.383255
0.360656
0.379679
0.346633
0.362879
0.360246
0.398132
0.389913
0.373174
0.381152
0.355728
0.357675
0.351287
0.348844
0.369913
0.362014
0.382527
0.351544
0.343855
0.382885
0.345202
0.36872
0.349138
0.351476
0.350352
0.343535
0.346298
0.357868
0.355549
0.35385
0.351514
0.343527
0.339954
0.357576
0.38259
0.36783
0.351953
0.359598
0.373849
0.344878
0.395277
0.392082
0.347528
0.34881
0.384811
0.358722
0.341283
0.371417
0.341464
0.342975
0.341838
0.368433
0.359616
0.372461
0.346811
0.353355
0.361796
0.347114
0.345344
0.36388
0.348095
0.377651
0.354319
0.344417
0.351376
0.363921
0.345764
0.362619
0.351052
0.356473
0.350545
0.374999
1.03707
0.922815
0.352021
0.359633
0.353999
0.355159
0.348737
0.348831
0.348619
0.366402
0.362457
0.344872
0.344171
0.352411
0.33898
0.352544
0.346709
0.364775
0.393054
0.341126
0.362014
0.345578
0.344808
0.361436
0.365496
0.343371
0.344412
0.34183
0.351574
0.369342
0.460111
0.351858
0.345508
0.345972
0.34409
0.352856
0.384396
0.343383
0.343978
0.346118
0.396374
0.36657
0.351159
0.344149
0.345138
0.356102
0.353882
0.346649
0.35256
0.349668
0.688276
0.789593
0.379864
0.369448
0.367273
0.365089
0.372781
0.353494
0.362212
0.347332
0.351496
0.344784
0.361243
0.346352
0.352111
0.341766
0.369406
0.367494
0.375384
0.36735
0.345959
0.350381
0.3466
0.355686
0.367116
0.349611
0.375556
0.359193
0.342902
0.342621
0.351377
0.346752
0.354381
0.351237
0.351717
0.371573
0.380695
0.367236
0.35795
0.359896
0.352531
0.369159
0.3572
0.368515
0.351029
0.3595
0.369859
0.349524
0.371219
0.342654
0.35151
0.362672
0.347594
0.359104
0.362665
0.377702
0.354643
0.355924
0.345488
0.346344
0.351018
0.369635
0.358855
0.368748
0.349935
0.357351
0.355752
0.367427
0.371905
0.342796
0.365051
0.357108
0.354242
0.359737
0.359716
0.383016
0.347052
0.352787
0.352794
0.371915
0.346873
0.348757
0.3529
0.37009
0.359373
0.381339
0.368242
0.370285
0.355068
0.358487
0.354705
0.355338
0.355375
0.351342
0.369838
0.360037
0.365243
0.357789
0.353212
0.357609
0.370614
0.365696
0.346053
0.370438
0.357193
0.347383
0.346967
0.384731
0.349172
0.378988
0.343975
0.365184
0.35196
0.34754
0.365927
0.344428
0.364167
0.363402
0.376499
0.353932
0.355194
0.35583
0.39638
0.349034
0.345806
0.391546
0.348654
0.370616
0.344546
0.368611
0.363875
0.359024
0.372338
0.34149
0.360489
0.355611
0.356758
0.380734
0.349842
0.348378
0.35043
0.355299
0.355753
0.354586
0.345176
0.355301
0.345147
0.356404
0.344666
0.374368
0.365626
0.557924
0.351947
0.345383
0.536025
0.34643
0.37918
0.363315
0.342532
0.344094
0.366943
0.596308
0.799972
0.870864
0.371725
0.347664
0.345442
0.348851
0.348265
0.347029
0.363459
0.361095
0.369641
0.342448
0.348282
0.374769
0.363565
0.356993
0.364829
0.372104
0.352724
0.35047
0.382389
0.372121
0.350309
0.373318
0.371081
0.347429
0.349627
0.356441
0.345287
0.360522
0.352612
0.341396
0.350921
0.345246
0.367601
0.34807
0.343211
0.36767
0.374887
0.345727
0.346111
0.350827
0.355394
0.366259
0.353037
0.380531
0.379651
0.370259
0.3703
0.345789
0.345888
0.350466
0.3472
0.336652
0.337644
0.343391
0.342443
0.353989
0.35773
0.363583
0.400464
0.422518
0.412369
0.415526
0.357545
0.357535
0.366623
0.351266
0.353496
0.379258
0.405482
0.33932
0.359863
0.343952
0.371011
0.34681
0.367588
0.345434
0.346845
0.350634
0.350963
0.340475
0.347091
0.358019
0.346924
0.350021
0.35468
0.489544
0.413454
0.355093
0.348247
0.345947
0.385803
0.369229
0.345107
0.349805
0.352247
0.385418
0.357681
0.340234
0.343339
0.352732
0.354394
0.34056
0.370903
0.341438
0.343518
0.355759
0.352371
0.342725
0.35067
0.349124
0.64014
0.465542
0.343076
0.359699
0.45939
0.356814
0.415292
0.464434
0.349872
0.368184
0.355504
0.385345
0.375847
0.348283
0.680964
0.342102
0.349888
0.502792
0.378923
0.342277
0.349714
0.353537
0.357132
0.360454
0.34739
0.344092
0.345022
0.35182
0.346823
0.353728
0.39363
0.338608
0.342647
0.471813
0.344191
0.430743
0.348004
0.348476
0.42516
0.792266
0.554856
0.731095
0.853758
0.559408
0.364024
0.369479
0.355678
0.998563
0.814151
0.35503
0.406091
0.381833
0.786351
0.41081
0.443294
0.349984
0.363926
0.362422
0.350557
0.347591
0.355558
0.358494
0.356098
0.464736
0.356739
0.360642
0.355006
0.35181
0.340599
0.359097
0.374509
0.357876
0.381291
0.722248
0.806858
0.371905
0.392075
0.360918
0.482383
0.346362
0.347062
0.380285
0.361848
0.354407
0.339972
0.363481
0.384737
0.415719
0.359693
0.341614
0.342733
0.350255
0.363242
0.354415
0.344551
0.345173
0.355793
0.358514
0.35105
0.351795
0.348877
0.382506
0.368971
0.346855
0.337519
0.347611
0.360828
0.368541
0.424903
0.36022
0.369057
0.369181
0.344761
0.345028
0.356856
0.363995
0.343931
0.3389
0.372209
0.349994
0.347502
0.370077
0.345766
0.350867
0.343998
0.349977
0.35534
0.345446
0.389951
0.343841
0.348611
0.369159
0.35701
0.350294
0.343384
0.356413
0.343326
0.385334
0.35775
0.356106
0.351077
0.347836
0.341291
0.343784
0.355321
0.349441
0.376523
0.353431
0.359072
0.354797
0.343337
0.370202
0.347277
0.346797
0.341427
0.345131
0.345864
0.346648
0.345711
0.347065
0.357162
0.353086
0.354774
0.356056
0.348607
0.354146
0.345588
0.358395
0.376937
0.354509
0.352507
0.340313
0.348926
0.353694
0.355483
0.35507
0.351918
0.353683
0.363153
0.366831
0.373163
0.374598
0.34569
0.378643
0.371103
0.349071
0.350932
0.370571
0.346365
0.34124
0.34635
0.342892
0.344131
0.395159
0.385709
0.347745
0.349947
0.356118
0.343119
0.352114
0.356593
0.347728
0.347188
0.355468
0.354835
0.359208
0.345941
0.345062
0.352228
0.348344
0.348084
0.380697
0.375884
0.47599
0.454771
0.376212
0.344075
0.344882
0.346993
0.352594
0.347443
0.353177
0.360561
0.351817
0.359668
0.345148
0.346838
0.344258
0.344017
0.353788
0.354944
0.356939
0.348745
0.348576
0.349134
0.346468
0.851634
0.34924
0.358176
0.370302
0.348865
0.345693
0.357079
0.341412
0.391845
0.35469
0.34973
0.34662
0.35045
0.349002
0.341559
0.384162
0.34198
0.348643
0.364293
0.491298
0.398013
0.350833
0.352997
0.351056
0.459023
0.496541
0.501903
0.410099
0.38145
0.421449
0.350457
0.348515
0.355027
0.360639
0.34589
0.376069
0.382928
0.34581
0.366695
0.345072
0.387844
0.359911
0.361877
0.346548
0.348561
0.349056
0.36463
0.381574
0.361142
0.353582
0.351686
0.349192
0.354719
0.347463
0.351909
0.381833
0.355072
0.345998
0.348435
0.35081
0.346187
0.360892
0.361934
0.364807
0.353698
0.421216
0.343168
0.357737
0.352282
0.346278
0.34782
0.35063
0.361282
0.355629
0.354868
0.357356
0.339419
0.349046
0.34894
0.350843
0.346217
0.345595
0.341108
0.364925
0.365908
0.354077
0.349833
0.368275
0.356882
0.357933
0.358188
0.372087
0.343628
0.352159
0.355182
0.353929
0.350974
0.3685
0.369102
0.345714
0.358011
0.351663
0.367906
0.343555
0.356602
0.367988
0.368496
0.363959
0.367339
0.350047
0.353441
0.350959
0.365174
0.371949
0.349571
0.350389
0.346124
0.350979
0.356996
0.353707
0.354998
0.352427
0.358611
0.35104
0.351565
0.353936
0.369333
0.350556
0.349751
0.34457
0.36041
0.345695
0.356298
0.367077
0.345741
0.345757
0.344017
0.343429
0.345378
0.361412
0.373913
0.355774
0.392515
0.374732
0.347508
0.342853
0.373106
0.382939
0.359494
0.368422
0.394488
0.369145
0.374473
0.356634
0.368501
0.38954
0.368971
0.363548
0.3569
0.376978
0.356908
0.388718
0.365209
0.364618
0.340443
0.359296
0.368943
0.353821
0.36326
0.360859
0.362957
0.406795
0.415729
0.368945
0.347951
0.347217
0.35613
0.356868
0.369399
0.372386
0.350589
0.384803
0.342251
0.357078
0.358714
0.366399
0.345794
0.378888
0.352738
0.36846
0.349072
0.363124
0.369163
0.367625
0.376249
0.361162
0.353079
0.362375
0.342452
0.375273
0.344429
0.35042
0.369982
0.35103
0.370652
0.348919
0.346394
0.364913
0.346834
0.345866
0.355353
0.356393
0.354936
0.353721
0.358783
0.355985
0.346098
0.346886
0.37666
0.35576
0.349648
0.348713
0.363356
0.373142
0.37788
0.374335
0.363336
0.360625
0.352598
0.398372
0.380339
0.361624
0.356797
0.346247
0.349601
0.34803
0.370435
0.362769
0.34288
0.408153
0.351226
0.366386
0.67104
0.337725
0.498425
0.807109
0.367142
0.34247
0.370003
0.347071
0.350604
0.356535
0.351115
0.351522
0.345462
0.360861
0.369016
0.371046
0.350249
0.354054
0.355865
0.358545
0.348514
0.3526
0.368905
0.35393
0.363121
0.369582
0.352539
0.365033
0.350771
0.346531
0.345336
0.371498
0.346458
0.370135
0.364653
0.354385
0.362624
0.355767
0.354721
0.354172
0.37066
0.372024
0.3573
0.374191
0.35057
0.355867
0.354571
0.37076
0.350708
0.362172
0.354225
0.35345
0.353843
0.343803
0.354987
0.368745
0.355313
0.368463
0.364647
0.353134
0.347703
0.355714
0.348613
0.344642
0.345047
0.354915
0.343479
0.351736
0.347193
0.354917
0.360492
0.369116
0.395732
0.34677
0.357143
0.362228
0.346577
0.343297
0.353083
0.346889
0.349639
0.370356
0.347147
0.351423
0.341363
0.354879
0.35331
0.868093
0.793689
0.860475
0.772701
0.886653
0.555086
0.347573
0.357693
0.350186
0.373347
0.358709
0.364216
0.3512
0.351736
0.358113
0.389487
0.34845
0.473059
0.394705
0.383789
0.346489
0.35239
0.571363
0.349522
0.352796
0.371613
0.341935
0.347879
0.360949
0.363554
0.349712
0.372171
0.353159
0.339348
0.344583
0.354382
0.342894
0.346547
0.36201
0.381285
0.348252
0.522563
0.341651
0.404084
0.365012
0.357999
0.373524
0.343701
0.37592
0.388438
0.342865
0.346226
0.463893
0.352376
0.643175
0.363282
0.347316
0.359027
0.350594
0.383505
0.374698
0.353144
0.349166
0.349273
0.353493
0.377932
0.350971
0.353666
0.348058
0.381476
0.347023
0.349954
0.376564
0.373417
0.36152
0.346261
0.345095
0.552904
0.354384
0.754159
0.739349
0.352526
0.350372
0.369186
0.361381
0.356435
0.342658
0.354217
0.343342
0.346695
0.382951
0.364338
0.347441
0.343385
0.369269
0.341251
0.358407
0.373724
0.381946
0.343693
0.345493
0.354906
0.368797
0.370502
0.349481
0.368617
0.351526
0.374827
0.34482
0.354557
0.34335
0.375459
0.34829
0.354491
0.510016
0.388169
0.349521
0.390857
0.359027
0.350747
0.342324
0.345422
0.361302
0.371458
0.351944
0.344262
0.375375
0.366409
0.353026
0.34575
0.344445
0.411596
0.338795
0.712171
0.901514
0.365341
0.347396
0.960718
0.484552
0.347702
0.34887
0.34697
0.362731
0.353019
0.487987
0.364463
0.370301
0.351096
0.370798
0.344668
0.367556
0.347862
0.355273
0.359898
0.382659
0.3498
0.375908
0.35858
0.353697
0.352988
0.361795
0.358755
0.441373
0.365077
0.482618
0.377016
0.530497
0.597387
0.382947
0.387489
0.365627
0.344529
0.385807
0.363536
0.374788
0.389842
0.404186
0.359862
0.347798
0.342627
0.440452
0.351859
0.367296
0.366682
0.369672
0.358644
0.374656
0.625618
0.361873
0.367691
0.37311
0.358251
0.352118
0.349267
0.357004
0.353976
0.357786
0.381624
0.370381
0.825129
0.353089
0.362726
0.34595
0.346848
0.354509
0.350226
0.369406
0.35158
0.342399
0.345908
0.35231
0.338973
0.350801
0.361275
0.352001
0.374871
0.339269
0.345571
0.365257
0.351132
0.339106
0.339494
0.338567
0.341499
0.361492
0.363326
0.344354
0.339998
0.360447
0.348021
0.352747
0.365949
0.353554
0.346671
0.379191
0.386916
0.350322
0.354446
0.350846
0.348146
0.348529
0.342352
0.363985
0.348546
0.351905
0.383302
0.353919
0.381529
0.397293
0.35481
0.347818
0.349027
0.351499
0.467154
0.446897
0.428026
0.443296
0.362872
0.347656
0.357949
0.354243
0.384782
0.375624
0.344743
0.376518
0.351037
0.383778
0.358937
0.3925
0.378416
0.350657
0.352752
0.352636
0.372355
0.380297
0.369928
0.368922
0.362711
0.361594
0.363928
0.358449
0.369747
0.369702
0.369765
0.36262
0.366467
0.364035
0.369001
0.363831
0.369004
0.36991
0.368646
0.36595
0.357572
0.387124
0.375107
0.363295
0.363521
0.397017
0.346596
0.355079
0.345512
0.34939
0.358445
0.379891
0.369197
0.352528
0.342072
0.344559
0.369602
0.369508
0.369635
0.349741
0.351134
0.358059
0.360008
0.348063
0.368513
0.368344
0.351179
0.356728
0.350771
0.363337
0.349243
0.348877
0.348788
0.351348
0.374347
0.357406
0.349574
0.365613
0.44671
0.369729
0.349234
0.347602
0.351438
0.358448
0.368661
0.355458
0.341968
0.378852
0.372954
0.389233
0.378008
0.349727
0.347362
0.347142
0.347994
0.350108
0.352578
0.349331
0.382793
0.354959
0.350609
0.34836
0.348584
0.350607
0.345485
0.349879
0.355862
0.367176
0.355463
0.36497
0.357301
0.351814
0.356021
0.361591
0.375994
0.353634
0.357037
0.359133
0.346208
0.358461
0.355368
0.362991
0.355676
0.375286
0.365207
0.360472
0.369579
0.353636
0.357953
0.349884
0.351729
0.351093
0.353693
0.366633
0.364989
0.3543
0.363031
0.341865
0.347358
0.341847
0.349832
0.359389
0.358764
0.351891
0.351821
0.34709
0.349519
0.347809
0.34724
0.348041
0.354598
0.358133
0.351357
0.426733
0.466815
0.519617
0.372409
0.353521
0.362661
0.435628
0.340828
0.363666
0.349427
0.342521
0.469458
0.380977
0.363211
0.362985
0.354541
0.350937
0.34267
0.351686
0.353317
0.349606
0.34798
0.34226
0.345258
0.371256
0.354268
0.377861
0.354435
0.356927
0.355362
0.35111
0.349051
0.35545
0.35284
0.365051
0.368534
0.353902
0.355613
0.363572
0.358607
0.362579
0.356406
0.356991
0.346084
0.347477
0.352416
0.344152
0.34748
0.353271
0.364031
0.356965
0.351069
0.368983
0.349506
0.33918
0.347411
0.348446
0.388089
0.358419
0.352567
0.348897
0.353569
0.345406
0.352569
0.385215
0.368067
0.375186
0.364461
0.372412
0.355781
0.340798
0.389495
0.345714
0.344139
0.344027
0.380755
0.37599
0.349945
0.372536
0.370072
0.398069
0.400356
0.364912
0.389948
0.390658
0.391406
0.359517
0.386074
0.824928
0.384803
0.365943
0.372623
0.350764
0.358677
0.378073
0.3529
0.357428
0.369354
0.366726
0.369382
0.378697
0.371977
0.356503
0.361566
0.38246
0.390294
0.380136
0.363928
0.345027
0.368608
0.355003
0.362091
0.385603
0.386962
0.396322
0.348658
0.343048
0.373108
0.347015
0.341845
0.357106
0.344776
0.346822
0.362547
0.34872
0.359668
0.38172
0.344602
0.358332
0.356108
0.350616
0.367309
0.354768
0.355046
0.356203
0.346585
0.364264
0.351093
0.374416
0.345029
0.346137
0.383949
0.350673
0.351278
0.353891
0.34019
0.367213
0.347286
0.385454
0.483011
0.345999
0.364389
0.379945
0.901648
0.364536
0.377524
0.380732
0.392723
0.35197
0.386416
0.357447
0.353337
0.364038
0.341202
0.337715
0.355258
0.351271
0.370373
0.376571
0.352621
0.373797
0.341706
0.360106
0.375084
0.342269
0.374034
0.358671
0.356997
0.352321
0.354936
0.355533
0.400639
0.384584
0.363969
0.340743
0.355353
0.361546
0.356991
0.373284
0.353159
0.351642
0.356642
0.357288
0.369366
0.380478
0.361286
0.353224
0.354149
0.352937
0.403797
0.352187
0.433659
0.34521
0.347997
0.392243
0.352633
0.364411
0.347294
0.398228
0.5397
0.429554
0.888277
0.374058
0.352106
0.364635
0.378332
0.355341
0.363317
0.352743
0.363748
0.357957
0.358593
0.350745
0.369533
0.350658
0.348816
0.376738
0.353839
0.376616
0.342432
0.347389
0.341389
0.363033
0.359411
0.358759
0.359828
0.375076
0.345379
0.365819
0.353655
0.344373
0.345781
0.338343
0.355944
0.358923
0.359596
0.358473
0.366451
0.368961
0.354945
0.367659
0.349304
0.35081
0.456397
0.343155
0.365285
0.348543
0.344919
0.347825
0.361515
0.361101
0.356907
0.336962
0.344497
0.352471
0.35793
0.351532
0.340376
0.359678
0.346879
0.353223
0.354059
0.36917
0.352543
0.349579
0.353112
0.347742
0.356995
0.348952
0.363927
0.354642
0.377145
0.357822
0.409585
0.388184
0.342858
0.341796
0.353025
0.340654
0.348032
0.345583
0.347655
0.344473
0.348216
0.350552
0.584455
0.352887
0.759377
0.374708
0.404959
0.397772
0.34633
0.347246
0.358836
0.348505
0.438093
0.506265
0.424962
0.353951
0.347359
0.346252
0.354395
0.355061
0.352659
0.393215
0.388304
0.3456
0.3426
0.349702
0.350424
0.367244
0.434179
0.372188
0.355164
0.352639
0.350563
0.348127
0.343362
0.343279
0.343288
0.345097
0.357914
0.349565
0.353253
0.350213
0.40783
0.360604
0.354613
0.349023
0.368616
0.343774
0.373821
0.368536
0.35348
0.34831
0.485031
0.507941
0.352621
0.366982
0.361288
0.351074
0.356218
0.358498
0.377645
0.352221
0.353887
0.369374
0.352632
0.344092
0.36625
0.34935
0.341418
0.349434
0.361252
0.381259
0.348194
0.351412
0.405809
0.353042
0.392781
0.348817
0.349695
0.367489
0.367206
0.346427
0.400902
0.361066
0.346076
0.352594
0.423517
0.921938
0.789295
0.350039
0.354671
0.349991
0.349213
0.355232
0.353564
0.355754
0.34348
0.346265
0.346024
0.351627
0.420273
0.371548
0.365796
0.358199
0.356098
0.352443
0.346894
0.624639
0.943919
0.352375
0.457311
0.349435
0.34975
0.894582
0.430344
0.73858
0.352778
0.384578
0.362219
0.362036
0.505062
0.42433
0.366017
0.345359
0.348483
0.346718
0.354286
0.346626
0.347612
0.353775
0.34289
0.342631
0.374739
0.369068
0.357752
0.359802
0.347742
0.348594
0.34798
0.343822
0.343996
0.345656
0.351739
0.357429
0.342759
0.346065
0.343599
0.345653
0.344658
0.350569
0.349381
0.344172
0.358217
0.350757
0.352197
0.350839
0.350061
0.346005
0.3662
0.360178
0.374622
0.363322
0.35141
0.345968
0.349701
0.3467
0.3558
0.360664
0.360788
0.356094
0.346915
0.358717
0.34595
0.354928
0.354038
0.340457
0.349059
0.359424
0.35306
0.355042
0.351398
0.353024
0.352448
0.357691
0.360797
0.358443
0.358365
0.344615
0.360814
0.356019
0.357726
0.352137
0.36099
0.382201
0.348669
0.34849
0.351335
0.348123
0.348285
0.3479
0.355494
0.346261
0.346512
0.383652
0.368882
0.348655
0.347177
0.398763
0.355729
0.381094
0.965864
0.861644
0.377728
0.344017
0.699428
0.425147
0.344533
0.353398
0.344323
0.339616
0.343649
0.342041
0.343282
0.362861
0.350781
0.353447
0.353948
0.348561
0.354343
0.351205
0.356953
0.346664
0.352683
0.349395
0.357189
0.390098
0.35653
0.356972
0.34745
0.350555
0.35144
0.36791
0.35587
0.353206
0.351716
0.358628
0.371717
0.363755
0.353963
0.349878
0.353456
0.350432
0.360237
0.36034
0.349979
0.3752
0.361179
0.364973
0.347339
0.370651
0.379385
0.367648
0.371092
0.362674
0.366659
0.375078
0.355592
0.353687
0.351605
0.354865
0.352763
0.347876
0.344953
0.344365
0.355905
0.340773
0.35192
0.352374
0.352494
0.355339
0.351716
0.353581
0.371446
0.361964
0.365118
0.364521
0.358427
0.394183
0.353243
0.351671
0.349515
0.358339
0.361058
0.357312
0.357405
0.360085
0.364034
0.368809
0.362607
0.354762
0.353676
0.36262
0.368823
0.368944
0.37429
0.373508
0.381194
0.338357
0.343229
0.342945
0.344051
0.360774
0.351219
0.371817
0.357395
0.36745
0.366086
0.368814
0.370944
0.367118
0.369366
0.386166
0.369939
0.349428
0.353398
0.35196
0.345857
0.34744
0.370933
0.369629
0.365409
0.392657
0.344404
0.347797
0.353615
0.352952
0.353353
0.364049
0.363624
0.354301
0.355561
0.34788
0.347974
0.34278
0.350795
0.346795
0.356433
0.341532
0.369024
0.347425
0.346151
0.342957
0.342604
0.341258
0.341736
0.341466
0.341636
0.341727
0.348219
0.347994
0.35123
0.35555
0.33825
0.348455
0.346021
0.351441
0.400482
0.342279
0.340166
0.341212
0.368617
0.381075
0.349989
0.351642
0.347728
0.34742
0.366436
0.353049
0.35958
0.36139
0.372617
0.379821
0.347223
0.344338
0.345761
0.366299
0.35435
0.362413
0.38022
0.355657
0.353619
0.37998
0.355635
0.368526
0.347364
0.348217
0.3552
0.3488
0.344569
0.364886
0.354262
0.341957
0.36042
0.346021
0.362462
0.362652
0.34399
0.338659
0.353187
0.344704
0.368609
0.346649
0.348369
0.846568
0.35523
0.343871
0.353419
0.346279
0.345958
0.345908
0.345931
0.954483
0.435375
0.359141
0.343038
0.35937
0.348301
0.355616
0.35981
0.347555
0.353806
0.346501
0.353987
0.347663
0.363852
0.358009
0.345422
0.376934
0.346192
0.35407
0.35519
0.353443
0.362155
0.369639
0.356248
0.359949
0.342562
0.362783
0.338958
0.349488
0.343462
0.352133
0.34332
0.344551
0.344731
0.562024
0.351235
0.586799
0.356424
0.341843
0.639631
0.37691
0.345533
0.350372
0.341874
0.350965
0.364707
0.366763
0.349919
0.379332
0.358082
0.354501
0.343518
0.345681
0.346839
0.346823
0.355648
0.354058
0.356174
0.347093
0.357473
0.346553
0.352947
0.34456
0.348039
0.349958
0.365019
0.35607
0.35578
0.353609
0.351479
0.351091
0.354769
0.346551
0.346859
0.343036
0.342299
0.345698
0.344672
0.342645
0.365248
0.341723
0.346683
0.356941
0.353832
0.352105
0.354264
0.353727
0.356596
0.345193
0.347908
0.355117
0.353969
0.356219
0.348927
0.345753
0.341346
0.34851
0.347998
0.343881
0.350709
0.363198
0.367297
0.344475
0.362961
0.356888
0.356457
0.405742
0.366637
0.356115
0.382481
0.384687
0.387736
0.354754
0.352643
0.353922
0.356747
0.387553
0.35832
0.345538
0.445808
0.356286
0.353347
0.344752
0.350674
0.348657
0.346777
0.349664
0.347614
0.349147
0.354786
0.347122
0.356893
0.357634
0.348463
0.351386
0.355414
0.34739
0.354336
0.356273
0.35708
0.345275
0.351088
0.346701
0.349174
0.354877
0.348349
0.364453
0.366783
0.358446
0.399811
0.458125
0.402332
0.40381
0.348187
0.344187
0.368878
0.359113
0.349903
0.368353
0.350439
0.347479
0.3669
0.362781
0.364271
0.36379
0.364509
0.366389
0.338666
0.351826
0.374422
0.459773
0.362256
0.76167
0.382637
0.345961
0.345986
0.375949
0.344478
0.347261
0.343851
0.35782
1.00515
0.346782
0.341857
0.460274
0.629228
0.349549
0.361591
0.351275
0.363353
0.596428
0.534
0.341015
0.358325
0.347832
0.365864
0.369578
0.361841
0.3876
0.359553
0.360157
0.346698
0.448749
0.379634
0.462698
0.363496
0.350073
0.413662
0.379938
0.66701
0.439628
0.339903
0.924962
0.883231
0.357059
0.350874
0.371902
0.346503
0.364946
0.344764
0.360421
0.426872
0.346345
0.35345
0.353153
0.509379
0.35369
0.459111
0.347845
0.396363
0.358991
0.346155
0.350686
0.35693
0.341392
0.35574
0.349467
0.500955
0.375144
0.368796
0.387437
0.405648
0.349529
0.357792
0.356634
0.367119
0.362102
0.365654
0.344744
0.372771
0.438613
0.826917
0.377523
0.353199
0.345104
0.345868
0.343093
0.366827
0.368632
0.349948
0.352363
0.358549
0.362855
0.354171
0.343681
0.355507
0.340959
0.354367
0.357069
0.344534
0.349727
0.350598
0.342453
0.367659
0.347468
0.34677
0.339218
0.340171
0.342651
0.355919
0.352398
0.344041
0.481977
0.357499
0.342077
0.342516
0.344531
0.374543
0.342057
0.343001
0.345353
0.35353
0.362322
0.36421
0.351531
0.342715
0.350147
0.345654
0.34757
0.341475
0.342227
0.341737
0.349436
0.344322
0.348135
0.347977
0.37123
0.389086
0.367065
0.37252
0.365336
0.355483
0.355709
0.371238
0.349157
0.364908
0.364683
0.349037
0.347898
0.341225
0.341488
0.344779
0.358986
0.355159
0.357536
0.343234
0.344719
0.348916
0.378326
0.345362
0.356124
0.353593
0.354377
0.337063
0.361575
0.348368
0.353107
0.345505
0.345586
0.343449
0.344991
0.360277
0.353699
0.374775
0.348374
0.348321
0.465643
0.356868
0.342141
0.392698
0.346647
0.375691
0.382715
0.352719
0.347649
0.352841
0.347828
0.35426
0.354413
0.353331
0.349239
0.342057
0.35288
0.344776
0.354318
0.354357
0.346643
0.352945
0.416939
0.359893
0.814245
0.356327
0.345152
0.345193
0.344409
0.344293
0.345842
0.356624
0.362263
0.348391
0.349235
0.343082
0.344052
0.346349
0.353318
0.346847
0.355403
0.383003
0.342846
0.390391
0.345034
0.349048
0.356612
0.34546
0.359185
0.342305
0.343981
0.341313
0.341893
0.347886
0.343739
0.34843
0.352082
0.344866
0.349722
0.352327
0.371767
0.346104
0.796713
0.450309
0.388349
0.849082
0.359621
0.355487
0.345474
0.350954
0.448729
0.512124
0.418569
0.350422
0.344431
0.35724
0.34504
0.34236
0.351964
0.353542
0.480575
0.491164
0.448946
0.356055
0.357017
0.364863
0.353573
0.34839
0.354634
0.363085
0.342069
0.351651
0.349714
0.352113
0.354624
0.348748
0.346947
0.347599
0.35565
0.352138
0.360628
0.365859
0.356677
0.357733
0.419908
0.336499
0.353522
0.342737
0.351483
0.359039
0.363903
0.362453
0.356529
0.361389
0.36976
0.346052
0.362188
0.352476
0.34838
0.349832
0.349732
0.378462
0.364306
0.369592
0.364254
0.360498
0.357918
0.355307
0.375823
0.359034
0.356644
0.35285
0.363796
0.364107
0.36146
0.354312
0.370148
0.382326
0.374063
0.361703
0.360051
0.344577
0.363604
0.362451
0.366404
0.36382
0.386702
0.353283
0.377819
0.353527
0.388266
0.384539
0.358102
0.361195
0.356452
0.345822
0.360418
0.368994
0.35506
0.393528
0.346264
0.358878
0.363936
0.375118
0.36236
0.3679
0.360879
0.362284
0.343635
0.36319
0.35456
0.351068
0.339218
0.34166
0.339103
0.342991
0.346752
0.336568
0.343554
0.358416
0.36862
0.368959
0.363229
0.373744
0.347764
0.351389
0.36868
0.368861
0.369404
0.410133
0.388744
0.372859
0.366063
0.399422
0.390394
0.365425
0.352079
0.34963
0.368782
0.355382
0.352947
0.365253
0.362636
0.382506
0.355042
0.353038
0.37145
0.384089
0.355484
0.352682
0.391156
0.35259
0.3694
0.349325
0.352883
0.352825
0.376302
0.353586
0.35325
0.350178
0.384838
0.344302
0.346115
0.35578
0.371592
0.365119
0.349807
0.34554
0.353432
0.35494
0.360683
0.347538
0.350019
0.345783
0.365765
0.36107
0.357592
0.352562
0.364702
0.353704
0.352763
0.351317
0.364483
0.351311
0.352525
0.350388
0.346257
0.35231
0.367263
0.386042
0.376822
0.409858
0.363731
0.371498
0.371109
0.363007
0.364959
0.391235
0.369755
0.357939
0.366038
0.349479
0.359487
0.355801
0.380684
0.342508
0.389438
0.344522
0.352066
0.347605
0.347033
0.347482
0.361632
0.376287
0.363949
0.37497
0.360843
0.35823
0.348258
0.374482
0.352298
0.383889
0.347602
0.345363
0.367171
0.357667
0.360553
0.359471
0.361376
0.35022
0.34913
0.363557
0.35416
0.351348
0.354353
0.352827
0.36084
0.363233
0.356521
0.357021
0.348283
0.352054
0.355531
0.351706
0.345233
0.874302
0.564041
0.347626
0.344701
0.344114
0.356967
0.357059
0.359248
0.361918
0.350852
0.353875
0.345257
0.345675
0.342255
0.342518
0.341699
0.344956
0.345977
0.832746
0.393645
0.348766
0.355889
0.352086
0.346316
0.350241
0.35801
0.34718
0.348315
0.367042
0.352318
0.352783
0.352217
0.35531
0.357386
0.350172
0.362772
0.362105
0.352251
0.346413
0.376925
0.363924
0.378144
0.353798
0.35943
0.370155
0.347934
0.356092
0.363843
0.361452
0.37146
0.365054
0.346759
0.374986
0.371133
0.374062
0.369914
0.369916
0.362309
0.368792
0.352491
0.363817
0.369674
0.358173
0.35441
0.358156
0.370922
0.351071
0.344331
0.340967
0.341696