/*--------------------------------*- C++ -*----------------------------------*\
| =========                 |                                                 |
| \\      /  F ield         | OpenFOAM: The Open Source CFD Toolbox           |
|  \\    /   O peration     | Version:  2506                                  |
|   \\  /    A nd           | Website:  www.openfoam.com                      |
|    \\/     M anipulation  |                                                 |
\*---------------------------------------------------------------------------*/
FoamFile
{
    version     2.0;
    format      ascii;
    arch        "LSB;label=32;scalar=64";
    class       surfaceScalarField;
    location    "0.0321319";
    object      phi;
}
// * * * * * * * * * * * * * * * * * * * * * * * * * * * * * * * * * * * * * //

dimensions      [0 3 -1 0 0 0 0];

oriented        oriented;

internalField   nonuniform List<scalar> 
7391
(
0.0482275
-0.0386828
0.0323343
-0.041879
0.0373926
0.0248409
0.0239901
-0.0862236
-0.0403267
0.00806335
0.0368376
-0.00457426
0.0905399
-0.0893454
0.0230635
-0.024258
0.0126293
-0.0172816
0.00121368
0.0034387
-0.0363248
0.106579
0.0607431
-0.130997
-0.084646
0.107878
0.00860813
-0.0318397
-0.0440043
0.0104318
0.00198858
0.0315839
-0.0503954
-0.0411849
0.0654302
0.0261501
-0.0334427
0.0403073
-0.0139379
0.00707329
0.0269432
-0.0504089
0.0234658
0.0900088
-0.0255438
-0.0125241
-0.051941
0.0748183
-0.00764415
-0.0188633
-0.0483108
0.0679205
0.0050587
-0.0172158
-0.0557634
-0.0408569
-0.0531666
-0.0550499
0.149073
0.00477061
-0.0283558
0.0193736
0.0251459
-0.00968567
0.0366024
0.0222913
-0.0218677
-0.0627402
0.0623166
0.0432679
0.0578019
0.0188489
-0.119919
0.037888
0.0127719
-0.00191614
-0.0487438
-0.0811584
-0.000721064
0.0818795
0.0013627
-0.0982843
0.164491
-0.0675696
0.0885193
-0.147611
0.0308914
0.0282003
-0.0856465
0.143061
-0.10407
0.0466552
0.0853379
0.113022
-0.0789083
-0.119451
-0.0947695
-0.0292602
0.111884
0.0121454
-0.0571229
0.0597234
-0.00260048
0.0184453
-0.047314
-0.0557773
-0.0510435
0.0414089
0.0982089
-0.0885742
0.0646844
-0.038863
0.0266063
-0.0524278
-0.084275
0.0923571
-0.101524
0.0934421
0.00137026
-0.0343825
-0.0100466
0.0430589
0.0461043
-0.069697
-0.0614531
0.0850458
0.0741583
-0.0647213
0.0292415
-0.0386785
-0.0414809
0.0538395
-0.0109883
0.0978268
-0.0485174
-0.0493094
0.0475391
-0.0160085
-0.00526741
-0.0262633
-0.0525003
0.0425363
-0.00809145
0.0180554
-0.0325722
0.114173
-0.0478984
-0.033702
0.0404344
0.0302017
0.0377371
-0.108373
0.105007
-0.247731
0.108527
0.0341975
-0.035314
-0.0259965
-0.0197079
0.0810184
0.0554227
-0.0284939
-0.0508689
0.0239401
0.0518255
-0.0601416
0.0637388
-0.0632601
0.0473677
0.0158924
-0.0596315
-0.0169405
0.0107833
0.0657887
-0.0705846
0.150011
-0.0662439
-0.013182
0.0362173
0.0383426
-0.0745599
0.0863874
-0.0486148
0.0593277
0.0357696
0.0112019
-0.00576944
-0.0412021
-0.0392246
0.035694
0.0143718
-0.0108412
0.0324065
-0.0251255
0.0013898
-0.0086708
0.0759178
-0.0747186
-0.0241805
0.0229812
0.0733944
-0.0416305
0.018847
-0.0506109
0.0499945
-0.0988765
0.0582096
-0.00932762
-0.0234403
0.0478564
-0.0133512
-0.011065
-0.00523207
-0.122688
0.175888
-0.0479674
0.0100612
0.00927303
-0.0627656
0.0434314
0.0501814
0.00531386
-0.0454341
0.0126207
0.065863
-0.0692106
0.00298319
-0.0551266
-0.0106222
-0.0345855
-0.00772494
0.0452937
-0.0017033
0.00134984
8.12126e-05
0.000272247
0.000265571
-0.000347163
-0.000465863
0.000547455
-0.00406442
-0.00735514
0.00890473
0.00251484
0.0549792
0.0439148
-0.0175109
0.097089
-0.0959148
-0.0195833
-0.107146
-0.008578
-0.043865
0.159589
-0.0106765
0.00726836
0.137961
-0.134553
0.06545
0.0190707
-0.00531274
-0.0792079
-0.0567132
0.0282801
0.0284332
-0.117137
0.0251211
0.00529483
0.0867206
0.0380457
-0.0440954
-0.0188042
0.0248539
0.0477879
-0.0601367
0.0503945
0.0343019
-0.0357968
0.000603179
0.000891728
-0.0337326
-0.00920211
0.00673537
0.0361993
0.0108531
-0.102754
0.0478054
-0.0884369
0.0932005
0.0368836
-0.0416472
0.0583008
0.0332097
-0.0824257
-0.00908478
-0.0477912
0.142272
0.00462461
-0.099105
-0.0435835
0.0317049
0.102797
-0.0909182
-0.0500864
-0.0266095
0.0534851
0.0232108
-0.0996127
0.0994369
0.000123963
-0.0107423
-0.00181225
0.0124306
-0.00860375
-0.000472372
0.00494517
0.00413095
0.0268521
0.00999751
-0.0368496
0.00118727
-0.00104632
-0.0087447
0.0728522
-0.0440963
-0.0511978
0.0224418
0.00182244
-0.0246997
-0.0211271
0.0694856
0.0429626
-0.039596
-0.00796853
0.00927977
-0.0450715
0.0367774
0.0218916
-0.0135975
-0.0478645
0.0297362
-0.00255084
0.159551
-0.158752
0.00175175
0.107805
0.0159626
-0.0158896
-0.00954741
-0.00527494
0.00477223
-0.00570657
0.000402617
-0.00907902
-0.0939901
0.107547
-0.0235758
0.0100193
-0.0131486
-0.00210541
-0.0145222
1.88412e-05
0.0024928
0.0653221
-0.0460089
0.0119051
-0.0312182
0.0372368
0.0559573
-0.027872
-0.0273042
0.0548268
0.0282165
-0.0557391
0.0277293
-0.0550335
-0.00027096
5.81451e-05
-0.0332299
0.0124662
-0.0100367
0.0792134
0.0687407
-0.0540841
0.0976519
-0.112309
-0.0234233
0.113792
-0.053132
-0.041907
0.0449196
0.0518142
-0.0386355
0.0367539
0.00188158
0.0404308
-0.0794181
0.0729845
-0.0339971
-0.0573075
0.0516315
0.0858478
-0.0801718
0.00422896
-0.000530846
0.00220946
-0.00590757
-0.00282544
0.000324134
0.0401237
-0.109985
0.103919
-0.0340578
-0.00358353
0.00155759
-0.00491634
0.00420686
-0.00731552
0.00257782
-0.0207633
-0.00950415
0.117973
-0.0877056
-0.0258259
0.0592161
0.0407681
-0.0721798
0.0280835
-0.124311
0.0480134
0.0762972
-0.0429526
-0.0325211
0.0276091
0.0487434
0.154722
-0.224566
0.0211006
-0.0916571
0.0650932
0.0263302
0.000233702
-0.013469
-0.00370904
-0.00115357
0.0173134
0.11034
-0.0471595
-0.0804934
-0.156808
0.0864446
0.0763479
-0.00598454
-0.0389937
0.0418673
0.0075864
-0.0104601
-0.0420394
-0.0422356
0.0461375
0.0143714
0.0020997
-0.0626086
0.0286237
-0.0342359
-0.0515107
-0.0271639
0.0548932
0.00398194
-0.0120024
0.0668917
-0.0588712
-0.0333268
-0.0300716
0.0633983
0.0311866
-0.0645134
0.0497109
-0.0043515
-0.0453594
0.0381722
0.0353775
-0.126565
0.0530148
-0.0979731
0.0599751
0.0761702
0.0329994
-0.0997859
-0.0467272
0.108225
-0.0375671
-0.0239308
-0.0304917
0.0437396
-0.0552107
0.109799
-0.0545879
0.00254932
-0.0444912
0.00927535
0.0326666
0.0781357
-0.0306967
0.034178
0.0746625
0.0408037
-0.0370894
-0.0783768
0.0314301
-0.0321097
0.000679587
0.0148921
0.206561
-0.158734
-0.0627197
0.00579936
-0.00305419
-0.0208387
0.0177043
-0.143647
-0.0222839
0.148227
-0.00427014
-0.0121933
-0.0273456
0.043809
-0.00822528
0.0326533
-0.030474
0.034615
-0.033145
0.028558
-0.030028
-5.30512e-05
0.000285467
0.0413458
0.01685
-0.0913407
-0.041534
-0.00018821
0.00691946
0.0352154
-0.0317031
0.0335403
-0.0242495
-0.0234018
0.0141109
0.12363
0.0594828
-0.0931037
-0.0569907
0.0284968
-0.0385444
0.0268992
-0.0392237
-0.0372431
-0.0138341
0.0437185
0.00735876
0.0315288
-0.01966
0.0807501
-0.092619
0.0413732
0.0337936
-0.0751668
0.072902
-0.00285879
-0.00613314
-0.00105782
0.00648348
-0.0118004
0.0241967
-0.0188798
0.0350699
0.0390895
-0.0216609
-0.0524984
3.38417e-05
-0.010389
0.00872394
0.00163124
-0.0445609
0.00207059
0.0119964
0.0304939
-0.0339023
-0.0122233
-0.00565806
-0.0521347
0.00260408
0.107475
-0.0579443
-0.0665621
0.0663637
0.000198391
-0.0105149
0.0666591
-0.0338529
-0.0389165
-0.0400284
0.046389
0.0325559
0.0740406
-0.0330256
-0.0348231
-0.00619194
0.0885408
0.0169305
-0.162779
0.0754552
-0.0269835
0.0712923
-0.119764
-0.00167103
0.00152504
-0.0341322
-0.0658704
0.0110671
0.0610836
-0.0062803
-0.0558346
0.0026042
0.0532304
-0.0148207
0.00910043
-0.0051388
0.0108591
0.0434533
-0.0993263
-0.0118712
0.0677442
-0.00428313
-0.00316336
-0.00148571
0.0228206
0.0345439
0.00914895
-0.0665135
-0.0558581
0.000213933
0.000517552
0.0053059
0.00624862
-0.0182594
0.0067049
-0.00470427
-0.0283332
0.0628675
-0.117654
-0.0392039
0.0207861
-0.0197507
0.0372206
-0.038256
-0.000911876
0.0376849
0.00415367
-0.0409267
0.0102625
-0.000529324
-0.00725252
-0.00248061
-0.0219119
0.054731
-0.0375234
0.0343716
0.000172308
0.0210156
0.0993406
-0.117259
-0.000547143
0.000899489
-0.000588417
0.000236071
0.00371348
-0.00160514
-0.0149877
0.0128793
0.00643814
-0.000804975
0.00803137
-0.0136645
0.00975346
-0.0168965
0.0190877
-0.0119447
0.0755508
-0.000732491
-0.0187223
0.0502423
0.0176991
-0.049219
-0.0305986
-0.0157336
0.0463322
-0.047695
0.0319571
-0.0168343
-0.049321
0.0848359
-0.0357473
-0.040795
0.102882
0.0334367
-0.106559
0.00595639
0.00148839
-0.00366984
-0.00377494
-0.00140397
0.00561436
0.143009
0.00326545
-0.00424328
0.00167161
-0.000693771
-0.000319521
0.00384011
0.0355517
0.0288547
-0.010524
-0.0538824
-0.000629029
-0.036413
0.0601921
-0.0231501
-0.00127727
-0.00324694
0.00297444
-0.00195746
0.00406554
-0.0024276
-0.0357651
-0.0373434
0.0731085
0.0417116
0.0419028
-0.0836143
-0.0270356
0.118784
-0.0430832
0.0174093
0.00161544
-0.0199366
-0.023848
-0.000729999
-0.0019986
0.0265766
-0.0862357
0.0753208
-0.0596698
-0.00432265
0.00396818
-0.00311346
0.00346793
0.0346002
-0.0736117
0.0390114
-0.0970815
0.0249257
0.0320417
0.0401141
-0.0166541
-0.0250069
-0.0375891
0.0792501
0.00162675
-0.0102793
0.00488363
0.00376891
0.0402749
0.0416685
-0.0819434
-0.129899
-0.0188659
0.139574
0.00919097
0.0515366
0.0154434
0.00036005
-0.06734
0.0513219
0.000214734
0.0613974
-0.0439413
-0.00201267
0.0415723
-0.132702
0.0772902
0.0138398
0.0567248
-0.0847181
0.0648831
-0.0368898
-4.57695e-05
0.0268979
-0.052163
0.0517663
0.00039674
0.0779558
0.0111849
-0.0196551
-0.128341
0.118151
-0.0656759
0.0758658
-0.0271685
0.0197134
-0.0358955
0.0433506
-0.0106554
-0.00574592
0.0101988
0.00620245
-0.00611257
0.0270119
-0.0443396
-0.00731925
0.00531989
0.0383913
-0.0363919
-0.04766
-1.86228e-05
0.0476786
-0.00716182
0.00999747
-0.000532777
-0.00230287
0.0253003
0.0303955
-0.0556958
0.0243322
-0.0550364
0.0674816
0.0666205
-0.0535843
0.0527411
-0.0657774
0.131076
-0.00223868
0.0128749
0.00769676
-0.018333
0.0250387
-0.0428706
-0.112809
0.0399997
0.11568
0.0417911
-0.0846617
-0.0816476
0.0847529
-0.0286492
0.0208605
-0.0698671
0.0490066
0.0696878
-0.0519835
-0.00912399
0.00448584
0.032252
-0.0276139
-0.0764114
-0.0271349
0.0149783
0.088568
0.0359648
-0.0350769
0.0200797
-0.0209676
0.0415963
-0.0385408
-0.135232
0.132176
0.0420669
-0.11059
0.112489
-0.0439653
-0.0610522
0.0359892
0.0426095
-0.0175464
-0.0587769
0.0389361
-0.048018
0.0678588
0.0324122
-0.0524091
0.0199969
-0.0256295
-0.0011075
0.00143015
-0.00470358
0.00252304
-0.00227977
0.00446031
-0.0672015
0.0666323
0.000569157
-0.0598966
-0.00332293
0.0150419
0.0481735
-0.0628554
-0.0346242
0.0676236
-0.068534
0.0339098
-0.0307911
0.000514026
-0.00309592
0.033373
-0.0606099
0.0661553
-0.00633832
0.000792895
-0.0182175
0.000499117
-0.0287606
0.046479
-0.0607888
0.000178916
-0.000406757
-0.074444
0.036888
0.00865106
0.0289049
-0.0244441
0.000338644
-0.0969459
0.0898397
-0.100538
0.107644
0.0381489
0.0177074
0.0128568
-0.0687132
0.00377791
-0.0253854
0.0342281
-0.0605356
0.062922
0.0357626
-0.029368
-0.023593
0.0451108
0.0078502
-0.0280362
-0.0154835
0.0141518
-8.87828e-05
0.000433032
-0.0608799
0.0500927
-0.0253614
0.0344531
-0.00021535
-0.02517
0.0344188
-0.0675647
0.0331459
0.0678555
0.0287135
-0.0414764
-0.0273311
0.0355881
-0.0243647
0.0161077
0.0160313
-0.0632155
0.0210223
0.0261618
0.10988
0.00648393
0.0464781
-0.162842
0.115426
-0.0682907
-0.0607712
0.0136362
0.0725443
-0.0746021
0.0359079
-0.0338501
0.00133618
-0.00113769
0.000467904
-0.000666392
-0.00215066
0.00349343
-0.000856467
-0.000486303
-0.0218569
-0.015539
0.0356548
0.00174118
-0.0449252
0.0183156
0.0272261
-0.0468861
-0.00425984
-0.00225654
0.00619384
0.000322537
0.00173851
0.000914685
0.00127581
-0.003929
-0.0892306
0.147717
-0.0168903
-0.0498625
0.0497841
0.018394
-0.108098
0.138986
-0.0890449
0.036989
-0.0405631
-0.000934401
0.0428577
-0.00631478
-0.0356086
0.00544023
-0.0107592
-0.0115344
0.0168534
0.0021137
-0.0018427
0.000309538
-0.000138516
-0.0338031
0.0338868
-0.111607
0.111524
-0.0675086
0.0337055
0.0018402
-0.00378676
-0.00630512
0.00825168
0.0527566
-0.0518924
0.00124777
-0.00211203
0.0127276
-0.0223803
-0.0205165
0.0301692
0.0345936
-0.0356883
-0.0302463
0.0313411
-0.00777097
0.000457688
-0.0338953
0.152266
-0.149264
-0.0507935
-0.0800624
0.00377755
0.0163245
0.0599604
0.00109873
-0.0022769
-0.00958957
0.0107677
0.0473001
-0.0607512
-0.0251844
0.00369142
-0.00977298
0.00158347
0.00449808
-0.0302557
0.0840119
-0.0745195
-0.0513121
-0.00559136
0.0569034
0.0329784
-0.0347967
0.00181827
-0.102927
0.0349877
0.0275882
-0.020543
0.00393287
-0.0109781
-0.0141881
-0.0301151
-0.0284068
0.07271
-0.00850133
0.00232984
0.00466812
-0.00685495
0.0928286
-0.0894917
0.00351808
-0.00493724
0.00691499
-0.0079303
0.00595256
0.00236725
-0.0175357
-0.0507019
0.0399551
-0.0122415
-0.0408275
0.0131139
0.2485
-0.128573
-0.0511864
0.0361675
0.0302905
-0.066458
-0.0615015
0.0321447
0.0655243
-0.00117732
-0.00221358
0.00124166
0.0540653
-0.0219834
-0.0369853
0.00490352
0.0539238
-0.0365219
0.00477483
-0.0221768
0.0209385
0.0268664
-0.00129242
-0.0465124
0.0023369
0.00840265
-0.00667281
-0.00406674
-0.006939
-0.00194081
0.00787781
0.001002
-0.00261919
0.000336192
0.00179063
0.000492365
-0.0151775
-0.0292454
-5.01592e-05
-0.00079972
0.0300953
-0.0147183
0.000301571
-0.00275051
0.036959
0.0222333
-0.0262139
0.0287315
-0.0210727
-0.0352344
0.0275755
0.00367739
0.000439059
0.0246151
-0.0364565
0.0183809
-0.00996064
-0.000193351
0.0197592
0.0181191
0.0823419
-0.0174218
0.0377596
-0.0323737
0.0120359
-0.0608826
0.0192393
0.0480305
-0.00638715
-0.000330284
-0.00159853
-0.00021282
0.00214164
0.0399251
0.0168302
0.0668745
-0.0484122
0.0108759
0.0526321
-0.0150957
0.0246238
-0.0593832
0.0347594
0.128152
0.068442
-0.14785
-0.00113299
0.0018731
-0.00171788
0.000977766
0.00187633
-0.000996403
-0.00491091
0.0276971
-0.0301551
0.0750024
0.0669119
0.00452109
-0.0562655
-0.0151676
-0.0165366
-0.0688185
0.0671376
-0.0353533
-0.145638
0.113078
0.0679141
0.0418454
0.0524404
0.0367906
-0.0388201
-0.0314671
0.0367344
0.0335528
-0.020045
0.0223255
-0.0244609
0.0221804
0.0542045
-0.000365053
-0.00502108
-0.00725756
0.0061198
0.00615883
0.0424324
-0.11701
0.0671726
0.00740454
-0.0215218
0.00879971
-0.00638758
0.0191097
-0.0544762
0.00606511
0.0492361
-0.000825055
-0.094705
0.0483241
-0.00665185
0.0530328
-0.03731
0.0452458
-0.0146587
0.00672288
0.0233675
0.0484718
-0.0305891
-0.0412502
0.0344459
-0.0645175
0.102464
-0.107836
0.039818
0.11096
-0.0514766
0.0429799
0.0279807
0.0119375
-0.090793
0.0508748
-0.0113466
-0.0330416
0.0531731
-0.0087849
0.0149968
-0.0419068
0.0541557
-0.049471
9.63726e-05
-0.033138
0.0209243
-0.0653226
0.0723791
0.0590298
-0.0597025
0.000672623
0.0673758
-0.0740117
0.0416619
-0.035026
0.0308918
0.00535178
-0.0285907
-0.00765283
-0.0475979
-0.0299177
0.0387531
0.0387624
0.0343599
-0.0865229
0.00652931
-0.0661739
0.0596446
-0.000833267
0.0260535
-0.000294211
-0.024926
-0.0589311
0.0287045
0.104889
0.00771479
-0.00642663
-0.005548
0.00826339
0.0133701
-0.0350561
0.0134226
-0.0726874
0.0944438
-0.0132049
-0.0518505
0.0707465
-0.0778039
-0.0257837
0.0634431
0.0189821
-0.0566415
-0.0593211
0.0335374
0.0469354
0.0643641
-0.0733763
0.04428
0.0573671
-0.0282708
0.0355121
0.00551702
0.00437325
-0.0454024
0.00182368
-0.00432549
0.000697107
-0.0733993
-0.0264879
0.0291187
-0.00893847
0.00191475
0.00133959
0.00568414
-0.0358459
0.00906696
-0.0342733
0.000574184
0.00446043
-0.00110707
-0.00392754
0.00230274
0.00492543
-0.00768732
0.000459161
0.000300513
-0.000474567
-0.000373088
-0.0806243
0.0386179
-0.0329789
0.0749853
-0.00206637
-0.000717632
0.00344998
-0.000665978
0.0111066
-0.0159909
0.00295525
0.00192905
-0.0050566
0.0137811
0.00312812
-0.0118526
0.00374225
0.0200525
-0.0374764
-0.000990179
0.00132173
-0.0397288
0.0799025
-0.0401737
-0.079254
0.0395253
0.000807729
9.176e-05
0.0412159
0.00483397
-0.018993
-0.0270569
0.00647406
0.0171767
-0.105151
0.0814999
0.0195199
-0.0181829
0.00538438
-0.00672137
-0.00144695
-0.000364272
0.00139022
0.000420997
0.00889181
0.000108999
-0.00420737
-0.00479344
0.00875674
0.00270135
-0.0131655
0.00170741
0.0314959
0.00906535
-0.00459645
-0.00444532
-0.0331115
-0.0022153
0.0452749
-0.0532143
0.0478343
-0.0398949
0.0411258
0.0172781
-0.00813008
-0.0502738
-0.000862908
-0.000889473
-0.00234063
0.00409301
-0.00954265
0.0132845
-0.00428216
0.000540314
0.0326643
-0.000248857
-0.0828108
-0.0793338
0.0381488
-0.0022487
0.0128445
-0.00858783
-0.00200798
-0.0694635
-0.012778
0.0558064
0.0264351
0.0171279
-0.0068592
-0.0136755
0.00340676
0.00229939
-0.00101965
-0.0058703
0.00459055
-4.18606e-05
-0.0103273
0.00823923
0.00212997
0.0697812
-0.0261665
0.00094372
0.0103118
0.00221278
0.0274979
-0.0400225
0.120166
-0.0691716
0.0235889
0.036499
-0.126427
0.066339
-0.0428225
0.0211616
-0.0598578
0.039717
-0.00602575
0.0133816
-0.0178065
0.0369705
-0.00541468
-0.0489776
-0.0112752
0.000973977
0.0541922
-0.043891
0.0392044
-0.0338484
-0.00629037
0.00200236
-0.00895361
0.00527274
-0.0671497
0.0359004
-0.0431947
0.0541745
-0.0542203
0.0635417
0.0230394
-0.028512
0.00110125
-0.0215012
0.0107341
-0.0312583
0.0316146
-0.0110905
0.0323631
-0.0404168
0.00507099
0.00865318
-0.055158
-0.0628875
0.109392
0.0478682
-0.0239282
0.108347
0.0240808
-0.048009
0.0423172
-0.0689147
0.055553
-0.0151925
0.0285543
-0.0687961
-0.000118601
0.0360242
-0.0307043
0.00748816
-0.0562158
0.0961956
-0.0474679
0.0708101
-0.0272977
0.00965866
-0.040363
0.0181273
0.0335827
-0.0493162
0.0237433
-0.0344169
-0.00679533
0.0174689
0.0517398
0.0497633
0.0248109
0.068794
-0.0520325
-0.0513707
0.0514512
-8.04713e-05
-4.88385e-05
0.0686179
0.0199336
-0.0457595
0.0117528
-0.0656843
0.0539315
0.012051
0.125329
-0.0781644
-0.0125759
-0.0280918
-0.020215
-0.0400053
-0.00616288
0.00818466
0.00533772
-0.00573777
-0.0449723
0.109764
-0.0214715
0.0368184
0.0216236
-0.0069507
0.0436926
0.00447397
-0.0549993
0.000625294
0.0172263
-0.0202508
-0.0162636
0.0192882
-0.0947406
-0.00338581
0.0320248
0.0661016
0.109807
-0.0419213
-0.0868299
0.0189444
0.0635463
0.0201915
-0.0920389
0.0083011
-0.14047
0.0152197
0.0459723
0.0792778
0.0304543
-0.0061039
-0.026331
0.00198062
-0.00230744
0.0324654
-0.0283627
-0.00179531
0.0449663
0.0353281
-0.0864349
0.00614053
0.0360456
-0.0354718
-0.0953433
0.0345368
-0.014167
-0.0967812
-0.0947864
0.0737883
-0.0256257
0.0466238
0.0120161
0.00336673
0.0470022
-0.0623849
0.0565461
-0.0183838
0.0656189
-0.101317
-0.0425742
0.0782725
0.0339459
0.100298
-0.0397573
-0.0591785
0.019941
0.0735508
-0.135361
0.0418687
-0.0885148
0.065851
0.102566
0.0819605
0.018338
-0.0392364
-0.00212852
0.0606885
2.01581e-05
-0.0607087
-0.000866792
0.117965
-0.00471147
0.0460166
-0.15927
-0.0137155
0.0512146
0.0165662
0.0260271
0.0449006
-0.0589901
-0.0162641
-0.0164006
-0.0135886
-0.00950261
0.0394919
0.000149996
0.0762764
-0.0764264
-0.01169
0.0349245
-0.0396351
-0.0325111
-0.0222153
0.0344478
0.0202785
-0.0485298
0.000267601
-0.0398491
-0.039405
0.00519672
0.00208382
0.00655652
-0.0138371
0.00117041
0.0513631
0.0185653
-0.0117173
-0.0313387
-0.0109867
0.00941292
0.000527498
-0.0123409
0.0187687
0.0653583
-0.0449095
-0.0309636
0.0117411
0.0256203
-0.00181379
-0.0355476
0.00421945
-0.00359612
0.00329913
0.0151131
0.0490889
-0.0675012
0.0619376
-0.062209
0.00027143
-0.0252021
0.00464256
0.0131543
0.00740532
-0.00260375
-0.00284062
0.0274109
-0.0219665
-0.0293673
-0.0138797
-0.00440647
-0.00109046
-0.00991959
0.0086064
0.00240365
-0.0133794
-0.03536
0.000209609
-0.00595333
-0.0598882
0.0524621
0.156762
-0.0426016
-0.0301025
-0.0840576
-0.057469
-0.0748389
0.0104173
0.121891
-0.0548983
0.0928754
-0.122243
0.0842661
-0.0842794
0.00312092
0.000611579
-0.00132007
-0.000168456
0.000198135
-0.0140538
-0.00138689
0.00647568
0.00896499
0.0096582
-0.00812794
-0.00377896
-0.00437082
0.00872778
-0.00860507
0.00424812
0.0396397
-0.0816085
0.0290013
-0.0158534
0.0283964
-0.0415443
0.0230702
-0.00980977
-0.0830804
0.114139
-0.0300342
-0.00102399
0.0414811
0.0147809
-0.0562619
0.000117099
0.0404855
-0.0406026
0.00978173
0.0252912
-0.0242744
-0.0107985
0.0050088
-0.0372118
0.00343124
-0.0515319
0.064172
0.0297003
-0.0423405
-0.0375476
0.0233736
-0.0447448
0.0589188
-0.00181537
-0.011327
0.0180048
-0.00486241
0.00827967
-0.0335861
0.00145838
-0.0107005
-0.0527203
-0.0333318
0.0330608
-0.0542503
0.0508877
0.0242466
-0.020884
-0.000795623
0.00443506
0.00601877
-0.0387779
0.00758519
-0.0113883
0.0425811
-0.0294878
0.0490633
0.0220936
-0.0416691
0.000889408
0.00748822
0.00272896
3.44931e-05
-0.00901984
0.00939606
-0.000410713
0.041178
0.00225835
-0.0672264
0.0237901
-0.0222866
0.0996721
-0.113231
0.0536004
-0.0327848
-0.0214446
-0.00669153
-0.00156729
0.0105957
0.00295992
-0.0092137
0.00855652
0.000839152
0.000652241
-0.0028419
0.00135051
0.0384252
0.0260953
-0.0260118
-0.0385088
0.0326053
-0.00548237
0.0131843
-0.014223
0.00300276
-0.0141462
-0.0479282
0.0223642
0.0253707
0.00522595
0.0375775
0.00385953
-0.046663
-0.00788178
0.0035859
-0.00202425
-0.0259329
-0.0306629
-0.0267695
0.0833653
0.0289897
-0.0361495
-0.0396816
0.00713214
-0.0388962
-0.0148141
0.0465781
0.00537938
-0.00614437
0.000153917
0.000611072
0.000443428
0.00409573
-0.0117024
0.0204627
-0.00726009
-0.015018
0.0171372
-0.000854697
-0.0634766
0.0471941
-0.00570358
-0.000518785
-0.0205282
0.0267506
0.0274036
0.0140206
-0.0514354
0.0104596
0.0216004
-0.0228738
-0.00918622
-0.106354
0.0871878
0.137131
-0.00298502
0.00863491
-0.00993303
-0.0105993
0.0147231
0.0436641
2.67362e-05
-0.000615153
-0.00014886
-0.000938028
0.00132296
0.0367642
-0.037753
0.000988838
0.0514269
-0.0508167
0.0749954
-0.0698743
-0.0297384
0.143752
-0.0660196
-0.0621524
-0.0155795
0.0826878
-0.0409762
-0.112741
-0.0317367
0.0326892
0.0764799
0.0281644
-0.0200193
-0.0846249
-0.00543942
0.149894
0.00781126
-0.15417
0.0414432
0.0578284
-0.0304899
0.0563009
-0.0485656
0.0227546
-0.0330778
0.0308084
-0.0104033
0.0141885
-4.69428e-05
-0.0901445
0.0469962
0.0431952
-0.018546
0.00883998
0.0179694
0.0481511
-0.00478391
0.0349018
0.053146
-0.0880477
0.0498167
-0.025027
-0.0247897
-0.0186434
0.0555516
0.0185223
0.0060634
9.06612e-06
-0.0245948
-0.106816
0.0435091
0.126174
-0.0119885
0.0315996
-0.031313
0.0396386
0.0472454
-0.0382714
0.0517223
-0.0606962
-0.0824722
-0.0449064
0.0808611
0.0465175
0.0124971
0.0347483
0.0617522
-0.0499994
0.00057615
-0.00853113
0.0490808
0.000534449
-0.0545428
-0.000241957
-0.0574578
-0.0363586
-0.0498308
0.0153664
-0.0132239
-0.0298618
-0.0315845
0.0379658
-0.00446188
-0.0100194
0.000427487
-0.0889803
-0.0197889
0.00185054
0.106919
-0.000811447
0.0395834
-0.0781485
0.0385651
-0.0860526
0.0159461
0.0673669
0.00273955
-0.0560742
0.101783
0.035219
-0.0809274
-0.0079257
-0.0441185
-0.0579406
0.153093
-0.104687
-0.0816244
0.0332179
0.00234962
-0.00270769
0.0820232
-0.129377
-0.0254224
0.119052
0.0176528
-0.0126586
0.153952
-0.0313419
-0.167772
0.0451614
0.00774151
0.0335994
-0.0311156
-0.0981077
0.0922778
-0.008634
0.0144639
0.0326151
0.00673974
0.0133643
-0.0695138
-0.100228
0.147112
-0.0319917
0.00955492
-0.0293278
0.0981495
-0.0783767
0.016875
0.0381342
-0.151191
0.0961813
-0.0174086
0.124395
-0.0534832
-0.0535029
0.0166718
-0.034724
0.0759902
-0.0579379
0.0369986
-0.0584701
0.105995
-0.0900301
-0.0885778
0.0726127
0.0524489
-0.105332
0.00573615
-0.032218
-0.0468945
0.049984
-0.0644073
-0.0857562
0.100179
0.0688497
-0.0380601
0.0365862
-0.0393725
-0.0334818
0.0728543
-0.0398808
0.106695
-0.0260102
-0.0170257
0.00523539
0.02174
-0.0795379
0.0793164
0.0755284
-0.0619694
0.0464606
0.0991
0.0854422
0.000209487
0.0665274
-0.0667368
0.0290973
0.0114548
-0.00584206
-0.0347101
0.0618971
0.0168111
-0.0618473
-0.0168609
0.101281
-0.099664
-0.0282563
0.0266397
-0.0105734
-0.0197142
0.0746074
-0.0443199
0.0710337
-0.0845775
0.0804557
0.0608735
-0.022892
-0.00735654
-0.030625
-0.00094965
-0.0323821
0.00108711
-0.00235553
-0.0375095
-0.121619
-0.00377924
0.09583
-0.0613468
-0.0307039
0.0290814
0.00982404
-0.00747533
-0.105185
-0.0395968
0.0790977
0.0492115
-0.00284956
-0.00995684
0.00284884
-0.00301643
0.00335261
-0.0278206
-0.0365553
0.0403444
0.0240315
-0.000692715
-0.0608219
-0.0621436
0.122965
-0.0637134
0.110559
-0.0468461
0.00994854
-0.00408222
-0.00402612
-0.00721414
-0.00335096
0.00858044
0.00198466
0.00202357
-0.0159289
0.0109429
0.00296244
-0.0115309
-0.00220022
0.010421
0.00331002
-0.00100956
0.00994006
-0.00783177
0.00500748
-0.00459553
0.00262078
-0.00303273
-0.0712949
0.0980653
-0.0373438
-0.00696534
-0.00978506
0.00541344
0.00127397
-0.00128159
-0.0059798
0.00398078
0.00048667
-0.008608
-0.0846709
0.0194074
0.0607312
0.00453233
-0.00857773
-0.00155096
-0.0641811
-0.0668627
0.0901869
0.0693909
-0.0800675
-0.028144
-0.00680498
-0.05048
0.094068
-0.043588
0.0441104
-0.112239
0.071294
-0.00316548
-0.115325
0.111904
-0.0085811
-2.32792e-05
0.0898536
-0.00131099
-0.00175087
0.0308323
-0.0108408
-0.0034176
0.0196986
0.027343
0.00262569
-0.0299687
-0.00467955
0.0303348
-0.0254472
-0.000208011
0.0523697
-0.0816281
0.103476
-0.0742176
0.0607906
0.0335841
-0.0404509
-0.0300943
-0.0168676
0.0301227
0.0324199
-0.0625427
0.0564742
-0.038104
-0.0613268
0.0429566
-0.030402
-0.0502223
-0.0662953
-0.0592268
0.024555
0.100967
-0.0319683
0.0620911
-0.0210099
0.0208757
-0.0254953
0.019204
-0.0394886
-0.000725274
0.129466
-0.0100344
0.0449969
-0.0878201
0.0838741
-0.0029089
-0.00647133
0.00666117
0.0235535
-3.04116e-06
0.0483913
-0.0483883
0.131486
0.0526425
-0.108673
0.0702363
-0.0378164
-0.0592063
0.00407262
-0.0420735
-0.0415408
-0.0125902
-0.0504573
0.0630474
0.0502653
-0.0635115
-0.0751907
0.0537804
-0.0663706
-0.0155921
0.0342105
-0.0535981
0.0349797
0.00917842
-0.00464095
-0.0231945
0.0186571
0.0358108
0.0331247
-0.0689825
0.0875825
-0.00475215
-0.117839
0.0350086
0.0218344
0.0484019
0.0743939
-0.0166263
0.014628
-0.0723957
0.0397725
-0.00570528
0.0899119
0.0119239
-0.118462
-0.0264683
0.0228202
0.0228521
-0.0149665
-0.00414454
0.00824407
0.010867
0.00137031
-0.00785375
-0.00483672
-0.000696616
-0.00344012
0.0213055
-0.0171687
0.0107558
0.00774719
-0.0449713
-0.0243432
0.0491195
0.0185265
-0.0433028
0.000326085
-0.0177928
0.0541677
-0.0367009
0.0383594
-0.0240288
-0.0401902
0.0258595
0.0664198
-0.0455593
-0.000646631
0.00815119
-7.87964e-05
-0.00742577
-0.000742691
-0.00139751
-0.000478991
-0.0484193
0.00156866
0.0188575
0.0279931
-0.0033909
0.0129939
0.00775149
-0.0173545
0.00129787
0.000353356
-0.00196577
-0.082242
-0.000192887
0.00033721
0.0820977
0.00458839
-0.00793438
0.0517053
-0.0527503
-0.0655703
0.00215371
0.0559205
0.00749609
0.00167845
0.0177595
-0.0710427
0.0516048
-0.0755371
0.021381
0.0020922
-0.00208629
0.000905073
-0.00105399
-0.00144961
0.00225048
-0.00140152
5.61112e-05
-0.00614619
0.0183976
-0.0111668
0.0218665
-0.0290973
0.0355268
-0.0153068
0.0125689
0.0137445
-0.0374802
0.0743604
-0.00525575
0.0047082
-0.0738128
-0.0495871
0.0634266
-0.0353935
0.0472443
-0.0471649
0.0571246
-0.0171975
-0.0960013
0.0709554
-0.00239823
0.0123778
0.0611391
0.0352902
-0.00354811
0.0689783
0.0487423
-0.04592
0.0334104
0.0125096
-0.0624044
-0.06284
0.0318439
0.054693
0.0152457
-0.0539222
0.104166
-0.066508
-0.118716
0.0676725
-0.0342779
0.025102
0.0449454
-0.00255334
0.138293
-0.041755
-0.0939851
0.0234648
0.0182749
-0.0417397
-0.0684721
0.0620412
0.0904582
-0.0840273
0.0539242
0.038748
-0.0928317
0.000159452
-0.0154085
0.0209093
-0.0309801
0.0240098
-0.013939
0.0615638
-0.086452
-0.110427
-0.0237107
-0.0226699
0.0531583
-0.0940118
0.013685
0.0140234
0.0793902
0.0499616
0.0384582
-0.0332351
-0.0551846
0.0381586
-0.0364703
-0.00583763
0.00414939
0.00311911
-0.0600957
0.0339089
0.0230677
-0.0117827
0.0120065
-0.00299166
-0.00635968
-0.147475
0.149556
-0.0131257
0.0455666
-0.092922
0.0903712
-0.0130931
0.00438861
0.000927656
0.00777679
0.0284026
0.00513498
0.0096276
-0.0431652
0.00173367
0.0038607
0.0517314
-0.0556085
0.123173
-0.119296
-0.0107132
-0.0276175
0.00181513
0.0365155
-0.0169927
0.126806
-0.0628782
0.0304556
-0.0419758
0.0614818
0.00152423
0.0581991
0.0591594
-0.0576352
0.0369934
0.039016
0.0340422
0.040429
-0.016272
0.0440918
-0.0540287
0.000209447
0.00972746
-0.00311551
-0.0231204
0.0342993
0.0447311
-0.029777
-0.00530201
0.0301084
0.0041949
-0.0419212
-0.00304726
0.0140184
-0.00061624
-0.0404385
-0.000866445
-0.0388184
-0.00527543
0.0086299
-0.0393598
0.00188081
-0.00133938
-0.000989136
0.00165694
-0.0356969
-0.086181
0.00788738
-0.0500478
-0.0779403
0.0259568
2.98798e-05
0.00189506
-0.00486274
-0.00367836
0.000463165
-0.00416956
0.00151319
-0.00212662
0.00341176
-0.00172564
0.000440495
-0.0162587
-0.00331405
0.0160586
0.00351415
0.0039527
0.00213969
-0.00523476
-0.000857633
0.0104402
-0.00473339
-0.0336465
-0.0597277
0.0723601
0.0757335
-0.0605111
0.0550176
-0.0250134
-0.0300041
0.00145098
-0.00123012
-0.00439042
-0.000545208
0.0448134
-0.0386285
-0.00563967
-0.0112479
0.018206
-0.0945958
0.0876376
-0.00336927
-0.0196387
0.0224628
0.034171
-0.0537803
0.0267578
-0.0065129
-0.0207637
-0.00079397
0.055481
-0.0656017
-0.0625267
0.0726474
-0.0197444
0.00151225
-0.00189618
-0.0354329
-0.0602932
0.0593131
0.0158731
-0.00310561
0.0445399
-0.00313605
0.00948382
0.012365
-0.0112614
-0.020848
-0.00285613
0.016218
-0.00360842
-0.0226465
-0.0239297
0.0121593
0.000942691
-0.00467132
0.045596
-0.0227718
-0.0115031
0.00907276
0.00025414
-0.00293457
-0.000264654
0.00294508
-0.00494876
0.0032853
0.00209511
-0.151733
0.0280191
0.0372833
-0.0347317
0.00267441
0.0320625
-0.0555971
-0.0192132
0.0427478
0.059474
-0.0317769
0.000804806
-0.104394
0.103589
0.0501228
-0.010571
-0.000347423
-0.00298733
0.00240016
-0.00963338
0.0102205
-0.00016039
-0.00183949
-0.0111487
0.00113991
-0.00599739
-0.00149777
-0.00714084
0.00396946
0.00654151
-0.00337014
0.00785375
0.0314589
-0.0399691
0.000656364
-0.0125872
0.0132233
-0.0551123
0.00413685
0.00699218
-0.00272639
0.00533532
-0.000715163
0.000387325
-0.0399576
0.0296212
0.0094817
0.00362182
-0.00264335
0.00394696
-0.00650741
-0.0136615
0.000334779
-0.0445045
0.0163288
-0.0111189
-0.0187249
0.013515
-0.013193
0.000571734
0.00594847
-0.00142149
-0.00605979
-0.00704092
-0.118142
0.119029
-0.000526099
-0.000361291