/*--------------------------------*- C++ -*----------------------------------*\
| =========                 |                                                 |
| \\      /  F ield         | OpenFOAM: The Open Source CFD Toolbox           |
|  \\    /   O peration     | Version:  2506                                  |
|   \\  /    A nd           | Website:  www.openfoam.com                      |
|    \\/     M anipulation  |                                                 |
\*---------------------------------------------------------------------------*/
FoamFile
{
    version     2.0;
    format      ascii;
    arch        "LSB;label=32;scalar=64";
    class       volScalarField;
    location    "0.0440925";
    object      k;
}
// * * * * * * * * * * * * * * * * * * * * * * * * * * * * * * * * * * * * * //

dimensions      [0 2 -2 0 0 0 0];

internalField   nonuniform List<scalar> 
3919
(
0.330846
0.339392
0.343427
0.349879
0.331045
0.329633
0.343902
0.333808
0.325953
0.322722
0.321186
0.328015
0.32788
0.328267
0.341831
0.344857
0.326578
0.323964
0.326034
0.334153
0.325497
0.331709
0.33232
0.328034
0.331066
0.349588
0.32863
0.327434
0.349812
0.366046
0.320987
0.326309
0.329581
0.322317
0.331763
0.327724
0.361656
0.324265
0.332941
0.344781
0.349977
0.3211
0.330747
0.339454
0.375559
0.355141
0.372229
0.34518
0.323048
0.328852
0.326047
0.329022
0.329421
0.33428
0.337207
0.326799
0.376191
0.392086
0.330151
0.325462
0.379171
0.336116
0.36755
0.3363
0.325298
0.327968
0.327721
0.348607
0.32572
0.328983
0.325651
0.339113
0.346371
0.357215
0.38046
0.336721
0.322699
0.325813
0.324841
0.326733
0.329922
0.32985
0.326242
0.328894
0.326293
0.328282
0.326552
0.330964
0.360416
0.342483
0.340865
0.37916
0.375454
0.324439
0.343487
0.341653
0.347058
0.334202
0.339989
0.325558
0.32845
0.353292
0.369391
0.327434
0.36323
0.323871
0.351811
0.337144
0.337925
0.324553
0.367397
0.342218
0.332323
0.323678
0.327858
0.327692
0.329629
0.330857
0.331573
0.356322
0.333578
0.331279
0.328403
0.368805
0.323999
0.327934
0.328077
0.330493
0.348519
0.330911
0.32486
0.344529
0.354854
0.327107
0.321238
0.333525
0.353808
0.337564
0.33219
0.35692
0.328901
0.331552
0.340563
0.324628
0.322783
0.330276
0.379893
0.330282
0.327699
0.328056
0.338463
0.32705
0.325749
0.325544
0.32686
0.328783
0.330599
0.337407
0.326902
0.323032
0.325056
0.361092
0.364199
0.326256
0.342295
0.377048
0.38983
0.331608
0.324811
0.329496
0.365095
0.327232
0.330391
0.325433
0.379907
0.330088
0.334794
0.329794
0.357719
0.359451
0.37797
0.359394
0.328948
0.332973
0.366053
0.34289
0.333272
0.321332
0.34119
0.333054
0.330465
0.328293
0.346109
0.319169
0.336774
0.327805
0.339163
0.328173
0.354005
0.347082
0.32822
0.341801
0.328991
0.333505
0.333064
0.330819
0.327516
0.35574
0.332607
0.363411
0.367664
0.327451
0.330565
0.327709
0.344463
0.329004
0.328501
0.330236
0.359657
0.327907
0.329349
0.326835
0.371063
0.362258
0.324602
0.324002
0.369621
0.34359
0.342937
0.35979
0.350617
0.32857
0.35947
0.34921
0.334064
0.330544
0.325886
0.329527
0.332354
0.343412
0.40576
0.370912
0.328506
0.378337
0.392842
0.329336
0.346217
0.377636
0.389723
0.324837
0.335728
0.386397
0.371691
0.345606
0.36453
0.371005
0.344731
0.333195
0.333062
0.359977
0.329651
0.341006
0.380701
0.370697
0.345173
0.363905
0.351331
0.388593
0.34002
0.344812
0.326629
0.3805
0.370408
0.392146
0.32187
0.328391
0.325923
0.379925
0.329138
0.358817
0.339918
0.325776
0.369582
0.326915
0.355239
0.330435
0.329725
0.371282
0.362574
0.369127
0.325859
0.344975
0.331761
0.333911
0.350286
0.374629
0.327307
0.327179
0.326384
0.365646
0.348668
0.327935
0.3294
0.32415
0.328745
0.347303
0.377751
0.353927
0.326075
0.332008
0.348466
0.354546
0.330111
0.35661
0.332811
0.328109
0.352842
0.395682
0.323453
0.333756
0.36887
0.327137
0.344051
0.337503
0.32901
0.343032
0.324712
0.339197
0.361649
0.32683
0.3352
0.330562
0.328498
0.350889
0.329215
0.330279
0.367824
0.332962
0.332185
0.327809
0.356272
0.347623
0.330494
0.347219
0.332348
0.330372
0.381931
0.360803
0.328204
0.326753
0.362298
0.333958
0.327837
0.329176
0.336378
0.353545
0.339999
0.367516
0.368352
0.333723
0.325237
0.330134
0.34514
0.327117
0.32906
0.330998
0.323606
0.336909
0.328419
0.326764
0.324987
0.354134
0.327479
0.336044
0.36899
0.342852
0.331413
0.327929
0.322638
0.356129
0.350759
0.384413
0.376317
0.325223
0.343935
0.323741
0.3405
0.331837
0.333081
0.338153
0.342056
0.350119
0.336236
0.390648
0.375536
0.361709
0.400217
0.35425
0.410086
0.332083
0.327676
0.377795
0.355028
0.323653
0.330335
0.329792
0.326635
0.379316
0.367628
0.377641
0.346924
0.333941
0.358888
0.323817
0.37193
0.372083
0.350124
0.356734
0.384328
0.325716
0.325604
0.371857
0.326853
0.37757
0.35255
0.344735
0.325131
0.325895
0.373409
0.349249
0.345348
0.347799
0.336184
0.349308
0.334304
0.360753
0.340212
0.371463
0.334916
0.40908
0.394095
0.355531
0.380219
0.360016
0.375578
0.361136
0.357467
0.345129
0.329385
0.349144
0.330839
0.352806
0.335482
0.325557
0.352306
0.360531
0.32313
0.378023
0.32667
0.326697
0.336444
0.402796
0.410488
0.349298
0.37631
0.385694
0.327119
0.323272
0.330721
0.327529
0.328161
0.324755
0.339162
0.391672
0.343532
0.351941
0.349202
0.380018
0.380065
0.323661
0.361709
0.329802
0.369415
0.32774
0.36397
0.361051
0.329754
0.368887
0.374732
0.33941
0.328926
0.33298
0.352353
0.357274
0.328255
0.327259
0.329314
0.347926
0.325867
0.339862
0.330622
0.327032
0.321679
0.371921
0.328984
0.337982
0.328184
0.339266
0.353441
0.339705
0.328688
0.341154
0.336261
0.33186
0.333472
0.347276
0.362948
0.348748
0.322726
0.349284
0.328081
0.329903
0.323957
0.325834
0.334442
0.323928
0.335227
0.367826
0.366185
0.323906
0.358147
0.374895
0.367019
0.33001
0.32673
0.321164
0.360304
0.333259
0.389528
0.36914
0.403208
0.337779
0.349982
0.32823
0.324003
0.34213
0.328343
0.333375
0.34442
0.328573
0.351468
0.32789
0.339082
0.348219
0.371604
0.416289
0.357519
0.36073
0.380056
0.379937
0.371099
0.324158
0.327593
0.324519
0.353904
0.357894
0.332388
0.35604
0.362288
0.357984
0.328315
0.328018
0.337579
0.323036
0.383658
0.355226
0.348719
0.338116
0.335131
0.36798
0.326993
0.327907
0.369462
0.335273
0.35446
0.334997
0.376367
0.323808
0.375621
0.351276
0.332348
0.331728
0.365757
0.347819
0.368686
0.371551
0.379655
0.363842
0.363945
0.329143
0.331305
0.368977
0.323084
0.329115
0.329229
0.328133
0.325951
0.364266
0.357566
0.330913
0.328508
0.350081
0.328194
0.327036
0.324671
0.35342
0.330781
0.326553
0.328779
0.329187
0.357303
0.342491
0.378015
0.336576
0.355052
0.326417
0.324167
0.329811
0.325353
0.372796
0.333804
0.325953
0.364171
0.334133
0.323636
0.343413
0.386975
0.347678
0.375218
0.374532
0.327231
0.333394
0.329922
0.326336
0.327826
0.377696
0.323657
0.334037
0.358007
0.324008
0.326734
0.330623
0.356994
0.328115
0.322338
0.32592
0.324499
0.327689
0.329006
0.359371
0.361627
0.368076
0.33033
0.333755
0.351483
0.326006
0.349517
0.360002
0.352705
0.334185
0.325341
0.333929
0.327567
0.327687
0.329248
0.324664
0.3404
0.326931
0.327988
0.354043
0.37183
0.331426
0.347772
0.335969
0.32937
0.339992
0.364921
0.334398
0.329065
0.332364
0.380431
0.326616
0.326453
0.34967
0.383589
0.339109
0.324665
0.331656
0.356956
0.353223
0.34845
0.328352
0.321854
0.327739
0.345568
0.354973
0.376677
0.347239
0.340895
0.382763
0.362631
0.361723
0.329028
0.334877
0.333889
0.328003
0.362676
0.328734
0.331597
0.330011
0.327038
0.329951
0.332148
0.326926
0.328766
0.364884
0.353786
0.363907
0.333689
0.384115
0.364365
0.325564
0.365486
0.32737
0.32624
0.323909
0.326301
0.354709
0.32281
0.379077
0.329398
0.333017
0.3402
0.357537
0.330206
0.339211
0.323311
0.358479
0.32296
0.32351
0.325575
0.377644
0.328157
0.329381
0.334533
0.32916
0.371944
0.329921
0.354005
0.324707
0.386508
0.324373
0.374756
0.363869
0.341626
0.370795
0.328253
0.369456
0.338047
0.343612
0.327624
0.327721
0.326771
0.323973
0.356966
0.330992
0.367214
0.326983
0.358048
0.324452
0.322197
0.32187
0.323211
0.367221
0.326688
0.359877
0.349805
0.327393
0.361624
0.388315
0.371218
0.341812
0.328198
0.325043
0.327188
0.327448
0.327975
0.336346
0.331509
0.331742
0.359139
0.326631
0.326002
0.324906
0.325604
0.372695
0.321954
0.360331
0.368202
0.322905
0.343224
0.323608
0.347554
0.338134
0.345934
0.327634
0.382601
0.326273
0.358781
0.325979
0.332673
0.322409
0.34419
0.358494
0.326747
0.326611
0.361755
0.326247
0.329191
0.333617
0.331977
0.326085
0.380046
0.334579
0.351972
0.330223
0.34802
0.328216
0.325735
0.333134
0.32811
0.325392
0.325105
0.353073
0.374133
0.331759
0.339037
0.329908
0.328896
0.368556
0.328925
0.326617
0.329344
0.330163
0.340531
0.381044
0.373099
0.368746
0.341013
0.336963
0.33515
0.370662
0.334997
0.363168
0.327473
0.325769
0.32766
0.346369
0.357236
0.357045
0.326868
0.33118
0.334266
0.331505
0.329215
0.325155
0.331653
0.325663
0.328426
0.337945
0.349804
0.361756
0.349136
0.330143
0.343863
0.326696
0.329371
0.325998
0.361848
0.370761
0.365265
0.324787
0.355915
0.326241
0.358395
0.327729
0.334646
0.353696
0.334035
0.324606
0.346962
0.360723
0.329643
0.327812
0.333486
0.327417
0.327012
0.335359
0.343709
0.327065
0.343493
0.330501
0.327952
0.366278
0.365454
0.368759
0.329029
0.334741
0.326548
0.324085
0.360186
0.329449
0.345509
0.345598
0.32776
0.365822
0.325468
0.348348
0.331137
0.354672
0.330614
0.359298
0.350019
0.33042
0.328549
0.328647
0.328351
0.330486
0.330781
0.33202
0.364309
0.357378
0.326282
0.325902
0.358363
0.379787
0.373143
0.388493
0.324475
0.328227
0.35758
0.333221
0.324544
0.396049
0.329929
0.323226
0.328871
0.332842
0.372648
0.335756
0.344576
0.352209
0.364494
0.344166
0.325217
0.329182
0.328051
0.341068
0.322724
0.328866
0.31952
0.375572
0.370791
0.326031
0.326851
0.326799
0.339044
0.328541
0.329294
0.34028
0.354196
0.335496
0.335418
0.334115
0.333364
0.384831
0.344335
0.38138
0.353503
0.325427
0.346741
0.330728
0.370618
0.32692
0.331519
0.328878
0.327722
0.326959
0.323775
0.32477
0.327067
0.327169
0.325565
0.328751
0.347535
0.327853
0.328771
0.327401
0.325265
0.318056
0.327825
0.342702
0.368012
0.358106
0.329485
0.372915
0.328228
0.326395
0.328259
0.326394
0.326221
0.327175
0.330478
0.330137
0.330136
0.328355
0.329266
0.329483
0.357433
0.352742
0.366554
0.32907
0.362404
0.330776
0.327313
0.358226
0.329421
0.323215
0.354115
0.365067
0.331129
0.337676
0.326646
0.33012
0.325197
0.328856
0.363484
0.329521
0.374095
0.344969
0.329231
0.327813
0.345085
0.327342
0.359905
0.340384
0.326474
0.326913
0.354468
0.329566
0.327056
0.357527
0.331011
0.331762
0.330468
0.335673
0.32561
0.353765
0.366518
0.328869
0.350321
0.370219
0.362703
0.331376
0.325023
0.326014
0.324186
0.324995
0.328712
0.366844
0.373895
0.340805
0.331066
0.333755
0.344664
0.357894
0.369454
0.327679
0.322392
0.324245
0.328588
0.3262
0.332882
0.325846
0.327923
0.357231
0.322146
0.34409
0.33461
0.346775
0.34989
0.333452
0.336677
0.341724
0.326895
0.324873
0.327203
0.32869
0.334428
0.382885
0.34253
0.333548
0.328063
0.332204
0.331036
0.334962
0.325489
0.363412
0.337054
0.332173
0.329581
0.379174
0.332695
0.332939
0.34483
0.336863
0.31938
0.32815
0.321742
0.376813
0.361972
0.345438
0.32799
0.331092
0.326174
0.327576
0.328101
0.341182
0.323847
0.349554
0.325973
0.358058
0.33119
0.332811
0.357617
0.374757
0.326243
0.367695
0.327155
0.355378
0.334719
0.38834
0.325584
0.330822
0.322931
0.322024
0.367131
0.333882
0.32524
0.328615
0.325502
0.327416
0.325528
0.339406
0.343156
0.330254
0.360886
0.327584
0.326095
0.358935
0.361464
0.326798
0.327701
0.326306
0.329035
0.328418
0.325327
0.322943
0.329806
0.339264
0.329841
0.328535
0.347471
0.344388
0.338056
0.32979
0.33717
0.326278
0.33626
0.33363
0.329677
0.326391
0.329717
0.370526
0.327647
0.330395
0.330077
0.37151
0.329861
0.33034
0.332617
0.402593
0.329853
0.339802
0.328318
0.328175
0.326973
0.331706
0.327573
0.327245
0.327688
0.323968
0.348908
0.327249
0.333891
0.337916
0.339347
0.327858
0.327129
0.32984
0.326755
0.329632
0.326331
0.325598
0.335066
0.366372
0.325819
0.330807
0.326983
0.331057
0.325616
0.327469
0.325227
0.328009
0.328685
0.326543
0.329397
0.329448
0.372656
0.358333
0.332783
0.330675
0.32882
0.328788
0.326743
0.329122
0.32675
0.327524
0.356783
0.330208
0.327381
0.35508
0.337479
0.360515
0.325934
0.345043
0.330283
0.348926
0.331425
0.355282
0.373543
0.326134
0.322856
0.336832
0.398805
0.329587
0.330112
0.329738
0.326759
0.33346
0.327792
0.330042
0.329
0.33013
0.35167
0.354452
0.379418
0.326228
0.323191
0.35025
0.330641
0.331033
0.326428
0.331637
0.330007
0.3315
0.328728
0.399434
0.32202
0.32989
0.328919
0.329214
0.34037
0.327658
0.336925
0.325875
0.324468
0.322064
0.330534
0.326776
0.325783
0.328556
0.326182
0.321642
0.33075
0.329369
0.3829
0.361706
0.33114
0.324717
0.330717
0.318833
0.336505
0.326214
0.325025
0.329331
0.32863
0.328668
0.333268
0.333173
0.334316
0.336105
0.331865
0.323927
0.3236
0.353154
0.373664
0.331238
0.346173
0.329909
0.344138
0.328816
0.327267
0.3217
0.336899
0.358953
0.326906
0.357508
0.328416
0.330417
0.328692
0.380934
0.347683
0.353755
0.329063
0.327877
0.329206
0.332573
0.326696
0.325054
0.332649
0.332249
0.325597
0.330515
0.33033
0.32552
0.329508
0.33687
0.337768
0.384755
0.328173
0.326086
0.370652
0.325384
0.330779
0.372519
0.361276
0.324329
0.321459
0.329996
0.326652
0.333283
0.326246
0.327577
0.326739
0.330037
0.368609
0.354103
0.335394
0.328
0.331151
0.322844
0.327248
0.326059
0.326906
0.326625
0.335474
0.326276
0.332821
0.330991
0.330294
0.32494
0.329065
0.330794
0.322526
0.328022
0.34937
0.323712
0.330433
0.330036
0.330598
0.352558
0.325041
0.327317
0.331127
0.327008
0.326881
0.328471
0.327113
0.356187
0.35521
0.328129
0.326942
0.328078
0.330636
0.330424
0.331618
0.329664
0.325221
0.331754
0.325431
0.328682
0.371299
0.34738
0.335418
0.327323
0.329758
0.32901
0.348604
0.32888
0.365436
0.367511
0.325969
0.3253
0.324957
0.325864
0.332146
0.356591
0.324006
0.32895
0.369493
0.371773
0.326159
0.325226
0.331294
0.339943
0.327898
0.378572
0.360263
0.369776
0.325825
0.325356
0.32303
0.36004
0.35024
0.319511
0.337848
0.357341
0.331439
0.358466
0.364894
0.367591
0.359739
0.355323
0.329736
0.354773
0.38082
0.336533
0.325484
0.34902
0.372758
0.360727
0.33339
0.3225
0.329996
0.331123
0.364179
0.330002
0.322401
0.325869
0.32868
0.336343
0.326313
0.319642
0.334622
0.339092
0.364017
0.331101
0.332952
0.324497
0.36498
0.351269
0.346961
0.325438
0.355122
0.327819
0.353898
0.329363
0.33955
0.328294
0.328828
0.326777
0.369302
0.366891
0.349279
0.330864
0.347882
0.359211
0.369651
0.352499
0.328523
0.326991
0.331988
0.32723
0.328832
0.321128
0.326924
0.327068
0.328874
0.334515
0.329589
0.324192
0.332761
0.338944
0.32223
0.325609
0.349761
0.332315
0.37374
0.327333
0.328711
0.330083
0.331723
0.326617
0.328898
0.353275
0.387251
0.331305
0.327652
0.32824
0.357989
0.329596
0.330737
0.350334
0.325218
0.328814
0.325324
0.328848
0.329719
0.358779
0.33509
0.321929
0.328579
0.327855
0.325941
0.327994
0.326689
0.328327
0.37681
0.329834
0.32811
0.362145
0.323947
0.326832
0.361005
0.390706
0.323626
0.356723
0.328147
0.387938
0.342357
0.328542
0.324164
0.326255
0.324991
0.364883
0.322109
0.33106
0.348215
0.327349
0.33703
0.324395
0.327603
0.333223
0.356455
0.361053
0.361462
0.324157
0.356702
0.332355
0.337298
0.332768
0.3298
0.325179
0.329918
0.364244
0.335137
0.376455
0.366679
0.329138
0.327588
0.330523
0.32664
0.326575
0.352745
0.330359
0.372166
0.321039
0.36412
0.332498
0.332705
0.326647
0.328785
0.360488
0.327668
0.327764
0.3291
0.32756
0.32892
0.350393
0.358771
0.370896
0.321768
0.323962
0.328808
0.357093
0.324119
0.324788
0.324549
0.363138
0.341712
0.325329
0.325548
0.324967
0.327925
0.332112
0.330175
0.364559
0.347912
0.329074
0.350993
0.325785
0.36805
0.342802
0.348017
0.354821
0.325998
0.380323
0.326096
0.329728
0.371861
0.368784
0.356574
0.322623
0.326461
0.3507
0.342508
0.357929
0.342546
0.34403
0.326081
0.371888
0.341585
0.34746
0.327247
0.354568
0.342247
0.34241
0.330391
0.327016
0.33212
0.349364
0.326126
0.333245
0.330674
0.328085
0.328455
0.327182
0.32899
0.333503
0.369683
0.360488
0.329306
0.32531
0.332041
0.36729
0.33122
0.318262
0.398406
0.357282
0.363051
0.331173
0.347146
0.339652
0.339807
0.37358
0.333296
0.371223
0.367052
0.334903
0.377325
0.334642
0.329298
0.373702
0.380667
0.376413
0.358753
0.337261
0.356308
0.36467
0.329231
0.349733
0.365066
0.346011
0.352
0.33098
0.366013
0.353679
0.336231
0.346629
0.330819
0.335123
0.349817
0.32422
0.322427
0.352771
0.35397
0.330847
0.327633
0.36275
0.372258
0.321009
0.348525
0.337848
0.362825
0.356486
0.36042
0.322078
0.341757
0.324957
0.360718
0.326227
0.3426
0.367834
0.367977
0.349134
0.338026
0.346722
0.349112
0.373253
0.356649
0.322967
0.343067
0.363937
0.359623
0.335098
0.326657
0.352883
0.326496
0.327904
0.326544
0.337072
0.329657
0.350528
0.332122
0.325638
0.326231
0.390783
0.374761
0.378192
0.329411
0.378798
0.325267
0.360962
0.327444
0.325064
0.351567
0.327226
0.326217
0.327269
0.327563
0.324441
0.327089
0.32728
0.327138
0.325933
0.325706
0.326386
0.329986
0.334616
0.34198
0.327768
0.331646
0.328553
0.327616
0.381497
0.377965
0.385734
0.328051
0.327093
0.326464
0.329387
0.326687
0.325754
0.32634
0.330807
0.32517
0.327455
0.324483
0.323526
0.344716
0.328068
0.329913
0.326912
0.325962
0.333842
0.323887
0.32725
0.32587
0.327106
0.327342
0.326117
0.329571
0.327987
0.328066
0.330209
0.332243
0.327261
0.331547
0.327892
0.326238
0.324445
0.328826
0.327187
0.33108
0.329976
0.325993
0.339691
0.330593
0.336533
0.328826
0.325038
0.328651
0.332108
0.321593
0.328497
0.327431
0.327929
0.329593
0.328627
0.336281
0.330763
0.331053
0.328371
0.32602
0.323885
0.346065
0.33048
0.329632
0.327401
0.323332
0.354214
0.342293
0.338608
0.355967
0.357943
0.359931
0.329737
0.371296
0.366511
0.34994
0.374266
0.323109
0.325754
0.377614
0.32673
0.376609
0.333097
0.348202
0.328351
0.352471
0.386074
0.331043
0.343123
0.359116
0.343059
0.373859
0.325589
0.334509
0.329164
0.354441
0.331873
0.351297
0.325559
0.334635
0.329798
0.348073
0.331987
0.332385
0.338655
0.330061
0.365169
0.353624
0.358136
0.33734
0.329877
0.326287
0.328353
0.341798
0.3477
0.329594
0.328803
0.366178
0.328833
0.328124
0.338252
0.367745
0.331055
0.33956
0.328687
0.369619
0.326298
0.323849
0.326644
0.35001
0.329968
0.349583
0.34528
0.359662
0.352137
0.354818
0.360212
0.329584
0.326569
0.33891
0.323593
0.324815
0.340605
0.336229
0.348651
0.365531
0.326985
0.327052
0.36327
0.353797
0.325704
0.331381
0.360289
0.35926
0.3293
0.330004
0.333252
0.325728
0.350858
0.3243
0.326849
0.331783
0.3329
0.332484
0.321993
0.326486
0.329485
0.325717
0.329401
0.326659
0.33859
0.330194
0.367753
0.377782
0.331903
0.365841
0.336275
0.340161
0.357981
0.325628
0.378442
0.324104
0.351249
0.328171
0.329619
0.332095
0.348392
0.384468
0.329719
0.36353
0.382957
0.349117
0.325327
0.372469
0.332501
0.333485
0.394266
0.364043
0.392907
0.395113
0.356814
0.325304
0.330291
0.393106
0.372101
0.38076
0.37489
0.338161
0.326752
0.381295
0.352365
0.37246
0.343291
0.343886
0.329635
0.328886
0.324799
0.351573
0.372984
0.326897
0.328069
0.345411
0.344866
0.357875
0.330624
0.330759
0.352238
0.365368
0.334641
0.330342
0.324596
0.321837
0.363209
0.329692
0.324452
0.339648
0.32736
0.361127
0.362718
0.359795
0.328003
0.351742
0.34718
0.353202
0.330729
0.332458
0.339729
0.350869
0.356443
0.327788
0.335359
0.330774
0.323942
0.37627
0.328316
0.352144
0.3639
0.327228
0.366359
0.329078
0.369408
0.330985
0.331216
0.340319
0.333189
0.338358
0.329227
0.326845
0.325109
0.360338
0.35987
0.344766
0.364437
0.329095
0.366692
0.33413
0.330496
0.361027
0.37506
0.327201
0.326915
0.335093
0.333059
0.351415
0.329341
0.327928
0.32605
0.358718
0.379584
0.379957
0.325967
0.382772
0.375104
0.347815
0.34998
0.356972
0.336383
0.372171
0.329324
0.329891
0.371557
0.339745
0.367837
0.327173
0.328725
0.324136
0.324857
0.326697
0.325008
0.352554
0.326603
0.324346
0.342402
0.352284
0.376164
0.337976
0.325982
0.325009
0.325995
0.336437
0.32672
0.336311
0.32582
0.326713
0.327603
0.325008
0.329175
0.376596
0.353001
0.345309
0.3617
0.372833
0.324268
0.33783
0.363967
0.325542
0.327171
0.324114
0.32609
0.330714
0.331565
0.322643
0.364747
0.326758
0.364988
0.32423
0.33043
0.330329
0.330155
0.326687
0.327691
0.33011
0.374189
0.3342
0.357678
0.327185
0.336738
0.379784
0.353282
0.370744
0.367877
0.359901
0.366174
0.365523
0.321906
0.329435
0.326571
0.359455
0.326951
0.330242
0.328588
0.329865
0.325775
0.326806
0.326261
0.36552
0.3457
0.324812
0.359174
0.332868
0.349485
0.340757
0.383016
0.35326
0.330092
0.330992
0.357565
0.329808
0.340193
0.328238
0.362038
0.332707
0.330619
0.331262
0.329314
0.372047
0.362216
0.327846
0.32875
0.332345
0.366546
0.365103
0.369229
0.332677
0.327549
0.332694
0.333675
0.340935
0.364987
0.324541
0.344246
0.325553
0.331826
0.338134
0.324889
0.373976
0.326433
0.329019
0.3755
0.331985
0.327063
0.321331
0.330041
0.350782
0.34578
0.328721
0.326597
0.324926
0.330303
0.325798
0.3271
0.324564
0.382156
0.347246
0.362868
0.329836
0.340261
0.332737
0.333142
0.366301
0.331741
0.330961
0.328782
0.328171
0.327354
0.32876
0.338789
0.375717
0.386826
0.357524
0.33116
0.326969
0.325013
0.328263
0.331906
0.32894
0.370422
0.330788
0.385417
0.329055
0.354364
0.328843
0.324262
0.327366
0.333749
0.325254
0.354005
0.322991
0.325773
0.376954
0.358285
0.35831
0.329516
0.327715
0.326999
0.32997
0.324577
0.329953
0.325698
0.355641
0.324824
0.330279
0.333504
0.329109
0.329277
0.351258
0.340873
0.327301
0.327649
0.32302
0.32576
0.325269
0.333967
0.326731
0.333299
0.329567
0.329749
0.36267
0.33721
0.333819
0.320549
0.330105
0.331525
0.332251
0.332088
0.3258
0.370932
0.328713
0.344288
0.324075
0.324179
0.330145
0.358718
0.336433
0.329096
0.328074
0.328834
0.349463
0.327854
0.322917
0.330953
0.330116
0.332477
0.37277
0.321283
0.33126
0.382938
0.330083
0.326361
0.33395
0.342811
0.326773
0.329286
0.3291
0.333291
0.330794
0.326138
0.328254
0.324265
0.326365
0.342827
0.358968
0.3716
0.326595
0.35641
0.323291
0.352919
0.3287
0.324447
0.330529
0.32308
0.326429
0.329974
0.330775
0.339962
0.326974
0.350122
0.337924
0.327153
0.324938
0.325826
0.323853
0.347347
0.324402
0.375088
0.324179
0.324469
0.336744
0.367047
0.324186
0.325291
0.327276
0.327107
0.326532
0.358904
0.372952
0.324367
0.370222
0.324969
0.35955
0.324955
0.325328
0.330474
0.32689
0.328825
0.325868
0.328083
0.324867
0.374427
0.350359
0.330723
0.334999
0.329454
0.359708
0.326391
0.328419
0.325027
0.326677
0.323477
0.331056
0.326413
0.329117
0.327799
0.328978
0.345038
0.355508
0.324053
0.324347
0.327015
0.324344
0.378658
0.327857
0.32661
0.334298
0.328893
0.327631
0.328862
0.341536
0.326335
0.323185
0.328823
0.343253
0.33347
0.360997
0.329646
0.347656
0.326489
0.374193
0.378323
0.360752
0.351169
0.341656
0.364848
0.336408
0.327361
0.331358
0.329678
0.372695
0.333137
0.338175
0.355966
0.326298
0.337682
0.332694
0.321583
0.33841
0.353531
0.335296
0.330173
0.330824
0.331818
0.332291
0.328798
0.328641
0.326733
0.354876
0.357433
0.343534
0.328913
0.360009
0.360774
0.360561
0.347644
0.339495
0.35291
0.329747
0.331995
0.333096
0.330594
0.327745
0.328069
0.329205
0.328624
0.347543
0.329215
0.370848
0.38439
0.333149
0.36068
0.364881
0.338612
0.327583
0.3273
0.324946
0.372929
0.327362
0.328048
0.336932
0.327962
0.32609
0.330847
0.35974
0.362134
0.351521
0.332059
0.328825
0.336307
0.366863
0.354652
0.366739
0.335188
0.328883
0.328902
0.324201
0.325465
0.32896
0.330292
0.334951
0.32675
0.336495
0.32765
0.364306
0.32792
0.331094
0.332759
0.333275
0.381407
0.355358
0.329854
0.334791
0.327436
0.348002
0.341682
0.331304
0.32659
0.381338
0.325205
0.324455
0.325104
0.38286
0.32318
0.337208
0.321849
0.324847
0.32912
0.325095
0.352639
0.327369
0.334473
0.341022
0.378018
0.372678
0.342668
0.328802
0.354848
0.363671
0.328817
0.336191
0.344583
0.327801
0.349026
0.331041
0.32838
0.339881
0.333626
0.328549
0.360743
0.341947
0.329667
0.359423
0.36783
0.326791
0.359096
0.336621
0.330153
0.319863
0.335775
0.329689
0.336038
0.32855
0.36338
0.327925
0.328441
0.346792
0.32913
0.351028
0.322932
0.344023
0.329293
0.376524
0.329427
0.329394
0.363271
0.324898
0.328281
0.327361
0.328368
0.366045
0.331968
0.376533
0.322992
0.323451
0.324891
0.325287
0.357673
0.329434
0.329426
0.330573
0.331079
0.331218
0.365341
0.325621
0.324235
0.327595
0.326285
0.351548
0.376645
0.379996
0.344991
0.329947
0.328065
0.360401
0.32768
0.371776
0.327221
0.326989
0.327247
0.320917
0.327638
0.328996
0.356527
0.326344
0.326396
0.325691
0.334654
0.327195
0.345153
0.355823
0.334139
0.330516
0.37238
0.329371
0.327299
0.344093
0.330466
0.33785
0.330871
0.326272
0.325973
0.363533
0.325602
0.333082
0.331009
0.329138
0.328885
0.347601
0.331287
0.331487
0.33295
0.325848
0.344708
0.362001
0.350766
0.32883
0.329608
0.328619
0.328283
0.331848
0.325492
0.346043
0.350709
0.325523
0.325041
0.329374
0.362304
0.346919
0.374252
0.329206
0.325256
0.324696
0.324375
0.381878
0.329962
0.325512
0.324047
0.332254
0.374285
0.34532
0.326089
0.32576
0.330437
0.326259
0.325255
0.325146
0.329397
0.328421
0.326861
0.329453
0.335274
0.333984
0.357522
0.347355
0.375761
0.327095
0.331633
0.332796
0.326422
0.324382
0.328152
0.328282
0.327014
0.33202
0.326867
0.376347
0.332066
0.329445
0.364094
0.32743
0.330539
0.334396
0.325924
0.338441
0.326884
0.327782
0.328236
0.362353
0.326101
0.328628
0.358654
0.327512
0.328718
0.357323
0.372295
0.347362
0.342906
0.353995
0.332631
0.33082
0.32698
0.33428
0.324988
0.330825
0.329479
0.368855
0.361309
0.358393
0.360984
0.331722
0.327625
0.327514
0.326495
0.32692
0.326575
0.35833
0.32476
0.326586
0.336241
0.332607
0.339952
0.330082
0.326984
0.326725
0.32806
0.36847
0.326402
0.326771
0.325952
0.339583
0.323066
0.32653
0.33203
0.372054
0.325288
0.327354
0.327108
0.324879
0.327715
0.341132
0.369397
0.349828
0.331032
0.327544
0.33079
0.323826
0.323979
0.32769
0.328417
0.328402
0.338829
0.326821
0.327892
0.316683
0.328795
0.327439
0.33794
0.367638
0.328226
0.324655
0.324506
0.324571
0.325894
0.363644
0.332969
0.326168
0.330589
0.320194
0.330244
0.373221
0.359951
0.366964
0.341721
0.325515
0.32986
0.327957
0.331711
0.336753
0.33128
0.332025
0.325202
0.3295
0.335804
0.352616
0.333599
0.329974
0.330603
0.329008
0.354796
0.32285
0.334602
0.3601
0.351043
0.327735
0.329509
0.322544
0.328595
0.327417
0.337139
0.352255
0.328794
0.327162
0.360038
0.333545
0.324182
0.331752
0.327004
0.355746
0.331586
0.326794
0.328744
0.325255
0.38737
0.325711
0.325363
0.326531
0.34965
0.324571
0.326798
0.32518
0.32562
0.326914
0.330648
0.328662
0.3306
0.361598
0.355884
0.33723
0.328589
0.350239
0.385397
0.325007
0.339514
0.32986
0.32717
0.351115
0.364932
0.336398
0.348132
0.326565
0.319811
0.33588
0.32453
0.326572
0.327527
0.326201
0.325859
0.353916
0.325863
0.331331
0.328532
0.357186
0.328177
0.326228
0.339631
0.327176
0.32707
0.370547
0.330673
0.351312
0.329477
0.32638
0.32272
0.32659
0.357364
0.345997
0.330459
0.334676
0.35168
0.400587
0.337571
0.337003
0.353679
0.331883
0.323221
0.327546
0.359025
0.331503
0.326151
0.361798
0.329285
0.330119
0.354976
0.326209
0.33145
0.327336
0.327826
0.361846
0.326743
0.388149
0.329107
0.361062
0.376135
0.368224
0.347365
0.401813
0.326958
0.327288
0.382712
0.368393
0.327423
0.32136
0.327481
0.353455
0.322769
0.356422
0.375644
0.381047
0.363238
0.383944
0.325886
0.327611
0.362134
0.383945
0.356275
0.373039
0.336091
0.332715
0.378143
0.380367
0.371381
0.328808
0.366495
0.330149
0.32852
0.342078
0.339218
0.34532
0.328271
0.32565
0.336604
0.356562
0.324487
0.320412
0.328489
0.329314
0.328653
0.344472
0.359583
0.340508
0.335451
0.334656
0.328933
0.329972
0.347058
0.350642
0.355294
0.335303
0.325855
0.326422
0.353714
0.336442
0.366849
0.361585
0.326443
0.32704
0.329656
0.32659
0.327279
0.326932
0.333735
0.326016
0.330404
0.359887
0.366011
0.327816
0.330417
0.361048
0.327667
0.330143
0.324625
0.330286
0.368587
0.333017
0.348039
0.359043
0.392574
0.328746
0.35623
0.344026
0.324547
0.328255
0.33224
0.336288
0.325204
0.348497
0.355902
0.327252
0.341877
0.330175
0.324777
0.356599
0.357787
0.328721
0.328765
0.349185
0.360819
0.330906
0.364423
0.329604
0.351414
0.361852
0.328432
0.351715
0.327751
0.349889
0.323462
0.349246
0.331808
0.325432
0.351665
0.379673
0.329569
0.33682
0.329558
0.335094
0.346714
0.325888
0.367367
0.327307
0.329295
0.331045
0.373655
0.333032
0.323351
0.326901
0.34357
0.341311
0.32673
0.363387
0.328076
0.343252
0.325727
0.325979
0.325977
0.328154
0.325361
0.336767
0.328467
0.325269
0.352068
0.327965
0.326753
0.32616
0.329293
0.351651
0.396503
0.335652
0.383612
0.348347
0.38299
0.342808
0.327905
0.335072
0.324596
0.366254
0.329893
0.351345
0.328452
0.328925
0.380173
0.367151
0.334185
0.325694
0.330683
0.339332
0.361217
0.328808
0.344992
0.348597
0.324802
0.356874
0.327618
0.32749
0.341875
0.367161
0.345018
0.369819
0.319589
0.377465
0.331243
0.330179
0.357655
0.327367
0.330472
0.329612
0.33518
0.32873
0.331917
0.331253
0.330962
0.32819
0.329854
0.328794
0.32772
0.345827
0.356162
0.336344
0.346265
0.362804
0.337917
0.352056
0.326239
0.325196
0.325644
0.327927
0.333448
0.32954
0.329847
0.32888
0.324742
0.3251
0.343066
0.352994
0.327088
0.328216
0.329435
0.3572
0.326844
0.348543
0.331268
0.368029
0.34368
0.325914
0.35718
0.330081
0.363003
0.326268
0.327696
0.333443
0.347977
0.32752
0.324804
0.329811
0.327857
0.346602
0.32713
0.326652
0.327929
0.328416
0.330528
0.330459
0.331398
0.339243
0.364894
0.336278
0.323884
0.328895
0.331739
0.326164
0.327448
0.328155
0.328148
0.327699
0.327746
0.325257
0.322621
0.325136
0.324688
0.328923
0.327451
0.326676
0.368176
0.326666
0.33893
0.334314
0.326796
0.32771
0.325379
0.32915
0.362201
0.330991
0.327404
0.331967
0.352653
0.329739
0.378364
0.353133
0.372409
0.367113
0.331428
0.332486
0.328684
0.33186
0.326162
0.330997
0.353839
0.325972
0.370236
0.330236
0.326601
0.327843
0.335525
0.330465
0.326596
0.327268
0.328263
0.354689
0.327543
0.326007
0.37601
0.363577
0.326367
0.365251
0.331752
0.362009
0.329357
0.325411
0.329774
0.33149
0.324672
0.335172
0.341454
0.3252
0.326757
0.330083
0.365753
0.362051
0.351792
0.32823
0.327764
0.326321
0.369974
0.353152
0.329271
0.328031
0.362212
0.372482
0.327172
0.355636
0.354041
0.327154
0.355471
0.328374
0.329159
0.327852
0.329062
0.328314
0.327921
0.329184
0.326678
0.32862
0.330173
0.32724
0.326681
0.330755
0.353444
0.368727
0.332074
0.329146
0.34783
0.327064
0.33145
0.344169
0.328664
0.328527