/*--------------------------------*- C++ -*----------------------------------*\
| =========                 |                                                 |
| \\      /  F ield         | OpenFOAM: The Open Source CFD Toolbox           |
|  \\    /   O peration     | Version:  2506                                  |
|   \\  /    A nd           | Website:  www.openfoam.com                      |
|    \\/     M anipulation  |                                                 |
\*---------------------------------------------------------------------------*/
FoamFile
{
    version     2.0;
    format      ascii;
    arch        "LSB;label=32;scalar=64";
    class       volScalarField;
    location    "0.0440925";
    object      omega;
}
// * * * * * * * * * * * * * * * * * * * * * * * * * * * * * * * * * * * * * //

dimensions      [0 0 -1 0 0 0 0];

internalField   nonuniform List<scalar> 
3919
(
72.2627
72.4563
103.382
140.193
79.9153
69.0766
107.349
64.3616
45.3053
78.7734
71.0567
56.3067
66.5962
54.2099
68.0085
97.4355
48.626
50.345
57.4908
62.2381
51.5445
81.9325
45.4306
49.6528
44.8304
74.1706
45.223
50.5022
107.103
87.5022
70.5685
52.8354
45.7048
60.5176
47.092
47.6799
149.969
71.449
48.2372
74.0025
66.6297
53.4833
48.1132
73.6434
166.632
115.667
182.019
84.3128
58.1524
44.7362
44.831
77.7248
44.4976
67.2806
92.0103
44.6716
122.07
126.664
45.922
62.5494
125.662
80.6815
106.304
91.9283
57.1267
67.911
45.4706
88.4752
60.4958
44.7236
48.9237
87.7753
118.817
105.783
123.664
93.2099
47.4311
45.1086
52.3188
72.3666
76.1873
44.961
46.6625
52.216
49.4206
51.5912
59.1761
83.1082
86.1321
81.1046
94.5706
133.038
132.388
44.661
84.8075
84.636
82.2361
65.9744
90.9622
48.8549
46.8015
72.1952
104.932
48.1872
147.474
47.3113
95.9508
81.7819
76.0778
81.0727
90.3434
68.4593
71.3756
49.5234
49.0729
50.2447
50.7942
56.7473
79.2963
79.9296
65.3545
67.7937
44.7531
108.876
46.9984
51.9422
45.5136
69.2398
113.127
61.4529
48.0918
75.5699
129.65
44.5943
56.2255
60.0056
71.422
61.9668
69.334
78.3823
58.349
44.5479
73.6296
44.9101
51.2238
63.1282
150.845
46.8787
47.0778
58.7994
70.931
46.5812
54.2989
54.6234
49.7906
45.4498
45.6956
72.8363
44.9123
71.8181
52.6115
91.0366
130.334
50.4655
95.0558
123.825
127.415
78.8159
67.8068
44.9639
172.744
59.0074
49.3152
46.7136
119.708
66.5992
83.9373
49.4911
81.8392
87.3183
190.564
89.0679
45.3221
71.1966
85.4584
70.5184
88.6918
56.1196
74.4346
80.3616
64.695
67.6676
115.355
61.1426
80.0728
45.7641
97.3636
47.6713
92.4889
139.376
46.1631
78.7128
48.4222
70.7843
90.6787
44.8764
44.1102
118.522
70.9
83.988
120.483
47.8713
45.4579
44.7636
91.7559
44.9061
44.8533
73.0533
73.344
49.4578
45.0501
61.3873
70.0823
68.6871
45.0107
48.3318
80.3769
73.8203
85.1761
65.8598
123.248
55.2738
128.833
72.7467
70.3209
67.2717
54.8185
53.7373
73.4927
68.5041
193.277
93.5307
89.2638
186.561
190.179
72.8619
98.0276
126.629
164.835
99.6768
106.399
186.152
125.699
109.114
108.126
114.979
93.5578
74.3554
81.0476
109.123
68.8617
84.9333
124.812
123.16
86.4376
152.25
87.2747
182.723
79.136
82.6756
57.5206
110.585
109.109
146.224
80.4278
79.2406
44.9407
153.969
83.0978
89.3583
88.7963
61.2939
121.884
56.0007
103.143
55.6561
45.4667
105.602
81.9344
183.674
45.1019
71.341
71.6688
45.6752
81.335
154.735
53.7168
65.5753
49.6463
171.703
70.5904
74.8011
69.2507
73.0129
47.9597
80.8888
158.207
100.643
51.7384
71.7897
90.9937
90.8085
68.8427
115.713
87.4081
65.9307
82.7584
171.303
55.6382
69.4053
77.5212
46.4546
76.7965
72.8242
71.1128
81.6942
60.1552
63.2051
89.347
51.2343
60.9345
44.9229
49.6152
83.441
48.9653
46.727
183.988
94.0258
80.3454
65.4452
89.4429
84.8965
68.2914
126.865
68.5134
45.7638
93.212
96.014
59.5677
65.4618
140.487
64.9269
45.3754
63.1181
75.3637
87.8433
76.5975
104.163
92.7534
45.275
46.7444
62.1322
65.6802
55.4542
44.7495
45.547
44.4001
95.3329
49.9781
44.669
56.0143
81.0687
44.6722
69.8127
95.7772
79.5785
49.1844
47.6374
51.7635
79.6837
89.6127
156.741
91.9522
91.0111
97.5207
55.1578
103.665
85.2774
68.1845
92.0943
77.5935
114.837
69.4715
188.564
91.6008
89.2153
167.036
128.631
169.08
45.617
56.985
87.2364
103.386
44.8177
71.1651
69.8995
61.3523
106.738
103.811
129.505
84.9654
68.9724
79.2119
65.0035
127.631
80.7216
101.033
90.3027
129.738
48.8071
67.3263
126.14
51.8277
127.107
122.827
77.6617
45.7645
48.9556
85.1314
78.5572
53.8306
70.624
61.5485
75.5713
60.59
117.375
96.0505
113.944
91.9618
206.91
203.091
102.507
116.398
107.568
125.77
93.4871
93.2576
99.5669
69.0777
82.2275
66.3822
110.728
74.1195
65.3686
151.844
124.205
49.4336
86.5347
85.9635
83.0013
98.6116
168.161
169.757
100.375
128.376
109.687
46.7922
60.5687
47.1198
48.8451
49.8208
53.9284
96.4011
150.24
69.1107
90.6654
103.577
147.991
135.695
49.7563
102.091
62.2729
89.5471
45.6165
87.6683
88.3073
73.1118
80.024
95.2159
91.2833
45.2295
60.9854
88.9497
129.218
82.2383
77.7475
63.8913
126.78
61.4153
92.3766
67.7961
75.5469
61.422
148.167
67.2255
71.2134
73.6466
93.4418
133.313
74.7149
82.3326
85.4063
79.3537
69.2051
61.8963
53.5083
118.498
58.4943
75.1065
131.036
64.6693
91.5176
77.6157
49.1569
77.2973
58.2556
71.7385
91.2971
97.0072
85.8763
142.205
113.17
111.975
49.421
45.5577
59.7762
93.7276
79.4688
229.48
116.909
233.47
97.8826
114.452
71.7222
53.7948
91.3323
73.2205
80.5516
85.173
56.3956
116.892
56.3531
78.3585
113.045
118.393
184.796
131.942
117.88
124.824
108.863
107.591
75.6194
46.666
47.8388
89.9826
61.7387
45.6206
90.2143
146.236
93.4703
45.5447
53.4399
75.8566
72.8935
177.183
82.7848
84.6518
79.3962
58.315
70.4441
43.8726
45.1488
101.551
69.1299
93.3746
56.498
81.1062
59.8304
92.4403
73.1172
88.62
77.6698
100.485
106.17
104.833
100.624
101.717
99.5742
99.5909
50.5202
63.6071
81.6751
47.8781
50.3113
45.2976
57.8024
49.2767
101.943
75.602
76.877
49.6483
88.8192
47.2618
69.8929
47.8732
82.1827
72.9057
58.5296
45.379
46.4406
97.6366
72.6508
92.479
63.2459
72.2617
57.9679
52.8709
45.0365
77.7459
142.501
45.4019
59.8139
88.2968
65.0282
60.9808
85.7881
131.095
114.328
95.3658
167.9
44.5163
69.4749
71.0326
49.8862
45.101
190.497
60.1923
80.6134
68.2163
44.3553
44.7866
55.0035
107.12
45.9526
55.551
47.1066
45.4255
48.2171
44.5644
93.5523
74.8479
108.325
48.1403
56.8712
96.0873
49.776
72.9232
91.0864
66.6557
84.0707
44.8457
62.689
48.4169
44.4386
50.2193
44.837
60.5625
49.554
47.5713
64.837
111.872
53.6437
101.766
59.7683
46.1203
79.7664
94.3724
73.224
51.014
47.0145
99.3983
49.4268
46.1896
81.3159
145.93
65.339
44.1338
45.2798
73.6959
97.2454
91.4458
44.6093
53.15
46.0108
98.021
126.13
105.961
95.2461
85.1528
96.674
109.687
69.4055
51.8964
71.3613
62.1036
46.0515
108.811
47.4658
46.4847
50.0675
49.1538
47.6856
76.8574
47.3278
44.6476
79.8613
72.4628
88.0319
82.884
137.754
89.0579
79.2641
147.323
72.4567
44.1125
48.4726
45.4395
85.1675
56.0367
102.863
72.2725
83.4112
82.1111
68.2686
55.7402
60.0672
53.5596
104.759
57.6481
59.5707
47.6774
102.104
51.565
44.5873
57.5518
60.5906
110.525
44.9878
67.1241
55.0872
127.627
44.3961
88.3834
120.943
70.3176
143.871
46.7699
64.9397
76.7429
101.947
63.7202
48.9792
51.2762
51.8223
100.917
44.9959
84.5746
51.321
73.8076
65.8742
54.5961
69.8515
62.086
94.3447
62.8458
81.1503
88.9276
45.6074
82.5189
176.404
91.6443
78.4937
48.3769
64.0603
49.2367
48.866
44.7357
59.072
76.3116
60.9205
93.187
49.1744
43.8258
58.1828
46.2802
91.0221
54.6077
86.5906
87.0573
50.8718
61.3208
49.3641
91.0726
82.5519
57.9905
44.7462
114.519
45.0192
103.81
55.958
62.2065
55.1544
68.8844
90.5951
47.1011
45.9788
92.2814
54.9099
47.4482
48.89
53.3589
46.4342
106.677
45.8483
69.4394
51.1551
101.143
44.5144
63.1958
80.7129
47.6614
52.2313
52.2072
87.2486
130.477
52.7072
65.9647
44.23
44.7119
148.579
65.7465
44.7384
65.435
49.9089
47.8752
87.0216
86.1101
122.961
71.1631
59.0064
58.2629
123.273
53.6765
99.7518
69.6437
62.2255
67.6032
78.1072
92.6394
84.2282
48.3388
45.1935
45.73
44.8776
48.9961
46.7884
45.1298
59.9374
46.874
77.4512
84.4377
131.755
73.4095
46.1122
101.398
51.3808
44.9476
51.6423
75.5018
85.2092
76.098
50.1175
46.1881
46.1326
93.2043
55.9593
83.0186
104.75
61.011
50.6941
80.8707
133.496
90.4501
71.2646
88.6279
45.5795
51.2379
86.6055
67.0989
45.4089
81.8251
51.8429
47.6702
78.7835
85.2236
102.734
49.5246
62.9127
48.3086
48.4952
125.999
69.456
86.3261
119.407
51.9854
87.6447
43.8187
80.1642
46.5968
94.514
45.4791
79.514
78.4811
72.7032
44.8357
44.7725
44.6293
44.9406
44.857
44.8223
72.2995
87.2398
47.3067
47.374
75.376
156.832
87.5625
173.5
45.2737
52.9257
92.6356
55.9359
48.6711
180.017
46.656
51.4637
49.8752
45.1087
85.0479
70.0237
80.8588
75.4139
99.8581
81.4761
47.8257
46.1899
44.977
64.3281
55.4754
50.9012
53.7019
117.483
90.2696
61.3381
44.8688
44.4586
62.5873
45.1104
45.1484
58.6582
85.3862
63.6746
64.0772
46.1226
48.587
93.3087
89.4696
112.365
126.651
49.7831
96.2902
71.8488
100.693
52.3941
46.5488
59.97
48.8617
67.3039
52.9823
49.9689
58.543
46.3614
57.549
65.7742
81.0377
55.413
44.8927
45.8655
49.4289
64.9129
45.248
66.9039
68.8558
80.1223
62.5082
90.0966
46.2516
47.8766
47.5802
49.0359
47.4634
46.135
49.0795
48.9042
46.0195
47.3568
48.4459
45.9024
94.4648
83.2753
66.3057
71.2524
92.4526
45.3093
49.5511
97.3053
48.7559
68.0528
95.2575
76.4431
65.7355
69.181
46.1533
64.8832
47.8311
45.7327
100.796
54.7056
97.9067
72.1654
61.0339
44.8712
67.5146
47.5512
84.5057
68.8273
52.0676
44.7906
82.6978
44.4108
44.3992
84.226
47.153
49.1468
55.7371
73.2702
45.9282
66.9175
92.4815
49.455
83.3062
102.932
101.883
68.3722
49.2274
51.8951
54.6997
46.0353
48.7492
90.7943
91.662
67.209
67.1643
67.6638
80.581
102.793
68.9889
44.7579
57.6822
59.0558
68.1141
46.0441
66.5114
87.8501
51.986
91.1417
62.6346
80.3149
66.8258
70.9471
100.48
66.781
72.7269
68.9995
59.6472
61.8124
56.9495
48.0038
52.8342
127.995
65.2323
47.9771
45.8789
49.0886
45.1826
53.9207
54.7506
78.4743
70.0814
45.7624
46.0112
142.258
64.5002
48.0498
68.7111
58.7866
58.1788
44.9149
53.825
135.491
97.4451
83.6536
48.4716
48.5301
67.2392
50.0517
44.3518
74.447
55.9547
64.7393
48.3647
90.6535
45.52
45.4984
85.5166
84.8082
44.8294
69.976
50.0481
79.3889
47.1727
168.279
49.8832
55.2582
49.2364
49.8738
93.3822
60.0834
47.1234
44.3082
46.2113
44.7383
48.6187
73.0991
85.6728
60.6612
97.6408
45.6151
46.6062
122.186
73.1231
47.4184
44.5327
49.2978
50.6147
53.2827
48.9707
76.7806
44.8271
60.4827
45.1012
48.3863
61.4072
86.4065
67.7769
46.5008
69.6804
45.1566
61.8898
68.0628
44.5487
46.2309
72.6467
92.0309
60.8462
46.8578
47.0003
161.553
45.2004
45.1089
64.3046
179.614
61.7284
74.2477
51.6887
44.1992
45.2945
72.4776
45.4494
45.7834
46.4787
52.7426
76.8323
44.9974
74.4982
79.1694
66.5485
45.11
45.8417
44.6956
60.218
63.0516
48.1976
56.8698
98.4515
123.752
52.3312
44.4472
66.3669
88.7763
45.8973
45.6474
46.6437
47.669
44.7938
48.8183
44.4028
56.6501
79.4659
72.4992
48.8809
46.684
45.5983
45.7164
47.2032
44.9474
47.7023
44.5725
87.593
44.7451
44.372
100.806
77.2128
89.7457
50.9551
105.312
50.497
77.4999
60.5343
89.3178
94.6783
52.1195
66.845
58.6956
184.904
45.027
46.3169
46.5135
45.4326
46.7809
50.4271
45.3892
45.7565
46.3325
92.7471
100.02
114.046
43.9767
63.2992
91.1772
46.3651
68.2811
48.5093
44.5136
45.8649
44.5181
44.4296
189.263
63.0002
53.4776
45.0381
46.004
73.8459
47.4563
78.8392
86.8499
44.8701
51.2983
94.8259
71.6826
47.6346
45.9635
44.4246
51.9008
48.0721
44.4716
103.383
105.443
45.0363
45.7953
78.3706
86.3867
75.6432
47.9051
47.3027
71.9049
52.8877
58.6934
48.2348
48.4445
72.222
66.6441
45.4748
46.3937
58.2234
73.9664
105.903
48.7774
85.502
62.3065
85.3369
56.9779
46.7925
54.6304
60.9931
105.268
45.6035
99.346
45.2707
46.2787
47.5436
107.989
67.1474
83.2838
46.7327
47.911
46.9061
45.619
47.2067
46.9108
70.1921
45.1633
47.9939
44.9071
44.813
48.3486
45.2372
76.2328
76.5817
157.853
48.4574
48.6052
91.1605
49.8134
76.999
80.6917
105.867
72.6365
61.2178
47.2608
53.283
60.6102
44.904
50.0643
49.4238
45.8682
98.6789
71.194
75.999
66.8374
48.7625
53.5232
50.1934
47.303
50.2006
46.1794
45.645
49.0989
65.5784
48.5216
50.9539
47.3272
71.6003
53.9743
55.438
45.5164
81.4108
49.5673
48.4966
49.8755
44.9783
85.7279
45.0464
49.1998
52.3135
45.2589
45.2579
49.2374
45.1033
81.2508
101.536
54.6836
44.7134
50.5514
45.107
48.1396
45.5576
44.5194
44.1782
45.4457
48.0294
44.7728
103.809
75.9896
52.9532
44.8912
46.5117
45.6221
82.5711
48.4934
89.189
109.928
44.037
44.0013
44.2537
44.3585
45.1321
78.95
46.0498
55.0328
78.3505
77.1383
55.7675
49.5674
44.861
64.4962
46.2966
94.5962
105.46
115.579
45.1713
49.4043
64.0139
70.6773
68.0366
54.8812
67.7449
65.2831
44.7237
98.0968
76.9365
114.811
105.471
85.8313
45.7753
82.0374
194.322
71.2058
49.7444
67.7331
82.725
90.4111
62.4143
49.7179
44.8907
45.3965
111.763
66.1448
53.436
46.6784
44.751
91.4294
47.9096
83.6678
83.0414
71.5183
111.191
50.7511
66.4935
46.2922
100.378
88.3289
64.6924
46.5412
79.9297
44.741
69.6293
64.5046
73.7459
51.7598
48.5932
76.508
93.7669
105.562
97.7562
45.6984
70.9437
98.2515
101.647
71.118
70.0275
49.5635
74.5308
44.8368
46.1709
63.462
44.5622
44.5501
44.8949
74.9664
45.0419
53.0483
74.704
64.6757
53.1641
61.0076
87.9441
73.59
113.651
44.9424
45.869
44.7327
45.1977
46.1616
44.319
88.112
190.876
44.992
49.0755
49.8348
95.9047
45.1583
45.7588
79.173
47.0571
64.2605
56.921
48.5253
48.8479
73.7147
45.4064
51.3322
45.7312
58.8623
53.3982
46.5739
46.1787
60.214
90.4384
44.8477
49.6641
153.948
61.915
45.0587
138.301
96.0991
50.11
73.4787
54.7339
137.311
70.9219
47.0026
46.3412
48.1241
46.5304
105.69
54.5414
46.3974
71.3583
48.7564
71.3332
63.3322
50.819
45.3948
81.9277
110.24
85.9747
46.1463
59.041
75.9355
71.268
45.2582
44.6347
48.2918
44.7966
91.4879
62.8452
107.352
111.094
46.1
44.7165
44.9513
44.0674
49.2069
72.186
50.0512
129.942
54.7796
123.065
45.8906
45.1195
46.987
45.1283
91.7587
68.1055
45.5533
49.4621
45.7758
46.5387
109.362
101.723
86.4364
51.0151
47.2207
51.9702
88.5893
46.7455
45.5659
45.9212
92.4038
63.5242
51.254
51.2315
49.6797
49.1876
45.4512
47.964
111.271
101.839
64.3571
100.606
68.0733
73.7863
89.2507
70.848
70.4496
44.885
98.7166
49.2538
44.6077
97.6124
99.5513
101.404
53.6209
51.5121
110.061
96.3029
111.189
98.0466
85.8978
46.3242
98.0158
93.9434
67.7454
47.6749
100.734
95.7223
105.329
48.3567
47.0412
79.1789
77.466
44.6464
45.1918
44.4269
45.3132
60.0756
45.8336
45.0236
78.5774
88.0811
68.1491
66.3011
59.9656
80.8853
92.5786
61.438
73.6851
139.149
80.6799
82.0585
55.2618
75.7994
71.3924
71.0161
141.939
62.5307
141.491
106.537
86.2228
116.32
89.7823
79.382
84.3208
85.1026
85.583
80.3044
57.8392
93.6887
94.7824
67.3958
77.4377
83.1189
72.946
114.284
64.7661
124.702
96.3229
61.7247
105.17
53.1197
91.9204
77.5977
62.1794
60.8991
93.7645
92.4441
65.8285
50.953
95.0806
77.8762
71.3523
101.316
95.3372
107.551
121.272
116.496
58.1885
96.5088
53.6046
123.798
66.8843
98.0465
90.6505
90.6686
121.795
85.2893
78.031
97.8027
125.686
60.2254
58.1241
53.7426
66.0703
99.2657
93.9582
67.9399
89.9966
45.9844
44.791
52.5859
94.4272
50.2096
71.6907
60.3096
70.7279
49.4379
207.615
94.5576
92.5007
61.303
100.699
70.9836
98.3001
47.3051
59.63
119.076
44.0594
44.5925
45.1342
44.0012
44.1632
46.61
44.1914
48.0358
46.9876
47.826
44.3066
61.9231
67.5244
88.6972
44.6214
46.2033
50.792
49.5803
93.7612
98.8134
99.8238
62.5829
53.3446
67.2544
68.5565
44.1075
45.9549
47.1915
87.8745
49.0509
80.4959
73.5722
84.2403
110.981
45.2637
58.949
58.257
46.2372
62.4778
45.4074
47.2685
45.4947
46.2452
47.3043
64.6461
69.3364
45.8361
45.2566
63.8524
63.8149
57.6765
45.1509
46.8503
45.9339
46.3125
46.5166
45.1721
45.0474
44.9695
48.0204
65.5552
44.8502
64.6832
47.5238
55.7137
45.2772
52.2249
67.932
45.1688
45.6388
45.2389
44.7979
51.556
74.491
44.7197
44.9024
47.7629
47.2167
54.8591
86.266
48.4964
51.6396
53.9465
60.5089
82.4677
82.5979
68.9076
90.4432
90.6932
100.235
45.6663
101.805
84.606
80.0664
113.925
48.4756
46.7906
111.432
48.6646
117.154
66.9457
98.5812
52.5278
79.208
95.0072
48.7473
81.494
101.22
75.6161
98.5368
59.0878
48.2997
52.1846
73.4111
45.3749
76.1189
46.9454
79.2486
45.6417
97.5481
68.6444
73.5036
73.34
44.9526
90.1809
86.4462
101.954
89.9164
45.2004
50.7875
44.4568
87.0401
69.4571
73.2977
44.2448
101.17
47.7564
44.8257
62.072
101.386
45.8482
59.7147
44.3907
109.502
48.9054
49.3956
44.6187
64.7806
46.0194
95.2211
103.512
90.6723
65.9201
102.79
139.378
45.2424
44.2711
61.3784
62.5062
50.5945
64.4074
80.7022
97.7395
117.151
57.7669
44.302
96.8789
89.7167
44.6774
44.8193
93.6721
84.4893
45.2789
45.3478
46.0999
47.1597
76.6264
48.0751
44.4345
45.2729
47.9309
45.0483
63.4206
67.0483
44.6275
45.9605
45.7767
44.6235
64.882
64.1736
98.9568
100.296
53.9085
101.952
54.7415
72.6181
100.853
45.9807
111.55
48.663
89.6931
52.4965
60.7808
45.2802
96.7613
96.4104
47.431
88.8348
144.428
99.9624
48.5204
110.889
76.5034
63.7354
133.744
117.081
179.539
131.543
78.974
44.7781
64.0156
163.136
168.763
160.556
165.338
85.3402
45.5907
101.938
76.234
100.749
83.6601
70.7227
49.6234
56.192
89.3304
81.4126
173.415
47.0319
45.8166
84.752
80.7476
86.2951
58.339
70.2162
68.2608
87.1931
69.9051
46.2563
46.4149
50.3032
86.4326
58.5801
54.9964
95.6098
45.234
69.7853
101.884
86.0584
45.9825
89.8511
77.3167
77.984
46.5952
50.6488
71.8607
85.291
85.9659
44.9734
64.5076
51.067
47.2281
81.1492
46.8016
139.826
101.644
51.4021
100.076
68.1034
100.491
67.5537
69.2592
47.4423
45.2813
69.0805
68.9744
68.9744
46.0624
121.925
93.5517
79.0128
75.7508
48.5064
95.3125
52.4083
45.0895
67.1871
69.5097
62.2847
45.7657
69.8349
58.4241
72.9539
44.5153
51.45
50.5258
79.7726
133.512
93.5753
76.727
116.729
78.9427
88.7846
93.3126
69.1851
61.4386
101.362
47.1332
45.3841
148.094
89.3229
166.395
47.726
46.2696
49.9558
49.3125
49.8463
46.7368
78.3385
52.6117
56.1211
78.465
93.4484
100.575
78.0339
57.1137
48.377
66.5376
62.9958
45.2438
83.6953
46.5893
51.1506
50.2832
44.9802
44.8133
161.288
91.1584
105.84
138.945
176.822
53.6752
75.6383
153.536
48.9815
46.5669
52.4626
56.2355
47.3462
47.1484
51.7031
94.392
66.6592
124.973
45.2353
46.1302
48.8135
49.7523
44.1682
45.2406
45.3745
192.624
73.9315
122.276
47.0926
82.6154
186.304
97.3853
117.442
116.988
65.7018
112.496
117.149
49.5883
49.4762
53.734
111.037
49.4515
45.191
45.9524
45.3361
43.9665
46.9379
44.423
102.675
84.8117
71.8148
101.781
51.4004
79.1598
68.5353
153.39
71.6797
46.1528
45.3022
87.2639
71.5913
71.1416
44.6043
102.507
48.3163
72.2998
66.8338
50.1592
156.037
83.5964
44.2384
68.9942
48.3958
83.5101
86.6143
87.1049
65.5411
52.7572
45.1532
83.26
81.7481
83.4674
44.517
93.7859
53.8594
45.1058
62.3034
61.4745
80.901
54.0222
47.8265
103.288
66.7024
49.0229
55.5875
49.4194
108.661
79.8685
45.6672
46.6267
53.8633
65.4177
63.3681
44.6252
47.3095
121.763
70.9576
97.0829
46.6596
67.6881
74.4118
45.3547
128.125
46.8959
46.1764
45.5873
50.2918
48.1551
44.8235
62.1607
120.041
107.624
82.2555
46.1243
44.3609
46.2907
50.8844
60.0583
45.2747
146.112
45.6474
117.193
68.4812
82.1138
54.0989
58.7844
48.9292
57.1998
58.5197
74.3476
64.1029
44.1457
121.996
151.534
94.2167
44.8101
46.897
53.267
45.1023
50.6888
45.3702
47.2192
97.1212
56.2576
44.922
59.3095
48.3587
53.2581
74.3377
87.0215
47.5507
45.0062
72.6833
48.112
47.4556
46.2551
47.1543
45.5873
59.3303
48.1468
104.953
77.8642
76.5074
66.3518
45.5727
45.9213
46.2552
45.7213
73.0439
140.442
45.963
116.07
53.9148
53.5671
84.6968
131.17
83.1167
67.2467
46.7922
44.932
82.0538
51.3637
58.248
48.1785
88.7894
72.0908
111.089
50.822
45.1067
131.809
62.6645
45.4896
53.2566
77.1122
46.1861
45.1293
45.0704
57.1692
49.3662
44.6973
50.3773
64.2974
50.879
72.8889
141.172
143.633
46.378
103.993
54.3045
87
47.7767
44.9864
53.2509
51.787
45.2129
45.7586
52.8647
62.5307
48.3702
89.462
69.2451
46.5422
62.4176
44.9483
44.599
83.6823
45.7957
115.614
46.3999
46.5968
62.2488
83.9314
44.365
44.7562
50.5536
49.9375
49.418
85.8789
115.223
45.6686
100.717
45.7911
86.7256
54.0729
50.414
62.4825
45.4112
45.6614
45.9119
50.3837
44.8921
96.5966
83.2202
53.1706
75.0131
45.3844
82.8597
46.6553
44.675
48.956
45.4053
66.3395
48.8678
47.5777
44.7522
45.5124
53.2609
88.0708
100.503
44.7616
50.343
46.2851
56.6903
100.41
48.3614
44.5813
53.6201
49.3389
45.7679
45.0842
84.5584
45.0971
53.6799
53.8771
98.724
82.3943
100.183
46.7513
83.114
49.7098
87.1812
90.7457
113.327
88.7999
95.1496
70.3367
75.6548
50.2146
45.2002
53.7305
88.4389
67.9124
66.9548
82.0787
44.8263
88.1241
86.6902
79.5532
78.7259
120.282
87.0704
45.1089
46.357
45.1512
45.9384
52.2585
45.4014
47.1005
97.6565
99.6867
106.223
47.234
86.5103
117.06
92.6511
103.749
74.0047
88.5782
44.962
46.8715
46.1132
45.1521
50.7794
46.4139
60.3946
44.7137
77.0048
46.7792
160.673
163.576
63.9773
126.085
93.5751
78.1452
51.7811
46.0957
59.5441
143.891
89.3123
52.9096
88.4409
69.0562
68.5704
86.7843
88.8044
91.7747
90.4208
65.6592
51.1303
74.6712
87.4484
85.982
94.2827
71.9439
61.89
48.9962
50.1991
48.5962
46.0266
55.48
88.2642
49.2741
67.4303
53.3536
69.4418
49.3451
57.158
58.6898
61.8423
85.5574
82.5879
52.8993
76.8621
65.185
72.7413
73.6221
51.2134
49.9369
88.5184
45.1572
47.987
56.6466
121.176
55.4917
92.195
73.7377
57.1045
66.5518
63.8747
94.9218
47.2094
72.0853
66.6265
107.789
102.863
75.7188
44.7362
96.1842
89.9137
44.5684
82.4904
84.597
63.4579
76.7419
71.0988
72.2775
75.3684
73.6699
90.9188
103.697
71.3333
44.6859
85.9663
140.116
45.8544
90.9704
73.857
44.6345
68.8763
71.7464
48.4758
69.522
60.7622
69.8024
48.9294
46.1502
86.3276
46.3363
109.728
62.7997
74.5335
44.7895
82.5516
50.6483
51.3624
86.7855
64.3271
63.339
47.6381
45.5241
97.239
62.963
102.588
48.7044
55.7771
47.8896
54.9143
98.8833
50.1832
46.2504
52.6046
62.2042
63.9383
133.414
46.5513
61.8507
49.3671
45.6913
84.6401
141.783
149.765
75.1585
77.1058
44.5287
111.245
66.9324
155.98
43.935
44.3731
44.3375
53.375
43.6981
44.7274
96.5982
47.3433
60.88
46.4323
72.7274
47.799
77.4832
104.371
68.5499
47.4792
84.5553
70.564
76.8535
82.4032
46.5135
71.3516
45.917
73.2581
46.6192
110.967
78.4346
46.9885
49.3262
50.0601
44.6417
75.0965
46.2733
61.4796
45.5826
67.5843
69.5927
100.282
70.2547
59.8487
44.7545
76.06
47.931
67.1638
61.9122
81.7096
89.5367
50.3857
46.2958
44.7426
103.868
78.1322
88.4772
44.3333
45.5318
50.1486
47.6199
89.3738
53.4363
45.4857
46.9839
57.5326
84.7552
65.2023
49.846
49.7148
55.8188
50.5369
51.9519
45.9337
45.2314
45.5115
45.7835
45.0775
65.999
74.7857
93.091
80.1799
104.431
65.7854
56.5287
74.5938
64.7176
66.6815
63.7108
62.3551
46.2805
46.3933
44.2759
95.8092
56.1289
49.6506
96.5879
45.1041
44.6569
48.1053
45.8603
68.8972
44.0647
46.8377
51.6437
109.158
44.3801
51.8508
100.126
45.0619
45.7357
93.4264
95.3596
73.3583
76.7468
91.8038
46.9692
52.2161
51.671
73.1837
60.1282
48.2504
47.3678
128.571
74.2439
81.5014
105.354
45.1412
45.2639
46.5133
47.0407
46.8244
46.6478
118.51
56.4067
45.3964
68.4831
71.4282
79.267
44.9688
44.4806
46.5033
44.3777
112.483
45.7934
45.434
48.4906
68.8195
72.542
46.8108
46.0479
112.411
48.741
61.3465
51.4739
76.1472
47.2691
77.1424
106.574
94.4769
78.507
60.1831
58.6084
66.676
64.6418
49.894
46.0163
46.8451
88.5786
56.9909
44.8761
62.2728
46.0369
45.5239
83.9094
130.948
48.1786
51.2406
48.5276
48.0545
50.6839
83.558
45.2249
46.0255
46.8961
73.536
45.6865
86.7083
82.4492
74.6606
87.1631
59.8031
45.447
49.6785
44.9796
49.3666
46.0064
48.0246
62.1951
45.3318
82.1299
79.0649
75.2175
46.3551
45.9455
65.5494
128.642
64.6115
77.4974
91.6692
71.1421
45.7232
67.3192
51.5802
44.8679
45.884
71.9213
79.8658
46.0961
46.2306
90.9038
71.4772
45.7615
67.2709
44.4385
67.1048
64.2624
45.388
51.9449
43.9188
94.4795
50.8736
47.0893
79.7255
90.466
44.2299
43.995
45.7654
45.1573
52.1467
78.4659
45.3536
62.9385
96.1197
109.66
73.4937
44.702
78.0809
95.4445
45.1912
77.2005
44.972
62.0459
68.2547
84.375
68.6688
74.2738
44.4812
63.5365
72.7377
45.5448
47.5511
51.7742
46.9824
46.3209
110.786
45.354
59.6041
65.9589
68.7619
51.3465
50.0144
98.1155
46.7756
50.267
85.6751
65.4208
91.4555
83.3875
51.2333
62.661
74.1508
93.4161
98.5691
88.5271
63.9513
85.6331
190.945
79.7675
72.8023
80.0275
84.265
48.3208
48.804
106.985
79.3693
52.4321
84.065
45.1118
49.2523
88.5198
46.0184
45.9411
75.2621
72.6785
89.1743
75.0127
153.548
81.1481
115.186
112.241
111.055
105.374
210.521
45.9686
45.5748
112.112
94.7182
47.2328
51.9175
50.0813
85.0175
69.1741
67.4056
102.547
136.089
77.6853
83.9551
53.4098
48.4074
84.6971
181.43
81.9069
176.872
69.8599
77.1722
95.6148
87.5337
89.7879
47.9164
103.136
45.7855
46.5932
89.1986
69.3611
88.7881
46.6446
60.9983
60.1515
89.1127
47.0185
60.794
46.3024
45.0636
45.4938
86.0701
87.9366
65.017
69.0081
81.3766
78.7863
71.8885
70.1159
83.4704
77.1087
45.8278
67.1665
70.8824
92.405
77.8975
83.9095
71.7516
44.0314
44.8097
44.3131
49.473
45.8789
49.8397
65.4061
44.2153
49.3381
96.6985
118.483
48.2085
52.8998
94.3113
52.1773
53.7476
61.5942
44.941
134.938
72.1213
88.9036
103.454
139.258
44.9801
84.1975
102.126
47.9032
85.3117
49.1327
72.819
50.5045
67.9209
83.8983
47.7668
81.8278
55.0346
50.4648
96.4597
111.201
68.6816
47.7123
73.3563
115.486
76.1514
90.7912
44.2975
87.7718
79.5285
45.2965
72.591
49.0564
93.4396
54.6046
84.526
54.8169
44.0668
63.9244
77.9558
47.9414
60.9271
49.6031
60.6613
84.9536
68.4031
98.5379
51.5036
76.6636
44.8734
92.793
78.2335
49.9621
67.0947
88.3444
90.7163
56.6618
123.877
63.1665
82.8938
48.665
49.9621
50.3887
44.4753
59.0045
69.0125
57.4733
49.2162
104.509
44.6759
47.258
74.1665
45.0431
47.3769
147.034
48.304
162.782
90.306
127.17
73.3294
65.9919
83.8825
45.2789
85.2979
44.4644
121.189
45.0635
75.0436
126.577
106.463
64.1945
76.7014
47.8538
75.01
147.094
44.7121
68.0486
81.3705
51.2413
113.131
46.8503
51.5558
89.7727
92.6557
75.558
92.9872
67.7289
93.9459
45.636
45.0229
75.8092
65.7228
46.0866
46.3682
71.1603
47.4822
45.0671
48.0653
48.5197
50.3356
52.5242
48.7701
56.772
82.7987
97.7816
84.1093
79.2903
99.9522
65.7002
75.0666
45.7614
47.3993
49.4795
47.4466
45.3433
47.5199
47.1088
47.0844
48.5977
48.5654
79.7017
115.316
46.5744
66.8129
66.1855
93.3685
74.2585
79.4231
61.721
86.1036
80.8435
52.959
78.3278
47.2314
158.353
52.5681
46.7005
47.8471
73.9136
46.0422
66.6279
65.0649
67.623
80.906
45.7217
48.9618
46.2869
48.7914
44.8607
48.8545
44.7971
80.2238
70.8922
73.8325
49.4517
47.3587
49.8996
47.9243
45.866
45.2307
46.7002
46.207
46.5808
49.027
55.2429
45.2503
45.7883
44.4909
57.5164
54.7791
146.741
70.1282
71.3627
75.4208
44.2074
44.1236
52.1658
45.1443
79.3079
48.0933
71.2543
70.8012
76.8226
45.5851
77.1476
88.3661
120.201
115.668
45.5764
46.2135
70.3422
57.3424
66.953
77.0251
98.4624
44.8787
127.743
45.0251
45.9023
51.6585
70.9673
50.8128
44.0339
44.4499
57.8828
68.4559
45.3902
44.5412
126.006
75.6233
44.3307
187.335
61.7564
126.803
62.8557
48.4704
45.2338
61.6746
55.1107
66.847
80.4835
57.0758
58.5424
47.8574
105.347
116.786
92.5244
45.9401
69.6226
47.0069
116.941
86.0947
45.5147
44.9304
82.7066
85.2425
45.9564
96.9284
72.3704
45.954
71.4173
44.9942
45.3298
61.3416
44.8537
44.4627
50.0371
48.5007
50.6274
46.2515
46.0359
51.2056
49.3646
46.9213
81.3414
175.849
50.907
45.7009
110.942
53.2213
79.8848
70.2137
44.5461
47.934
73.0413
116.131
89.252
49.1663
80.7695
105.41
119.608
64.5575
142.544
68.3318
93.3196
45.8899
112.399
75.7506
85.9997
94.388
68.4303
91.375
97.1047
76.7513
66.6519
57.8338
81.8798
78.6448
70.8231
113.554
121.451
100.121
71.061
68.5553
137.148
81.2496
80.6204
78.8932
110.023
81.7543
46.3126
74.1195
68.7843
44.4123
65.964
61.5099
49.828
106.271
81.507
111.101
84.4364
68.1365
85.1607
105.312
47.3013
56.9711
97.009
66.9277
82.5651
45.1425
63.8317
45.047
52.7759
76.655
80.994
87.9613
82.7316
66.8033
70.3307
105.888
61.6358
72.3391
75.5348
82.5321
44.0409
95.3671
168.304
164.907
74.9862
81.8895
70.6688
98.8402
75.0977
120.996
84.1207
63.3835
55.0627
57.3338
76.5172
80.689
114.752
115.414
89.9595
193.674
145.762
85.211
106.548
66.3901
74.5263
85.067
96.1383
107.95
91.3906
75.3252
101.443
152.89
169.759
118.138
169.216
70.6578
104.292
115.464
52.8507
117.222
67.9784
74.7185
100.239
45.7395
45.5653
50.9475
48.6261
45.0743
44.5409
45.9262
44.8606
84.4533
45.6282
46.4925
45.6646
46.3376
109.33
109.28
53.5132
44.6553
44.8907
48.1458
45.4431
46.4893
52.3212
47.1242
44.9911
51.2893
116.885
49.1406
46.2765
71.4775
52.1228
53.2129
45.0211
44.6777
51.4109
85.5655
68.3334
45.0133
91.5622
46.9872
44.6622
47.8256
44.4885
47.0857
65.3835
48.9071
71.633
45.671
58.0103
45.4415
52.3717
44.7429
91.2975
45.8376
45.2045
59.1838
56.8432
44.8965
79.8692
51.5674
45.1922
45.2367
72.276
45.5142
46.1001
45.3907
46.8013
45.203
44.5709
53.3146
44.4267
45.4229
47.5629
84.5807
50.7968
45.4183
44.7949
44.7659
47.7671
46.8279
46.023
45.73
54.1838
60.7544
51.6252
49.41
50.0885
49.039
48.3864
47.432
54.2062
44.9158
47.2503
77.7029
52.0148
109.974
49.1125
46.2939
45.204
52.5626
50.983
44.7314
51.8905
45.5143
64.2744
45.507
51.8335
106.944
49.7534
46.2086
45.3134
46.1359
104.884
70.6012
49.2518
47.8802
128.837
47.6368
97.3494
104.779
77.3279
45.2773
44.9013
45.1042
45.9402
45.0625
57.9007
61.5894
45.2327
77.6745
64.3789
57.9333
45.0228
46.8652
45.8628
50.5969
92.8797
45.9007
45.2172
49.5959
74.3226
109.995
50.2784
50.2965
47.6012
64.5902
68.2964
91.9862
45.2953
63.2576
44.3846
44.4153
102.447
45.5165
47.1373
72.4415
105.912
49.2052
104.458
45.5246
53.4175
76.833
50.5216
64.4264
60.7634
70.0638
63.0033
48.5562
45.3792
60.1027
104.463
48.866
85.2547
80.2472
88.6597
81.3852
64.7784
46.6174
46.1518
74.3043
61.3369
60.0117
47.6307
48.8116
70.1393
50.4451
45.3477
46.7286
100.331
45.4431
45.5877
46.3755
51.5376
75.7806
46.6015
46.7701
77.8669
54.4966
50.313
43.9051
69.9163
46.8745
45.7296
44.1909
47.1863
99.3113
56.9928
61.2882
84.4871
46.2676
102.061
89.9201
75.1755
99.0086
92.1094
94.7003
95.2581
61.3304
49.7936
47.0296
57.7409
57.7575
171.165
47.3293
82.3744
70.9101
83.2674
96.7618
108.189
82.5094
72.7333
108.956
94.0298
87.9871
67.7652
135.357
52.7573
86.3993
69.7977
80.7013
69.7295
105.302
63.3695
127.278
65.6751
54.5051
54.7896
105.562
99.4327
100.171
134.665
90.005
66.7285
52.0321
91.3338
91.0193
91.485
67.4849
78.9281
84.6428
45.2132
45.0405
45.0847
67.4955
45.2224
55.5282
50.1192
46.4818
112.346
44.1577
52.3572
45.3428
98.6162
60.8245
82.5518
94.4306
72.9493
88.1051
45.9837
48.8546
74.989
45.7772
45.4129
68.3924
52.4803
74.0113
80.5213
54.2847
64.9998
165.056
166.068
72.8889
150.549
79.6736
51.5769
67.1861
86.8404
93.4022