/*--------------------------------*- C++ -*----------------------------------*\
| =========                 |                                                 |
| \\      /  F ield         | OpenFOAM: The Open Source CFD Toolbox           |
|  \\    /   O peration     | Version:  2506                                  |
|   \\  /    A nd           | Website:  www.openfoam.com                      |
|    \\/     M anipulation  |                                                 |
\*---------------------------------------------------------------------------*/
FoamFile
{
    version     2.0;
    format      ascii;
    arch        "LSB;label=32;scalar=64";
    class       volScalarField;
    location    "0.075283";
    object      k;
}
// * * * * * * * * * * * * * * * * * * * * * * * * * * * * * * * * * * * * * //

dimensions      [0 2 -2 0 0 0 0];

internalField   nonuniform List<scalar> 
3919
(
0.303112
0.307158
0.313729
0.322657
0.30374
0.299615
0.310425
0.304079
0.288314
0.288944
0.286965
0.291583
0.290627
0.284796
0.304083
0.321873
0.288906
0.287756
0.290057
0.299456
0.283496
0.300295
0.290647
0.290377
0.291524
0.316558
0.288776
0.284462
0.329348
0.338662
0.28571
0.288401
0.291358
0.285527
0.289188
0.289847
0.344535
0.291396
0.290605
0.312035
0.323369
0.285271
0.290662
0.304758
0.362387
0.322861
0.361246
0.330496
0.284095
0.288794
0.288285
0.29757
0.291177
0.297506
0.305521
0.290098
0.357296
0.37419
0.291187
0.290269
0.356132
0.303701
0.345145
0.314499
0.29058
0.299272
0.286389
0.31614
0.293449
0.289941
0.28779
0.312164
0.321779
0.338052
0.366133
0.308678
0.284788
0.289322
0.288016
0.292821
0.295806
0.290483
0.285918
0.293743
0.282456
0.292565
0.292131
0.298183
0.325583
0.313377
0.310251
0.359812
0.352433
0.289913
0.310512
0.308306
0.315382
0.295294
0.307272
0.287203
0.288177
0.317409
0.342902
0.290054
0.342086
0.288403
0.322706
0.308932
0.300106
0.29826
0.350885
0.313393
0.309582
0.289264
0.290398
0.286318
0.291336
0.290895
0.302841
0.322012
0.303938
0.300809
0.289076
0.333037
0.286461
0.289335
0.289997
0.297781
0.31807
0.296974
0.289933
0.31213
0.325675
0.289947
0.287973
0.297617
0.321943
0.30402
0.297179
0.325588
0.292103
0.291683
0.303665
0.289255
0.283694
0.292543
0.345682
0.290967
0.283463
0.291778
0.305
0.28817
0.287358
0.287125
0.287731
0.28675
0.290474
0.302505
0.290646
0.289153
0.285419
0.327667
0.33068
0.287791
0.31551
0.354879
0.366319
0.299283
0.29051
0.291828
0.338243
0.289595
0.287399
0.285582
0.363258
0.293792
0.309482
0.284996
0.332038
0.335433
0.350245
0.32804
0.289557
0.299957
0.341958
0.311965
0.30054
0.285444
0.308891
0.300765
0.296651
0.294843
0.31414
0.284452
0.303625
0.288102
0.306711
0.290618
0.33272
0.313953
0.289954
0.306625
0.292327
0.298247
0.306061
0.290319
0.288909
0.325958
0.294664
0.329947
0.352834
0.289256
0.291657
0.29136
0.316324
0.290061
0.290613
0.299103
0.335055
0.292906
0.290389
0.29556
0.349415
0.34054
0.289217
0.284844
0.347848
0.306398
0.306393
0.333198
0.314965
0.285243
0.323979
0.311778
0.296311
0.293342
0.289726
0.28702
0.300337
0.309834
0.392071
0.342434
0.302269
0.36086
0.37726
0.297149
0.31866
0.35436
0.369044
0.3051
0.315503
0.373098
0.357359
0.323984
0.34802
0.352635
0.315696
0.30215
0.303464
0.347121
0.294477
0.312279
0.364929
0.356755
0.330946
0.355093
0.336771
0.381262
0.316193
0.318432
0.294987
0.357555
0.348332
0.369296
0.287447
0.297108
0.288113
0.356945
0.295703
0.347367
0.307748
0.291996
0.356958
0.291569
0.325854
0.295473
0.291123
0.350844
0.341677
0.337122
0.289158
0.309803
0.301477
0.288721
0.319947
0.345314
0.292617
0.292974
0.290228
0.331462
0.32137
0.29787
0.296266
0.290167
0.286554
0.311168
0.366795
0.319626
0.292892
0.299842
0.32096
0.321639
0.298892
0.328704
0.313362
0.296325
0.321048
0.382839
0.284599
0.309355
0.345006
0.29041
0.309214
0.306741
0.293347
0.307481
0.288721
0.298806
0.338855
0.292294
0.299412
0.290678
0.287383
0.321365
0.286012
0.28778
0.348747
0.303011
0.302724
0.297192
0.320683
0.318739
0.300448
0.316571
0.299165
0.29111
0.34861
0.329536
0.287516
0.294781
0.340397
0.303973
0.289413
0.297442
0.304135
0.321405
0.307865
0.343403
0.337473
0.28911
0.28876
0.292209
0.313061
0.292111
0.290093
0.29008
0.289378
0.31184
0.290568
0.28709
0.287924
0.329749
0.290445
0.303445
0.350536
0.317474
0.289472
0.29128
0.285793
0.322664
0.32218
0.355508
0.358662
0.30277
0.31339
0.285871
0.309345
0.297744
0.294999
0.302076
0.305051
0.313635
0.297069
0.37618
0.36068
0.346652
0.382934
0.34036
0.396899
0.291026
0.295481
0.361239
0.326432
0.289218
0.294451
0.29643
0.292003
0.359723
0.349628
0.360779
0.314782
0.29812
0.324987
0.290485
0.337818
0.346634
0.32749
0.325489
0.357901
0.28938
0.29246
0.344987
0.284086
0.343511
0.319994
0.31666
0.289487
0.290258
0.352086
0.319897
0.310367
0.315371
0.29614
0.310447
0.294837
0.326637
0.314134
0.350724
0.308483
0.389149
0.372818
0.322019
0.362511
0.338728
0.358698
0.340142
0.341793
0.313819
0.296579
0.316873
0.295321
0.320509
0.301544
0.292601
0.319354
0.333551
0.287206
0.353988
0.293793
0.292832
0.306972
0.380226
0.38652
0.323929
0.358091
0.355945
0.288439
0.289351
0.291047
0.289015
0.285834
0.285038
0.317788
0.374204
0.315357
0.3201
0.32668
0.361508
0.364222
0.284062
0.345812
0.294889
0.352784
0.290844
0.347255
0.339592
0.296162
0.346524
0.367086
0.309001
0.292078
0.297778
0.326667
0.33166
0.295853
0.293104
0.291821
0.314813
0.290463
0.306425
0.296721
0.292753
0.28638
0.339215
0.295076
0.309336
0.298469
0.309959
0.325165
0.311188
0.294583
0.30731
0.301651
0.306363
0.303452
0.311459
0.333719
0.315095
0.286779
0.318737
0.295526
0.298887
0.288527
0.286614
0.301493
0.289347
0.303285
0.356145
0.354439
0.30206
0.342686
0.361813
0.353757
0.286424
0.286307
0.289277
0.329465
0.301877
0.373085
0.353131
0.386349
0.307644
0.319092
0.29462
0.288317
0.310447
0.296441
0.30105
0.31143
0.292373
0.319248
0.292342
0.307417
0.315536
0.354823
0.405202
0.337705
0.348148
0.368455
0.358934
0.349504
0.293951
0.28998
0.28875
0.334697
0.32982
0.289924
0.325409
0.329837
0.332846
0.286093
0.285007
0.30501
0.291406
0.36818
0.327326
0.313912
0.303939
0.304509
0.342032
0.289282
0.289722
0.341675
0.302172
0.320249
0.300346
0.35423
0.287714
0.339315
0.322827
0.300534
0.298015
0.334109
0.329419
0.337261
0.36132
0.368666
0.353366
0.345613
0.293167
0.29768
0.33944
0.287102
0.291115
0.290541
0.295543
0.290469
0.334399
0.334999
0.300905
0.291812
0.317154
0.289721
0.292738
0.284495
0.321672
0.299238
0.287956
0.291804
0.289934
0.329943
0.312517
0.356513
0.306639
0.317846
0.291928
0.284842
0.291699
0.294568
0.363261
0.28884
0.291245
0.33633
0.303527
0.292451
0.31995
0.37115
0.315337
0.341859
0.339715
0.290399
0.305574
0.301234
0.287665
0.291025
0.35098
0.289764
0.304795
0.325666
0.289693
0.289947
0.297469
0.321491
0.287892
0.286841
0.289425
0.286366
0.288772
0.289684
0.322397
0.326074
0.340378
0.291151
0.295536
0.323598
0.291057
0.316663
0.328947
0.320213
0.304218
0.288312
0.300019
0.286882
0.290909
0.291924
0.287761
0.313275
0.288154
0.286348
0.324946
0.338821
0.293203
0.316292
0.302174
0.288817
0.311332
0.337356
0.302977
0.294386
0.287234
0.360211
0.290371
0.288872
0.316301
0.354737
0.308183
0.289264
0.289657
0.320431
0.317096
0.317517
0.288202
0.286796
0.287778
0.313194
0.326963
0.350839
0.319193
0.31492
0.374483
0.33682
0.343813
0.289884
0.30002
0.298361
0.288615
0.337425
0.291373
0.289553
0.290608
0.286577
0.291156
0.297683
0.28976
0.289869
0.337511
0.320412
0.339331
0.2989
0.350311
0.332821
0.291661
0.332665
0.296785
0.290083
0.286385
0.28931
0.321898
0.288184
0.350782
0.298436
0.300427
0.316617
0.329081
0.299383
0.310319
0.287451
0.331478
0.287976
0.290158
0.291297
0.345726
0.291862
0.291461
0.299637
0.290846
0.337967
0.288869
0.332263
0.287381
0.370416
0.288613
0.342586
0.332986
0.319092
0.348557
0.290384
0.342844
0.303704
0.31821
0.295734
0.289335
0.291109
0.284686
0.326263
0.291847
0.344002
0.288971
0.323965
0.291505
0.285026
0.285471
0.289034
0.333957
0.293508
0.329889
0.318301
0.288687
0.32258
0.369445
0.348199
0.311185
0.291329
0.289505
0.290187
0.290277
0.29062
0.302857
0.302484
0.299188
0.323696
0.287735
0.288445
0.289793
0.290365
0.352345
0.287113
0.327727
0.333246
0.286467
0.310572
0.286503
0.31683
0.304779
0.312991
0.290277
0.372547
0.289978
0.337445
0.290646
0.296675
0.286323
0.306539
0.32974
0.287829
0.289847
0.332433
0.28839
0.291069
0.291413
0.294932
0.288169
0.360127
0.290886
0.322318
0.292226
0.321106
0.289383
0.292239
0.301787
0.287671
0.285584
0.288664
0.329796
0.354196
0.290799
0.305885
0.292456
0.291968
0.335055
0.298216
0.290415
0.296054
0.291406
0.30366
0.351464
0.3433
0.341269
0.315948
0.300042
0.29863
0.359227
0.293912
0.333404
0.294793
0.290502
0.294231
0.31676
0.323669
0.324473
0.284906
0.292104
0.289196
0.290928
0.284285
0.287726
0.290227
0.291748
0.291468
0.318322
0.327992
0.352271
0.310259
0.291197
0.329879
0.285913
0.290046
0.288999
0.332986
0.355136
0.335808
0.286421
0.328596
0.289205
0.324785
0.291278
0.301603
0.324541
0.304476
0.289262
0.31388
0.327454
0.300339
0.302466
0.30303
0.289226
0.29287
0.305078
0.312248
0.288259
0.314347
0.287659
0.283769
0.337344
0.335624
0.332555
0.28369
0.30206
0.289292
0.289639
0.331676
0.298263
0.310037
0.314979
0.292405
0.345909
0.288563
0.316364
0.289925
0.327454
0.291511
0.322231
0.313245
0.296432
0.288815
0.289856
0.29046
0.292136
0.290854
0.292054
0.335879
0.332394
0.290095
0.287937
0.328754
0.345679
0.346774
0.368737
0.287957
0.294465
0.3266
0.299326
0.282884
0.382118
0.290067
0.287518
0.28443
0.291383
0.338003
0.299902
0.316863
0.322385
0.338645
0.318222
0.285459
0.290151
0.2913
0.30164
0.28725
0.292485
0.285105
0.346377
0.34119
0.287802
0.29051
0.290551
0.298744
0.291173
0.29204
0.305119
0.320847
0.303077
0.298554
0.291586
0.291431
0.369276
0.319366
0.363338
0.32017
0.287322
0.319159
0.299519
0.34484
0.28925
0.28954
0.292977
0.289886
0.295375
0.28883
0.289205
0.289376
0.285468
0.288163
0.294914
0.315462
0.291024
0.291649
0.290361
0.288432
0.286943
0.289009
0.314134
0.334753
0.332406
0.295074
0.344004
0.287597
0.285989
0.28669
0.285872
0.286061
0.28767
0.290101
0.290061
0.290371
0.289088
0.289898
0.290434
0.319593
0.317336
0.332142
0.299364
0.333739
0.287936
0.285862
0.324448
0.286231
0.287469
0.326357
0.331484
0.298189
0.302267
0.286233
0.296577
0.285997
0.287296
0.33538
0.291707
0.34735
0.318088
0.296045
0.289414
0.309385
0.287408
0.330028
0.310719
0.29
0.288398
0.325051
0.290048
0.288995
0.328263
0.290019
0.291073
0.293671
0.303945
0.288221
0.32053
0.330112
0.289204
0.317759
0.340632
0.332038
0.302489
0.287213
0.290034
0.290226
0.285751
0.291519
0.343477
0.352497
0.309483
0.299465
0.302055
0.313839
0.328237
0.340161
0.287517
0.28737
0.284748
0.295051
0.288745
0.294921
0.299437
0.283915
0.338528
0.282937
0.311549
0.30652
0.312316
0.321421
0.303938
0.297792
0.314578
0.287026
0.288595
0.294277
0.28728
0.294869
0.356298
0.315828
0.290628
0.288147
0.292901
0.288218
0.296497
0.288642
0.337543
0.309018
0.290845
0.289469
0.345875
0.298171
0.291265
0.307666
0.299189
0.286841
0.288899
0.287339
0.348509
0.334776
0.318068
0.289132
0.289435
0.294294
0.286086
0.289715
0.315329
0.289027
0.317989
0.289084
0.324965
0.289719
0.290887
0.324272
0.350552
0.28709
0.3496
0.288039
0.33625
0.291661
0.36949
0.288613
0.297287
0.282495
0.283195
0.34689
0.299279
0.28843
0.289913
0.290644
0.290409
0.28372
0.307094
0.310849
0.295484
0.320948
0.290707
0.291031
0.326856
0.339766
0.29034
0.289804
0.286591
0.294365
0.288713
0.285229
0.291078
0.291841
0.305741
0.291732
0.2898
0.31425
0.309961
0.30925
0.290021
0.298559
0.289183
0.30702
0.301122
0.290338
0.290028
0.298598
0.337536
0.290613
0.290504
0.290662
0.35329
0.290139
0.290896
0.299683
0.383461
0.293012
0.304817
0.293034
0.288842
0.29004
0.30609
0.288487
0.289352
0.287482
0.288673
0.320732
0.291823
0.302277
0.307057
0.305468
0.288574
0.289097
0.291027
0.287958
0.291333
0.282399
0.289553
0.303727
0.333648
0.286323
0.290407
0.292055
0.299975
0.290193
0.288852
0.287794
0.290056
0.290091
0.292239
0.290431
0.291025
0.344211
0.328944
0.291841
0.290317
0.288583
0.286751
0.28966
0.291966
0.289926
0.29147
0.325662
0.289085
0.291345
0.32306
0.309537
0.330259
0.287297
0.310081
0.292689
0.318381
0.297772
0.32087
0.351255
0.283505
0.287046
0.306825
0.379022
0.291386
0.290849
0.291012
0.289909
0.287462
0.289492
0.290424
0.291023
0.290492
0.326404
0.34016
0.357149
0.291054
0.291539
0.325779
0.291012
0.297658
0.287314
0.291554
0.28951
0.291226
0.290213
0.387202
0.287712
0.288089
0.288677
0.291417
0.318119
0.288396
0.305153
0.293929
0.288571
0.284745
0.301262
0.293757
0.287011
0.290519
0.290463
0.285967
0.284916
0.289748
0.34753
0.332497
0.291706
0.289048
0.297406
0.289439
0.309077
0.290098
0.289731
0.291712
0.294464
0.295289
0.291149
0.291425
0.308932
0.310718
0.291291
0.288022
0.285615
0.317828
0.342561
0.290738
0.314617
0.293031
0.315953
0.293654
0.288306
0.286363
0.301109
0.333188
0.288988
0.325862
0.289442
0.287872
0.286513
0.352291
0.321299
0.325042
0.290041
0.286215
0.284144
0.288224
0.28405
0.285679
0.298354
0.288495
0.288523
0.288372
0.288459
0.289553
0.29035
0.302156
0.316345
0.348949
0.288471
0.289738
0.350711
0.288346
0.299375
0.345314
0.331334
0.292893
0.281363
0.2908
0.285799
0.293953
0.28708
0.290313
0.289942
0.291887
0.328281
0.326982
0.300577
0.293787
0.291407
0.283137
0.290767
0.290784
0.291613
0.290159
0.290998
0.289949
0.301831
0.291109
0.290621
0.286236
0.294881
0.289511
0.28583
0.288711
0.314406
0.286598
0.290254
0.291942
0.290265
0.320799
0.290292
0.289316
0.296266
0.287229
0.289071
0.290802
0.287396
0.318144
0.327456
0.293935
0.287926
0.291648
0.290499
0.290205
0.289994
0.289706
0.288694
0.290293
0.288491
0.290361
0.344098
0.308821
0.295732
0.290982
0.289723
0.290309
0.315031
0.290783
0.335026
0.341821
0.288649
0.288725
0.288386
0.2887
0.290085
0.326253
0.289301
0.297771
0.345632
0.352531
0.288755
0.28828
0.290107
0.303752
0.288851
0.354782
0.331482
0.352808
0.288319
0.288452
0.289643
0.329212
0.320347
0.285683
0.308082
0.327601
0.291896
0.322288
0.341762
0.345394
0.328657
0.326323
0.289123
0.320221
0.352113
0.301692
0.287258
0.313111
0.339082
0.348314
0.30037
0.28597
0.289202
0.291959
0.329046
0.296754
0.288183
0.285975
0.289532
0.305708
0.287284
0.289366
0.303939
0.307565
0.330884
0.291671
0.30273
0.289522
0.33255
0.321092
0.319842
0.289435
0.331259
0.287377
0.323603
0.294099
0.308409
0.292582
0.292216
0.297276
0.338519
0.337624
0.316226
0.288665
0.322713
0.32687
0.341801
0.32149
0.297514
0.288449
0.299681
0.290196
0.290618
0.287546
0.290062
0.290886
0.291918
0.302649
0.292097
0.286847
0.299462
0.306438
0.284235
0.289419
0.316619
0.297411
0.339258
0.290124
0.290029
0.290072
0.291075
0.289118
0.290133
0.322633
0.378138
0.291852
0.284963
0.287699
0.32691
0.291695
0.288306
0.317919
0.28713
0.297487
0.290228
0.28742
0.292729
0.329796
0.291496
0.286534
0.291525
0.29481
0.286912
0.285768
0.29011
0.295084
0.35986
0.290069
0.283988
0.328967
0.289667
0.289873
0.336736
0.368386
0.288198
0.322084
0.291711
0.366373
0.311148
0.289983
0.287789
0.289448
0.2865
0.33686
0.28618
0.291571
0.316039
0.287326
0.304913
0.289835
0.290973
0.291258
0.318969
0.328191
0.328464
0.28616
0.322935
0.302541
0.309493
0.288835
0.290565
0.288782
0.29144
0.33335
0.294443
0.348011
0.336838
0.289782
0.289955
0.290403
0.289987
0.289354
0.323519
0.290221
0.356806
0.286184
0.332041
0.291574
0.290014
0.28891
0.290619
0.328928
0.291467
0.289502
0.286212
0.28954
0.28746
0.322347
0.321226
0.354078
0.284685
0.286211
0.288716
0.321901
0.287324
0.286681
0.28704
0.341416
0.311462
0.288664
0.284546
0.285899
0.287832
0.287955
0.289378
0.33746
0.315241
0.297971
0.326402
0.294236
0.34656
0.311027
0.321514
0.325773
0.288397
0.358838
0.290251
0.290784
0.349761
0.33596
0.327149
0.285431
0.292248
0.320526
0.313023
0.327298
0.31376
0.315265
0.289313
0.346814
0.31091
0.318418
0.289745
0.323033
0.308075
0.310745
0.286292
0.289555
0.300322
0.316727
0.288578
0.291099
0.292111
0.288807
0.291424
0.287344
0.291732
0.304131
0.342902
0.326975
0.300283
0.288592
0.299266
0.331997
0.291771
0.289417
0.377535
0.325475
0.330305
0.292287
0.313894
0.300203
0.300368
0.341708
0.293594
0.33935
0.335999
0.302963
0.3557
0.301141
0.294442
0.346152
0.354928
0.341962
0.327683
0.306732
0.340945
0.34905
0.300385
0.319772
0.333754
0.308318
0.318304
0.298182
0.331468
0.326025
0.298737
0.313006
0.294383
0.301368
0.322065
0.293322
0.291215
0.321051
0.323579
0.29931
0.291719
0.330806
0.348181
0.28917
0.320525
0.307984
0.33382
0.325382
0.328934
0.287546
0.314461
0.288078
0.325585
0.294634
0.308839
0.340478
0.338337
0.314839
0.304582
0.3178
0.320615
0.364126
0.326759
0.289594
0.308396
0.3297
0.327829
0.308252
0.293435
0.319107
0.290258
0.291373
0.285942
0.303074
0.288027
0.313879
0.297887
0.29625
0.290887
0.376686
0.358728
0.362682
0.290932
0.349233
0.295391
0.332605
0.290859
0.290635
0.323698
0.28996
0.288413
0.289289
0.289106
0.288802
0.289814
0.290283
0.293124
0.290049
0.287057
0.290915
0.297602
0.30158
0.316612
0.289719
0.291294
0.290692
0.28901
0.361562
0.354593
0.36407
0.296269
0.291002
0.296522
0.299078
0.288924
0.287403
0.287665
0.301582
0.287291
0.296652
0.292421
0.29372
0.315739
0.290545
0.29487
0.292536
0.290479
0.304273
0.288183
0.290906
0.290538
0.289615
0.289604
0.291062
0.29635
0.290551
0.288733
0.297546
0.301289
0.292621
0.29188
0.289316
0.287796
0.287608
0.290464
0.289841
0.292391
0.291965
0.287073
0.312154
0.292571
0.309869
0.288313
0.291712
0.290448
0.292821
0.287578
0.290486
0.289967
0.289771
0.291581
0.285646
0.301477
0.291983
0.291647
0.290844
0.28865
0.284305
0.311512
0.285545
0.287579
0.2891
0.286555
0.322262
0.312663
0.309096
0.325543
0.327742
0.326806
0.290628
0.336747
0.33556
0.32241
0.344602
0.285617
0.289398
0.345278
0.288585
0.349638
0.298927
0.314959
0.286301
0.319372
0.36387
0.291189
0.311238
0.325016
0.309914
0.35105
0.288835
0.291138
0.29125
0.326525
0.290794
0.316127
0.288851
0.302794
0.291568
0.317446
0.297883
0.295106
0.304396
0.290448
0.330089
0.327856
0.332475
0.314065
0.290115
0.285202
0.290691
0.312848
0.317598
0.300129
0.290612
0.34573
0.291247
0.290161
0.297755
0.345225
0.291788
0.306172
0.290179
0.352968
0.286427
0.28768
0.289515
0.32071
0.291425
0.317766
0.317046
0.329169
0.324886
0.327499
0.328069
0.290845
0.289409
0.306627
0.28775
0.286375
0.307926
0.308669
0.318545
0.337837
0.291892
0.288059
0.332135
0.319753
0.287756
0.291486
0.322597
0.324731
0.291796
0.29197
0.290025
0.286433
0.32326
0.285664
0.290313
0.290841
0.2907
0.290355
0.283495
0.292175
0.289128
0.289593
0.289903
0.288356
0.306377
0.300074
0.334807
0.345657
0.297762
0.329762
0.30433
0.307798
0.322867
0.289134
0.352781
0.2864
0.31835
0.291404
0.28989
0.290067
0.316543
0.36676
0.290775
0.330604
0.374046
0.312359
0.288902
0.363111
0.312696
0.307248
0.375979
0.329512
0.376474
0.368818
0.330037
0.289027
0.301377
0.376591
0.353998
0.363132
0.353977
0.307178
0.288913
0.362397
0.317768
0.354064
0.320409
0.306662
0.28658
0.285885
0.295512
0.317559
0.339989
0.285688
0.291844
0.316266
0.311991
0.325254
0.289678
0.303298
0.313365
0.33268
0.301129
0.290657
0.285574
0.283973
0.332488
0.296681
0.286572
0.316792
0.287299
0.334623
0.332026
0.325409
0.288955
0.317842
0.314467
0.320031
0.288408
0.289872
0.309565
0.321892
0.328031
0.2902
0.306006
0.28987
0.287652
0.358958
0.283599
0.323292
0.351453
0.283075
0.336341
0.294875
0.338619
0.2992
0.301045
0.303396
0.291942
0.309495
0.297689
0.297546
0.287292
0.330465
0.329961
0.309486
0.327654
0.29189
0.335906
0.294232
0.290243
0.330892
0.347435
0.297325
0.288947
0.304404
0.299425
0.324896
0.28931
0.290006
0.292531
0.321157
0.361258
0.347669
0.297508
0.360984
0.352989
0.316838
0.317761
0.325529
0.300624
0.339852
0.287897
0.291514
0.339226
0.305385
0.332392
0.288903
0.288772
0.28759
0.289367
0.288974
0.288845
0.32083
0.286912
0.288931
0.311355
0.322012
0.355694
0.301665
0.292128
0.288136
0.293218
0.297713
0.289312
0.304552
0.29011
0.288711
0.29337
0.287695
0.289837
0.338433
0.323019
0.316002
0.327548
0.335178
0.289802
0.300887
0.324286
0.285662
0.287967
0.284211
0.287709
0.287643
0.289877
0.284417
0.337022
0.293261
0.331529
0.288189
0.289695
0.290211
0.288916
0.289365
0.288978
0.28968
0.345551
0.29937
0.325345
0.291036
0.30697
0.348665
0.317397
0.343846
0.340506
0.326098
0.331769
0.338762
0.283389
0.291033
0.289805
0.324763
0.289384
0.29064
0.290813
0.291651
0.28856
0.290079
0.289131
0.328063
0.308312
0.294475
0.320018
0.290388
0.31454
0.313433
0.373391
0.314297
0.28875
0.291905
0.331233
0.300186
0.3042
0.289931
0.334432
0.291524
0.29984
0.296577
0.291251
0.338715
0.333039
0.288318
0.292448
0.289838
0.337193
0.338802
0.333313
0.301008
0.292698
0.290196
0.307527
0.312498
0.331156
0.288945
0.314168
0.289616
0.290248
0.304525
0.290827
0.357009
0.289876
0.286524
0.340761
0.303274
0.289042
0.28562
0.292248
0.318124
0.313162
0.290502
0.287906
0.288225
0.300842
0.2926
0.288724
0.286142
0.357816
0.318667
0.333402
0.292417
0.314391
0.298472
0.290873
0.338222
0.291237
0.289404
0.291427
0.292195
0.289956
0.290573
0.306895
0.354719
0.368921
0.329834
0.291061
0.289481
0.288387
0.292807
0.296982
0.288941
0.351329
0.290922
0.352122
0.294337
0.321344
0.295425
0.288981
0.29198
0.305704
0.284508
0.324522
0.284569
0.28886
0.362224
0.344597
0.327501
0.291427
0.286979
0.287908
0.289277
0.288325
0.289561
0.284575
0.329377
0.290337
0.292396
0.304588
0.286062
0.292451
0.311759
0.308402
0.290957
0.290451
0.293234
0.287466
0.287249
0.291154
0.288848
0.291043
0.28951
0.289764
0.333836
0.304212
0.300796
0.289403
0.291677
0.292069
0.291694
0.291831
0.292031
0.340641
0.289451
0.311351
0.289032
0.287911
0.298824
0.32517
0.304469
0.296522
0.289183
0.289606
0.316904
0.284345
0.285414
0.286108
0.298957
0.305154
0.354021
0.283988
0.290644
0.366123
0.294247
0.288979
0.293609
0.309732
0.29047
0.291186
0.290209
0.295813
0.290054
0.28953
0.28739
0.292671
0.283143
0.305901
0.329859
0.342712
0.290634
0.324385
0.284714
0.324243
0.291648
0.288329
0.288295
0.286539
0.289008
0.289477
0.288735
0.309266
0.28949
0.320158
0.306762
0.289022
0.295407
0.287851
0.28895
0.319334
0.288019
0.340188
0.2893
0.287842
0.30362
0.341803
0.289059
0.288279
0.288304
0.288148
0.287869
0.323378
0.351091
0.287292
0.337214
0.287536
0.32151
0.290372
0.288103
0.300532
0.290228
0.289818
0.28768
0.288832
0.287714
0.344304
0.328602
0.293878
0.301871
0.290457
0.331319
0.290428
0.290787
0.288757
0.289089
0.287896
0.291101
0.289752
0.290423
0.28883
0.290293
0.316308
0.318326
0.289418
0.284956
0.289776
0.28739
0.354284
0.291404
0.290104
0.296484
0.2931
0.29033
0.290666
0.313148
0.290992
0.284664
0.290944
0.315042
0.305839
0.329607
0.290661
0.316767
0.289151
0.34695
0.351133
0.33202
0.317579
0.313812
0.340309
0.305244
0.289873
0.291746
0.292538
0.345987
0.305529
0.303429
0.316914
0.290385
0.306442
0.301734
0.295186
0.30604
0.323447
0.300302
0.291682
0.290709
0.291316
0.290786
0.290313
0.289739
0.289294
0.325148
0.328936
0.31246
0.291771
0.329723
0.346457
0.329848
0.328336
0.306165
0.3176
0.29099
0.291579
0.290475
0.291263
0.283957
0.290696
0.295663
0.289522
0.315677
0.290856
0.346608
0.361039
0.2994
0.333523
0.343349
0.310596
0.286713
0.290537
0.287434
0.342454
0.29877
0.287227
0.304962
0.291005
0.289879
0.301015
0.326314
0.327248
0.316419
0.298487
0.290601
0.303137
0.334498
0.322511
0.333504
0.304734
0.297308
0.291525
0.286712
0.287701
0.290248
0.289263
0.304876
0.288525
0.306863
0.292199
0.343596
0.289748
0.295627
0.298959
0.300178
0.357831
0.324069
0.292461
0.305039
0.292647
0.319545
0.311722
0.289904
0.290092
0.354832
0.286594
0.286552
0.289952
0.362535
0.287718
0.30842
0.292683
0.283082
0.301467
0.295512
0.322379
0.289408
0.308867
0.303117
0.364381
0.359322
0.316318
0.290591
0.33807
0.344951
0.28987
0.30896
0.311524
0.294144
0.317239
0.303799
0.294867
0.314401
0.303633
0.30119
0.333443
0.313906
0.290309
0.33098
0.333774
0.288211
0.333073
0.307692
0.290554
0.29066
0.305762
0.292922
0.304964
0.29652
0.333342
0.288985
0.291981
0.31044
0.292476
0.317105
0.288958
0.31157
0.289687
0.354973
0.28858
0.287863
0.334996
0.290933
0.29474
0.289417
0.28988
0.33605
0.298242
0.349247
0.286259
0.288609
0.287717
0.289256
0.328074
0.28896
0.290635
0.289065
0.298559
0.300393
0.336479
0.28934
0.290134
0.287647
0.289829
0.31579
0.342856
0.347851
0.312305
0.296803
0.289363
0.334088
0.297543
0.338883
0.29133
0.290432
0.290347
0.285048
0.291742
0.291892
0.324146
0.291954
0.291506
0.289763
0.305934
0.28982
0.318568
0.328443
0.305248
0.287037
0.339218
0.291566
0.295789
0.312607
0.285356
0.301577
0.291922
0.295481
0.288393
0.344049
0.294844
0.29121
0.29148
0.288964
0.288484
0.311282
0.290993
0.292465
0.288885
0.29705
0.313248
0.334529
0.32135
0.290861
0.2906
0.301374
0.289986
0.298028
0.290242
0.316364
0.321968
0.290122
0.288573
0.290293
0.334858
0.312785
0.347482
0.290478
0.289931
0.2905
0.288773
0.355735
0.295161
0.287313
0.289032
0.298873
0.346055
0.313521
0.291245
0.290484
0.299535
0.291588
0.287264
0.287183
0.289148
0.289264
0.290472
0.2885
0.301855
0.302793
0.325116
0.311274
0.349244
0.291031
0.294231
0.301646
0.292852
0.292494
0.290569
0.294429
0.290107
0.289712
0.289064
0.342192
0.296156
0.290723
0.341182
0.289558
0.290008
0.291259
0.287138
0.309844
0.291361
0.290146
0.289438
0.33001
0.289992
0.293734
0.334871
0.290115
0.288978
0.330299
0.350522
0.314383
0.311226
0.322956
0.290219
0.297113
0.288008
0.307567
0.291166
0.291177
0.291396
0.339033
0.331166
0.322141
0.328347
0.290675
0.290174
0.289501
0.290492
0.290843
0.290465
0.330938
0.289715
0.289278
0.306332
0.302721
0.313308
0.290745
0.288851
0.2894
0.289856
0.34117
0.289924
0.28935
0.289107
0.310822
0.295986
0.284524
0.291139
0.338583
0.288651
0.294811
0.289422
0.293261
0.28689
0.304691
0.337406
0.318847
0.298661
0.294771
0.299326
0.28911
0.287433
0.282919
0.288266
0.287096
0.307782
0.289124
0.290481
0.282523
0.287143
0.287515
0.306327
0.333593
0.287894
0.286426
0.287299
0.286725
0.291895
0.331092
0.288681
0.290702
0.285884
0.290385
0.291844
0.344875
0.328596
0.341768
0.308544
0.285957
0.292184
0.284564
0.292493
0.298752
0.288832
0.29128
0.293762
0.290032
0.306797
0.324404
0.30318
0.29002
0.290732
0.294921
0.321776
0.289438
0.300926
0.32319
0.320209
0.290725
0.297062
0.284679
0.291405
0.290324
0.307274
0.316499
0.290593
0.291201
0.326333
0.299773
0.288462
0.301111
0.290835
0.322481
0.297818
0.289858
0.293719
0.288687
0.367749
0.289661
0.288293
0.295822
0.321072
0.288683
0.289024
0.287172
0.287258
0.290509
0.298361
0.291892
0.295621
0.330618
0.32769
0.304969
0.289942
0.317957
0.362351
0.286558
0.307856
0.290145
0.295204
0.318777
0.334345
0.302571
0.315312
0.289573
0.289427
0.30463
0.288455
0.288327
0.288505
0.291125
0.287649
0.324892
0.288426
0.298756
0.296452
0.323528
0.293847
0.289131
0.319494
0.287982
0.290685
0.347191
0.298606
0.320618
0.303211
0.290732
0.287981
0.29453
0.335866
0.319081
0.308243
0.300163
0.336123
0.386404
0.307017
0.303311
0.317316
0.298189
0.285341
0.291954
0.33129
0.302442
0.290981
0.33712
0.288502
0.295821
0.329239
0.2897
0.291103
0.297564
0.292827
0.331894
0.292025
0.367182
0.301227
0.350008
0.366265
0.357922
0.330452
0.389071
0.291514
0.29153
0.348992
0.331073
0.289197
0.28634
0.291747
0.320411
0.289343
0.330112
0.361855
0.352617
0.337624
0.36235
0.288989
0.292184
0.339556
0.363373
0.316802
0.335052
0.302411
0.300399
0.359303
0.353691
0.338368
0.289015
0.340398
0.290664
0.291478
0.30806
0.309156
0.313542
0.288766
0.289385
0.30718
0.320718
0.286138
0.288798
0.290354
0.291743
0.29167
0.312794
0.327298
0.30882
0.304358
0.305177
0.299343
0.300806
0.308721
0.317635
0.328145
0.291521
0.2943
0.294155
0.321215
0.306606
0.337476
0.338246
0.290044
0.289384
0.290498
0.289892
0.289117
0.291229
0.305049
0.290102
0.29285
0.327131
0.339936
0.286222
0.294917
0.338256
0.293697
0.296141
0.290897
0.289508
0.348455
0.301159
0.322212
0.326725
0.370739
0.289075
0.318892
0.313533
0.287646
0.294629
0.290674
0.303888
0.283727
0.315363
0.323382
0.290983
0.315867
0.292432
0.283907
0.329643
0.323566
0.296768
0.289701
0.320124
0.331843
0.294626
0.332608
0.28939
0.316553
0.34109
0.289883
0.323887
0.286347
0.315815
0.288373
0.319299
0.298136
0.28854
0.318257
0.347429
0.289542
0.305621
0.285088
0.304442
0.320434
0.29189
0.333586
0.286575
0.296103
0.290527
0.353333
0.29932
0.287788
0.293425
0.318684
0.313532
0.295317
0.34012
0.294195
0.310662
0.287813
0.28966
0.28805
0.289941
0.287201
0.314849
0.298307
0.288575
0.322515
0.289597
0.288918
0.294529
0.288818
0.31898
0.372739
0.295933
0.346226
0.317901
0.364577
0.314767
0.29371
0.300801
0.288637
0.344014
0.290089
0.319319
0.289534
0.294129
0.363678
0.341042
0.301323
0.29301
0.289515
0.306046
0.328562
0.291844
0.314655
0.322728
0.287561
0.320071
0.283969
0.284522
0.306408
0.329671
0.306356
0.347412
0.282029
0.340163
0.292225
0.292438
0.326937
0.297868
0.291429
0.290769
0.305256
0.291268
0.290684
0.290861
0.293019
0.293722
0.293309
0.291668
0.285256
0.313232
0.323058
0.3026
0.309438
0.328323
0.299375
0.318319
0.290733
0.28961
0.291223
0.287199
0.288907
0.287043
0.287125
0.287157
0.28788
0.288105
0.311485
0.32132
0.284649
0.291794
0.29302
0.329865
0.299914
0.321228
0.292208
0.338855
0.308907
0.284463
0.323419
0.288899
0.324159
0.286222
0.287937
0.291637
0.323963
0.286952
0.292667
0.299057
0.297484
0.317185
0.287545
0.28604
0.287113
0.292208
0.29253
0.292261
0.292208
0.311923
0.336559
0.301148
0.287498
0.290035
0.291239
0.29
0.289431
0.29177
0.290993
0.291355
0.289001
0.2898
0.287511
0.289785
0.283962
0.288656
0.293967
0.291514
0.334901
0.292634
0.305202
0.299008
0.287754
0.288002
0.287452
0.288601
0.338025
0.289567
0.294388
0.301242
0.323678
0.291581
0.350594
0.323515
0.347453
0.339087
0.290869
0.289634
0.297833
0.296438
0.293059
0.300853
0.324938
0.289558
0.343051
0.292023
0.288701
0.290259
0.304045
0.291222
0.28968
0.288889
0.296944
0.318691
0.288954
0.288567
0.358
0.342524
0.288596
0.337247
0.303599
0.330219
0.296189
0.288781
0.292395
0.294861
0.289519
0.301195
0.306957
0.29043
0.291904
0.290927
0.333097
0.329557
0.316317
0.290787
0.295818
0.28493
0.341692
0.320999
0.290413
0.289821
0.335304
0.343241
0.290043
0.316228
0.327582
0.2898
0.328072
0.290597
0.290264
0.290299
0.291628
0.291967
0.288631
0.286738
0.289141
0.289323
0.28889
0.287713
0.287397
0.290221
0.314402
0.329732
0.290071
0.289829
0.316992
0.287517
0.296922