/*--------------------------------*- C++ -*----------------------------------*\
| =========                 |                                                 |
| \\      /  F ield         | OpenFOAM: The Open Source CFD Toolbox           |
|  \\    /   O peration     | Version:  2506                                  |
|   \\  /    A nd           | Website:  www.openfoam.com                      |
|    \\/     M anipulation  |                                                 |
\*---------------------------------------------------------------------------*/
FoamFile
{
    version     2.0;
    format      ascii;
    arch        "LSB;label=32;scalar=64";
    class       volScalarField;
    location    "0.075283";
    object      omega;
}
// * * * * * * * * * * * * * * * * * * * * * * * * * * * * * * * * * * * * * //

dimensions      [0 0 -1 0 0 0 0];

internalField   nonuniform List<scalar> 
3919
(
71.1433
70.3085
100.201
135.379
78.709
67.9771
103.176
62.3608
43.4231
76.9868
69.5016
54.7118
68.0529
55.5339
66.0816
94.8002
46.5856
49.0086
57.891
60.664
52.105
80.316
41.2494
47.0991
41.4597
70.6349
42.8581
49.4015
105.616
84.168
69.5681
52.3005
42.7904
59.7779
45.3108
45.9389
148.141
71.4742
45.4402
71.1368
65.4643
52.8546
45.1595
71.4207
163.808
110.288
180.051
82.8113
59.5779
41.5264
42.6636
76.6347
41.6021
66.4335
91.023
41.7707
119.037
123.737
43.3603
62.6351
121.786
78.8672
103.128
90.1951
56.1111
67.06
43.2294
84.255
59.8714
41.6025
47.7659
85.437
115.091
103.607
121.311
92.7082
46.8631
42.8798
52.3914
71.2801
73.7808
41.8433
45.2388
52.5584
51.2526
49.9422
59.0267
82.9489
81.8651
79.639
93.8165
129.601
128.267
42.1061
82.5212
81.4015
79.1782
64.9597
87.2875
48.5842
44.4832
68.4309
101.103
46.3315
144.366
45.59
92.4943
81.9292
73.6012
80.1784
88.306
66.172
70.4393
47.8602
46.9154
49.2463
48.1434
57.5188
79.9296
75.9868
64.3554
66.7227
42.2206
103.464
46.5268
51.0453
43.1094
68.7189
109.574
61.2235
45.5171
73.0222
125.228
41.5894
57.6721
58.8138
68.1299
60.6384
68.5084
74.863
58.0961
40.878
72.6501
42.5098
51.3268
62.4168
143.896
44.9323
46.2701
58.5495
69.1675
44.5272
54.5823
55.6423
47.7279
43.5452
42.8311
70.7487
41.9624
69.9164
51.6207
86.7235
124.194
48.837
93.5248
120.188
123.515
77.3135
67.7013
42.107
166.279
59.283
47.9298
45.9431
117.058
67.1442
82.5397
47.9649
78.7194
84.8633
183.452
85.2411
42.8297
69.4312
82.6567
67.9117
87.8281
56.8454
71.2471
78.8354
64.4585
67.0716
111.34
61.3248
77.1467
43.8053
93.4947
46.0714
90.0006
133.381
43.6487
75.9638
45.9622
69.0054
88.0829
41.4053
40.9479
113.453
69.8518
80.0266
118.031
45.7356
42.1601
41.8937
88.5085
41.7796
41.6705
71.9524
71.3112
47.2387
42.0208
60.4941
68.0065
66.6143
42.5926
47.7884
77.973
70.5765
81.2872
63.9984
117.322
56.4252
123.414
69.6402
68.4437
65.7865
53.3777
53.7834
72.3389
66.9516
189.999
89.8703
88.9241
182.543
186.38
71.8107
94.7759
122.719
160.414
98.0513
103.711
182.927
123.304
106.097
105.7
112.1
90.4651
72.9767
79.0786
107.22
69.5194
83.5275
122.197
120.821
85.4739
150.753
86.1949
180.995
77.5404
80.2918
56.7452
107.199
105.808
141.904
80.2672
78.2734
43.0238
149.812
82.842
87.9418
86.27
61.1092
119.783
54.4481
98.7876
54.2607
43.1007
102.657
79.5734
175.544
42.8936
67.6061
69.3897
41.2618
77.7332
148.564
52.0369
63.8874
47.4731
163.488
69.036
74.0971
67.5198
71.0581
46.3592
77.4167
155.889
95.6474
49.2389
69.7676
87.8581
86.4915
67.4419
111.096
86.2201
64.7777
78.9402
168.505
56.5218
68.3424
74.9731
43.8068
73.2337
71.1661
69.5581
78.3197
59.7259
60.1255
86.4864
50.8302
59.5027
41.7495
48.1825
79.8553
47.9028
44.7452
180.394
94.4542
77.6598
63.7071
84.8585
81.2944
66.3568
121.794
66.4615
43.1317
89.0591
91.7599
60.3255
63.9775
136.177
64.0522
43.1269
61.2698
73.1786
84.2497
73.9769
100.69
88.7834
41.4159
44.8622
61.1246
62.8787
54.0467
41.7761
42.1202
41.9807
92.4703
48.8779
42.31
56.3993
79.6294
41.5783
66.9646
93.4548
77.7791
47.4826
44.8812
51.6256
77.6068
85.886
150.739
89.7716
89.3354
94.2166
54.1571
100.037
82.9228
66.4865
88.9421
74.7155
109.713
67.3353
185.044
89.7792
87.4052
163.402
127.406
166.353
42.2583
56.3799
85.3045
99.7463
42.3674
69.3206
67.8815
60.8379
103.947
101.316
126.585
80.934
67.7748
75.3989
63.6805
121.641
77.9305
98.6834
86.2559
125.198
46.9962
65.7927
121.5
51.5738
121.241
117.02
75.3219
43.6078
47.1197
82.6645
75.5817
51.6209
67.6373
60.1037
71.9406
59.4133
112.056
94.3274
110.797
90.9593
201.818
197.543
98.5766
113.658
104.339
122.912
90.7922
91.1996
99.4029
67.8261
78.6709
65.1646
106.492
71.7412
63.9579
144.574
119.471
49.1133
83.7386
85.273
82.2206
96.2203
163.382
164.728
97.0026
125.281
105.376
44.7443
59.5853
43.9616
46.5768
50.2677
55.2706
94.8208
146.857
67.7745
86.4685
101.144
144.346
132.854
49.8203
100.091
60.6176
87.508
42.9585
85.6802
85.6714
71.9883
77.8262
94.2488
89.0516
42.4151
60.0938
85.9965
124.737
79.9014
75.6055
62.8426
121.572
60.741
89.1022
65.8521
74.3685
61.4805
141.507
66.1667
69.456
71.6628
89.7674
128.697
72.6746
80.5674
82.175
76.4457
68.269
60.8528
51.3695
113.794
56.0844
75.6976
126.907
64.7426
89.0304
77.537
47.974
75.8692
57.2919
69.1812
89.8377
95.4848
85.5534
140.62
111.179
109.935
48.4105
43.6442
59.7963
90.2487
80.1088
224.591
114.388
228.542
98.1273
109.893
70.696
53.0374
88.6147
71.1921
77.7636
81.5662
54.4494
111.951
54.4968
75.8151
108.094
115.692
182.33
130.537
115.941
122.905
105.814
104.415
73.9461
45.3424
45.663
88.1819
60.1201
41.3041
86.2451
139.54
90.1306
44.0342
52.1701
73.2832
73.452
173.578
80.9661
80.3169
77.5239
57.6953
67.9166
40.5702
42.6527
97.6583
68.4356
89.0346
54.6222
78.6852
58.613
87.8645
70.9578
87.8397
77.5934
96.0416
103.834
100.269
99.2306
100.233
98.133
97.0528
48.3101
61.2323
78.3657
46.1944
48.2876
42.6002
57.383
47.1366
97.6788
73.2032
76.3775
47.4401
84.7592
44.4982
69.7732
47.2906
78.6982
70.5135
57.5758
43.005
43.5973
94.1085
69.3987
89.8141
61.2335
68.5949
56.359
53.2922
42.2145
75.5901
140.669
40.9104
59.5556
85.0249
62.8644
61.3546
83.6139
128.39
109.921
91.0296
159.914
41.9476
67.8587
68.9315
49.3573
42.7004
183.643
58.6766
79.261
65.1159
41.638
41.9068
54.4104
101.656
43.9722
56.4142
45.6526
44.5952
46.7262
41.2208
88.6097
71.0745
104.172
45.7123
56.0405
92.198
47.5278
69.4108
87.0692
63.5419
81.1074
43.0297
61.539
47.8165
41.6628
48.5551
43.241
58.7292
50.3299
47.27
62.1494
106.793
52.6651
97.0519
58.98
43.4592
77.0141
90.7391
71.7723
49.1079
44.1266
96.7269
48.075
43.6953
77.5499
140.339
63.4111
41.3014
41.7424
69.8228
92.1367
87.294
41.393
52.7755
44.5298
93.3163
121.054
102.266
91.6957
83.2505
95.6244
105.713
67.6662
51.8193
69.5286
61.3679
43.975
105.074
44.9286
44.7432
48.316
49.7328
46.2349
76.2258
45.5154
41.4905
76.8077
69.5151
85.0111
80.2948
131.556
85.1202
76.9532
140.562
70.8631
41.094
47.9395
42.4617
81.1352
54.6593
98.9506
70.6495
80.5607
80.5393
65.599
54.3905
58.3337
53.1698
100.737
56.4443
60.6239
45.0903
97.6962
49.7437
41.6924
55.8808
60.4732
105.359
41.6207
65.8587
54.257
124.944
41.6921
84.5067
115.698
68.7218
139.569
44.1415
62.5585
75.6908
98.9861
63.008
47.696
50.378
52.4029
96.4837
41.4743
81.9329
49.3752
70.2064
64.0293
54.467
68.5255
63.6434
89.9719
63.8316
77.697
86.0366
43.6916
77.9374
172.068
88.7615
75.7043
47.5666
62.3385
46.8096
46.6505
42.0689
56.1052
75.0844
58.9619
88.4718
49.949
40.6553
59.3274
43.9396
88.5005
53.4794
82.581
82.8226
51.4937
58.6977
49.3534
90.0578
81.447
55.5815
42.0127
113.006
42.5431
100.709
54.5657
60.5349
55.567
66.2367
86.8874
45.3676
43.2561
88.4652
53.6098
45.4493
45.9952
51.0776
44.7034
103.85
41.865
66.451
50.7555
98.5685
41.4318
62.1875
78.8795
45.7849
53.4593
52.2604
84.8584
126.985
51.1873
63.9552
40.7379
42.0083
141.669
64.4018
42.4304
63.514
48.2131
46.2227
83.5775
82.6014
118.29
69.0421
56.7962
56.2067
121.357
54.1955
95.5769
68.1243
62.4828
65.7864
75.3968
88.1799
80.2947
47.4391
41.6768
41.1538
41.2468
47.4627
45.2329
41.6442
58.5835
44.734
76.0374
82.1167
130.153
69.201
43.4139
100.116
51.721
42.26
50.6198
72.4456
83.4357
72.9665
50.5911
44.3799
44.3844
88.7281
54.0969
80.4777
100.342
59.2211
50.3457
77.2953
127.194
87.5204
69.3029
89.2525
43.0738
48.8894
84.2067
65.0203
43.5156
78.8934
50.9359
46.7216
75.6102
81.6732
97.564
48.3624
60.9249
46.2449
46.5097
120.913
67.4759
81.7752
113.997
49.9911
85.8345
40.7003
76.3957
43.8773
91.012
42.4713
75.3022
74.2449
70.4525
42.4422
41.6618
41.4059
41.8098
41.5687
40.9871
69.4207
84.1377
44.8282
45.7883
72.1963
149.63
84.413
169.035
43.8132
52.097
88.5336
54.2064
48.8691
176.83
44.3024
51.9795
48.734
41.4522
80.9976
68.7751
78.7257
72.151
96.255
78.7097
46.3906
43.8518
42.1597
61.2097
54.3831
49.1261
54.1555
112.828
86.5937
61.7483
42.6589
41.5864
60.8176
42.2026
42.9843
57.54
81.2674
61.7438
61.381
42.2114
45.5397
91.4044
86.7381
109.677
120.532
48.6347
93.3565
70.6121
97.131
50.8097
42.5584
58.6094
46.8284
66.2446
53.5195
49.2843
57.8619
44.6863
56.9439
64.3569
79.4797
53.5299
41.9898
43.2208
47.8731
63.9798
42.6542
64.1293
65.6719
77.1942
60.4207
86.5375
44.4479
47.0478
46.0924
48.2775
46.6294
44.5728
47.172
46.9258
43.0919
45.3704
46.4201
42.9762
89.603
79.9865
63.1168
68.9716
88.7224
42.6887
48.9934
92.6055
47.5515
68.5366
91.4502
72.8433
64.8888
68.2117
44.8459
64.5949
47.4418
43.3525
96.824
52.6048
94.3442
69.7019
60.2623
41.9319
65.2256
46.1399
80.9243
66.24
50.3646
42.1927
79.1938
40.9853
41.4357
80.7076
43.9545
46.3586
54.0815
70.8166
45.3233
63.6986
87.7719
48.4922
79.3421
98.7384
97.4853
67.0634
49.2601
52.3058
52.8759
45.3877
47.007
87.8588
89.0043
67.4238
65.8079
66.2569
78.3365
98.4439
66.2002
42.0574
57.9059
61.6371
67.8308
44.048
65.7461
85.7145
50.8113
88.7805
62.7984
77.4622
64.669
67.4172
96.3713
65.6296
71.0786
67.424
60.3586
61.3518
55.3573
45.9139
50.4137
123.475
63.4203
44.8904
43.9857
46.7568
42.0481
51.6479
53.493
75.632
68.0065
42.3845
43.7574
135.873
63.3269
45.3663
66.6215
56.4442
57.9479
42.5023
54.3496
130.308
93.7156
80.8494
47.4603
47.049
65.0362
49.4089
41.248
72.3669
55.36
61.7472
46.7892
86.3648
42.0528
41.636
81.434
82.0266
42.6168
68.233
48.0598
77.8259
43.4701
164.142
48.523
53.9475
49.8594
50.4507
91.2487
59.3908
45.2582
41.0495
43.5708
41.8516
48.4074
70.3019
82.8538
58.8082
92.0806
42.6164
43.8303
116.601
70.8961
45.0988
41.4546
48.4686
47.9743
54.3217
48.5942
77.3044
41.9612
59.2523
41.7721
46.5748
59.3393
83.3492
65.4063
43.4623
68.5394
42.2331
60.9195
65.9298
41.1238
43.1378
71.1662
87.8372
60.5495
44.9747
44.731
158.312
41.9237
41.605
62.4289
175.299
61.383
72.7531
49.7076
41.0619
42.8024
71.0617
43.4293
43.4604
45.2482
51.5572
74.6406
42.6633
74.329
75.9408
64.0075
42.9675
43.7329
41.9626
60.747
62.5726
48.2918
55.8513
94.5261
118.099
51.2188
40.9253
67.031
86.2803
43.3636
43.4241
45.4408
45.4294
41.7371
46.1451
40.9337
55.1996
76.3758
69.6323
45.9911
43.7689
42.9965
43.7155
45.4065
42.2066
45.8494
41.709
83.6862
41.3636
41.4961
96.1594
76.2206
85.8993
49.3449
99.8364
48.1397
74.03
58.9453
84.8832
91.81
53.8357
67.7276
58.2172
180.266
42.2037
43.8455
44.1264
42.9328
43.7588
48.9196
42.4962
42.9286
44.4628
91.4446
98.8748
110.651
41.5382
64.5015
88.0071
43.3536
66.7038
46.796
40.8047
42.9602
40.8319
41.1859
186.349
63.0614
51.2845
42.2356
43.6077
72.3487
45.9846
75.0304
83.8272
42.637
51.2914
92.7553
70.5754
47.2618
43.0902
41.6811
50.7368
46.9071
41.0895
98.4922
101.096
41.5966
43.7147
77.3341
85.5156
74.3249
46.0511
45.3722
70.5082
50.9776
57.5678
45.4769
45.6647
70.6608
65.1347
42.1507
44.3501
57.7908
70.1704
101.402
48.2856
81.9673
60.5435
82.9968
55.0634
45.1422
53.6009
59.4991
101.421
43.7906
94.8494
42.9168
43.7458
45.9979
103.85
65.1671
80.8673
43.9045
46.8242
45.6633
41.8846
46.299
46.1082
69.8526
41.1585
47.0779
41.3949
41.3718
46.8167
42.7383
73.9498
75.4356
150.337
46.8513
47.1766
88.7615
50.0543
75.0501
77.6904
101.386
72.5868
61.8444
45.0466
53.8695
59.769
42.6978
47.5376
47.1212
42.7124
93.1263
69.7082
73.2188
66.5832
45.1913
55.1896
47.7066
44.7211
47.4378
43.2155
41.198
46.9292
63.449
44.9853
48.4284
47.4137
70.3541
53.0626
54.8362
43.1152
77.2305
48.9812
46.2407
47.5042
41.5842
81.7763
42.6614
47.1834
50.9549
43.2484
42.6145
47.2391
42.9817
76.7891
97.4908
53.3505
42.3267
48.4844
41.7799
45.1566
41.7171
41.3714
41.4237
41.761
46.6976
41.7146
99.9364
72.6586
50.6176
42.5146
42.8267
43.0386
79.3754
46.3146
85.4014
106.019
40.8141
41.1624
41.2517
41.4083
40.8535
75.5171
43.7404
55.4292
75.7818
75.1174
56.4892
49.861
40.6227
62.2651
44.087
91.5783
101.163
112.934
43.2792
48.855
63.5829
67.5851
65.5046
54.779
65.3954
62.5087
40.9555
93.0152
74.4577
111.293
100.814
82.2555
44.1935
77.9413
186.861
70.4051
49.5345
64.1544
78.9017
88.8454
60.7581
48.5147
42.1024
42.0188
106.237
64.4085
51.8445
46.5566
41.3172
88.4447
46.1919
83.1331
80.4099
69.8749
106.011
48.7092
66.0776
44.082
95.8173
84.4893
62.2135
43.8075
78.1634
42.4314
66.5834
62.2481
71.1521
49.7253
46.2241
74.5548
89.7756
101.267
93.0166
42.5037
68.8562
93.725
97.7461
67.919
67.3519
47.9266
72.6497
42.2683
43.0605
62.724
41.6083
41.9511
42.4221
72.891
42.2075
52.4715
72.2709
62.3551
53.3778
59.3467
83.9379
71.7709
108.284
42.3832
43.4176
40.7122
41.2199
43.627
40.5178
84.2073
188.62
41.6883
48.1925
49.8127
92.7528
42.1446
42.7058
75.4227
45.7614
63.4824
56.2532
46.7219
46.4401
70.6742
41.0422
51.7977
42.9518
58.5752
52.3407
44.5887
43.9783
60.4667
88.3811
41.7058
48.6116
146.732
60.3441
42.2318
133.573
93.3167
50.0585
69.8217
53.3438
133.442
70.1188
44.3744
45.3377
46.1124
45.6099
101.551
53.8026
44.0344
68.3046
46.6369
69.0772
61.6657
48.6226
41.3292
77.4996
105.106
81.9583
45.685
56.177
74.3195
69.195
41.7219
41.1569
47.1658
42.0723
87.523
61.1456
103.218
106.479
43.2617
42.2293
41.8775
40.8373
47.2134
69.3079
47.6414
127.232
53.6486
117.522
42.4153
41.3616
44.7909
41.9405
87.6525
68.7682
42.841
48.4626
43.1137
44.4982
106.033
96.2558
84.4549
50.8395
46.1308
52.6289
84.1117
45.1401
44.5475
44.3407
89.6264
60.9703
50.7897
52.5047
50.2388
48.3012
42.1275
45.205
107.058
96.9423
63.1973
97.4226
65.6282
71.601
86.5235
68.1827
67.8017
42.9187
95.8901
46.8964
41.0994
94.6704
95.0189
97.8078
53.1765
50.1361
105.221
93.0693
106.326
94.7408
82.2303
43.7588
94.6603
89.6284
64.853
45.5033
96.1549
90.817
100.896
46.1448
45.3076
77.2557
73.7588
42.5329
41.0706
40.9083
42.8236
58.9925
43.9518
42.8923
75.7154
84.8337
64.9046
64.2844
57.9448
79.3321
88.022
60.2045
73.8029
135.459
77.049
78.2713
54.1785
73.1081
68.74
68.4017
135.755
60.7627
135.286
101.933
83.9135
112.94
87.0512
78.1019
81.1572
82.1789
81.5764
77.2759
56.5686
91.6484
92.7309
66.2471
74.7304
79.4756
69.7215
109.416
63.0264
118.673
92.4832
59.1016
100.992
51.124
89.5695
74.4566
61.6441
60.6261
89.4507
88.483
65.1846
48.9234
90.7991
75.3172
70.6815
97.4803
91.7429
103.164
115.863
111.293
57.3575
94.0821
52.5992
117.616
65.9965
94.7856
87.2176
86.9431
115.66
83.3535
75.8566
93.7268
124.14
57.7109
58.515
51.5496
62.9226
94.7749
92.4427
66.4137
85.5836
43.6103
41.9276
51.6654
91.3994
48.8653
68.124
58.7253
69.43
47.7131
203.847
92.533
90.5849
59.7772
96.69
69.8707
94.3609
45.1223
58.4153
115.249
40.6184
42.1583
42.022
40.6959
41.2866
44.8145
41.8171
46.1918
44.6021
47.9721
41.4637
60.4277
66.1786
85.8
41.4193
42.6977
48.0718
49.9267
91.2804
95.715
96.9844
60.9476
51.9127
65.3667
66.3713
41.1113
44.5084
46.6889
85.4425
47.9963
78.9804
72.5396
82.1614
106.674
42.4378
57.4769
57.0571
43.5816
60.0167
43.4461
44.5186
42.7417
44.8267
45.6978
63.8238
67.3506
43.7285
42.6979
62.0353
62.1795
56.2469
42.2845
45.2349
44.1637
44.8565
44.1118
42.8216
41.4602
41.8184
46.7227
63.7801
41.2666
63.1542
45.5975
54.5052
42.6245
49.515
67.7004
42.5146
43.5416
43.078
42.2017
50.9441
72.9434
41.2656
41.2356
45.9856
45.6626
54.6909
84.6639
46.5778
49.3563
53.3976
62.6059
78.6612
79.758
67.1683
86.4923
86.7842
95.5116
43.0384
96.9529
80.9563
76.9801
109.319
47.9829
44.5546
106.554
46.8491
112.885
64.7243
95.3522
51.741
75.4321
92.2362
47.8821
78.2109
96.3001
72.6078
95.4897
57.9992
44.7573
50.5205
70.4631
41.6654
72.8624
45.3174
77.1956
43.1057
93.1591
67.2551
71.8933
70.8335
41.8489
85.7434
83.7923
98.2343
87.8836
41.9788
51.1348
42.0405
84.0351
66.3822
70.7617
40.937
98.3074
46.2088
42.4272
60.4186
98.2362
42.472
56.7026
40.9244
107.046
48.7484
48.2378
42.2421
62.0106
44.0476
91.607
100.284
86.7417
63.3188
98.755
133.02
41.9964
41.7807
60.787
61.5084
50.0421
63.2087
79.7845
93.4239
112.628
57.3582
42.0803
92.6354
85.2942
41.8822
41.0272
88.6373
80.3271
42.705
42.497
42.7291
45.8949
73.5524
47.56
41.3491
41.6252
45.229
40.741
65.4056
65.818
41.4018
43.6767
43.098
42.0184
62.5996
62.5359
94.4226
95.9396
52.3653
96.7992
53.5846
70.5977
95.7807
43.2729
107.704
48.2865
86.5403
51.1272
60.0861
41.4624
92.233
94.1668
44.8157
84.7171
142.741
94.5559
46.4119
109.464
75.2173
62.4395
130.604
111.391
175.754
127.093
75.9525
42.5079
62.1746
159.678
165.521
156.801
160.665
84.0599
43.0945
99.3797
72.3958
98.2313
81.3647
66.7838
48.8537
57.1561
87.6579
77.3949
165.575
45.3087
43.582
81.3467
79.3496
82.269
57.2573
69.3514
65.0077
83.203
67.5871
43.7561
45.4699
50.4524
82.9737
58.571
55.6987
93.1733
42.7332
67.1774
97.484
81.8431
43.3502
85.4136
73.5842
74.2323
44.9341
48.4713
69.4411
81.6962
82.471
41.9057
62.0603
48.8951
45.4832
79.2618
45.7875
133.978
99.8903
53.3651
95.8897
68.1504
96.2137
65.1722
67.9693
45.9752
41.17
66.8141
67.7872
67.1533
44.5255
116.764
89.6564
74.8611
71.8255
46.8425
91.2257
50.011
42.1215
64.5413
66.904
60.1888
43.235
68.0018
57.7834
70.1474
41.4697
51.5692
47.8297
75.4815
130.301
89.5117
76.1508
113.36
76.5836
84.7403
89.5445
66.07
59.8964
96.8631
45.2246
42.3581
141.51
86.0725
158.183
46.8688
43.9857
48.9538
47.216
48.1376
44.7394
74.7321
51.3832
55.6545
75.6814
89.3464
97.9884
74.29
57.1908
46.837
65.5815
61.5377
42.559
80.4893
44.4833
50.5399
47.7651
42.8703
41.7665
152.907
87.2043
101.692
132.227
167.668
53.9722
72.8832
144.932
47.8402
44.562
51.7668
55.0418
45.6592
45.3238
51.5203
90.7335
65.8412
119.109
43.7288
44.4303
46.8866
47.9822
41.3621
43.0401
42.1852
185.114
71.2357
116.621
44.6997
79.653
178.521
92.3072
113.108
112.557
62.5399
107.082
112.782
49.8263
47.7332
53.0318
105.543
47.8875
42.4934
44.41
42.4112
41.8185
45.3624
41.9339
97.2743
82.0023
70.4949
96.0752
49.0642
75.1002
67.1494
151.457
67.6101
44.5376
41.9371
83.9907
69.7368
68.3445
41.0392
98.5233
45.4994
70.6503
65.0365
47.9585
148.889
80.1605
41.4959
70.5437
45.7207
80.1007
83.4375
82.7609
64.9879
51.8772
41.2872
80.8622
80.1148
79.5048
41.9732
89.5954
52.8228
41.4171
59.8864
60.2518
79.0467
52.244
46.259
98.3993
64.1798
47.2182
55.5549
47.2224
103.482
76.0083
42.6996
44.922
52.7878
64.6155
61.3742
41.8132
45.9014
117.825
67.9761
93.0598
44.3305
65.9116
73.2865
41.2665
123.12
44.5848
43.5301
42.8122
47.9485
45.9058
41.9655
61.6224
116.642
105.109
79.007
42.7922
41.4571
44.8747
49.0299
60.1879
42.5995
142.301
42.2123
112.023
66.559
78.1962
53.4688
58.1218
47.0888
55.3664
59.7647
71.185
63.7946
41.148
119.59
149.664
90.0776
41.7797
45.6204
52.9705
41.7446
49.5328
42.3305
46.3638
94.0495
56.5354
41.459
57.824
46.7351
51.5921
70.9254
83.181
45.1118
42.0533
71.1349
46.8812
46.146
42.3562
45.1765
41.6759
58.9602
45.4559
100.697
76.0139
74.902
65.1262
43.3134
43.1677
43.2768
42.4382
70.9061
134.589
43.5479
110.963
52.7021
52.6323
82.3251
124.888
80.0098
65.8443
43.9917
41.9599
79.2356
50.0972
58.7475
45.9088
85.5374
69.5822
108.263
51.3632
41.9427
128.881
61.378
43.4369
53.6256
74.297
43.9502
42.8948
42.4773
54.7924
47.0488
42.4985
48.715
64.0037
51.0849
69.447
135.332
137.942
43.7394
99.2132
53.4765
83.3924
45.313
43.3286
52.1748
51.5306
42.7275
42.8985
51.8165
61.313
46.1642
85.5469
68.6517
43.9199
62.1312
42.7611
42.0493
81.2547
44.4631
110.109
44.4807
45.4482
60.9933
80.9972
41.6307
42.2748
51.5921
50.9032
48.1016
81.5186
111.796
44.6712
96.1214
43.681
82.0118
52.423
48.844
60.8911
42.7586
42.1656
45.0424
48.2536
43.3293
92.6323
81.6431
52.8721
72.2764
42.2258
79.5241
44.4504
41.8801
47.3517
42.6793
67.3758
46.268
45.4387
41.7384
43.0457
52.0438
84.9304
95.1067
42.4914
50.5594
44.2022
56.8309
97.127
46.2612
42.1724
51.5227
47.3246
43.2258
42.3329
82.1737
42.1136
54.1918
55.0998
94.5806
80.6848
95.7291
44.5828
79.3358
48.3845
83.9502
87.4292
108.722
84.4466
94.3308
67.932
73.0463
48.1914
41.9549
54.203
85.2144
66.1497
64.4198
77.4463
41.547
86.6523
85.8156
79.7885
76.5019
115.05
86.0603
41.9095
43.2998
41.689
42.5931
50.8163
42.9641
45.0037
93.4775
95.6312
101.305
45.0715
82.9869
114.801
88.619
101.367
71.1205
84.0288
41.9886
44.1668
42.8309
41.7257
50.7064
43.7197
58.7838
41.4026
73.7726
45.3531
155.338
158.536
63.4808
121.249
90.771
76.2924
52.6654
43.4832
58.761
137.889
88.7767
53.8556
84.8686
67.4916
67.3561
83.6201
84.5821
87.2425
85.7876
63.8682
49.7215
72.4612
83.5035
81.9935
89.9107
69.4493
60.8364
47.3657
49.4241
47.207
43.3313
54.2111
85.979
47.458
65.7501
52.3822
67.4378
48.1477
57.0891
58.5302
60.3877
82.8734
78.869
50.4628
74.5861
64.28
69.7063
71.4605
49.5269
48.0083
85.3878
43.5363
46.7277
56.318
117.919
55.4446
90.3797
74.006
58.5619
65.1476
62.5042
90.7583
44.6839
70.4179
65.0081
105.826
101.002
73.5565
41.9831
94.2132
87.5672
40.8917
80.6335
82.3507
63.4322
76.2612
69.9038
72.5126
74.0095
72.1192
90.0325
99.6991
69.4593
41.2982
82.5189
133.477
43.976
87.8345
71.9445
41.1015
68.9453
70.0884
46.5706
67.5452
59.0939
66.858
47.835
43.9475
83.008
43.992
104.292
61.6867
70.9311
42.1144
80.1756
51.608
52.3335
83.3415
62.9138
61.9594
46.3136
43.2679
93.1718
61.8961
98.8045
47.8829
54.5815
46.4731
53.9011
94.7045
48.7925
44.1377
51.2447
61.156
61.982
128.041
44.0767
61.1962
47.1893
43.5016
81.0666
135.279
143.296
71.8683
75.7157
41.5724
107.107
65.4172
148.926
40.6453
41.4468
41.2403
52.9818
40.2695
41.7328
92.7344
45.3492
59.6231
44.0059
70.3042
45.3624
75.1229
100.275
66.2727
45.0292
80.7031
68.9786
76.7148
79.5903
44.528
68.1801
43.2497
71.6133
44.9366
108.017
76.0165
46.1875
48.7244
49.7391
41.5812
71.0629
43.1334
59.7991
41.5906
67.6154
67.4766
96.401
68.4716
59.8801
41.9165
74.1302
46.3263
65.3829
61.2031
78.1289
85.7879
48.3789
44.304
41.5247
99.8579
74.19
85.2567
40.8208
43.0879
48.0805
45.7737
86.2628
53.2692
43.722
45.5232
57.5978
81.4995
63.9885
50.2586
49.7802
56.1092
50.6418
52.0644
44.1205
42.0274
42.8759
43.1424
42.2666
64.5176
72.3093
88.7729
77.2564
100.68
65.2544
54.4091
72.2205
63.4627
66.8613
63.8271
61.995
43.7081
43.4958
41.4778
91.3586
54.739
47.4851
93.5029
42.2249
40.624
44.5943
44.7657
66.9783
41.4366
45.1909
52.6285
104.173
41.9716
49.8365
96.7527
42.5643
43.1589
89.8244
92.5314
69.7881
73.1156
87.6891
43.488
50.306
49.7082
70.7464
59.5326
45.6691
44.9854
123.267
71.0795
77.2695
100.482
41.4444
42.3928
44.6119
44.5966
44.4223
44.201
114.33
56.6299
42.8173
66.1804
69.3133
78.6178
41.5042
41.6307
44.1023
41.1446
108.236
42.8285
42.6808
46.4962
66.165
71.6817
45.7231
42.6731
107.237
47.1479
59.9837
49.4346
75.0725
46.048
75.6494
101.858
91.6541
77.8519
58.8464
56.5978
67.3231
66.0048
50.356
44.0229
45.1334
85.6816
55.6574
42.2691
63.0965
43.7618
43.3436
81.3786
124.74
46.1711
50.3438
48.4051
48.1025
48.447
79.7311
41.009
43.4741
44.8825
72.8208
43.0008
83.354
78.7765
72.1758
82.8224
60.7563
42.6793
48.6415
41.2669
47.6974
43.5243
46.3008
61.8482
41.9531
79.7795
76.4547
73.6802
43.8175
42.9385
64.1152
122.512
63.4754
74.6987
86.8471
67.9462
43.1656
65.5033
51.5521
41.8165
43.4756
69.5008
75.7045
43.2474
43.2106
86.5467
69.0395
43.8234
65.1524
41.7719
63.8921
62.2937
43.5897
50.5573
40.8966
92.0575
49.2488
46.1024
79.3654
86.7444
41.6174
40.8908
44.2471
43.0862
50.0118
75.9964
42.7194
61.5755
91.9103
105.229
70.7172
41.5495
74.3971
92.5495
43.8345
73.882
41.662
60.582
65.0357
80.765
67.9728
70.8375
42.2558
62.6655
70.2799
43.9674
46.8674
52.8497
44.8749
44.703
106.148
44.2543
59.3388
65.422
65.4423
48.6662
49.843
96.4258
45.1371
50.1676
82.931
64.6914
87.3709
81.6841
49.2136
62.1818
73.1224
90.5648
95.1378
87.2211
63.0178
83.9947
187.539
78.258
70.5948
75.8019
82.1183
47.3421
46.6934
102.772
77.3439
51.7119
81.4168
42.4011
47.7204
85.2515
42.9348
42.4741
75.3603
71.5451
85.4067
73.068
149.376
79.4225
113.754
110.761
109.492
103.215
207.167
43.3735
43.2172
107.062
89.7938
45.1875
50.7474
47.5674
80.9477
68.7472
65.8288
100.644
130.919
74.8991
81.5588
52.7726
46.3908
82.0143
176.509
77.2365
167.636
67.7486
74.0753
93.2049
84.4123
85.7061
46.0303
99.3973
43.1485
44.6202
84.6471
67.2707
85.024
43.9362
59.3354
58.374
84.5177
46.4344
60.2362
43.8224
42.9086
42.7719
82.0167
83.8962
61.9174
66.3868
79.2901
77.1166
69.6153
67.3275
79.4446
74.106
41.6359
66.4508
68.7887
89.6921
75.4039
80.4832
69.3989
41.2869
41.8064
40.6976
47.3348
43.386
47.6986
63.2223
41.4872
47.1137
92.5779
114.188
48.2642
51.3802
91.2884
51.7158
52.2958
61.8905
41.4624
131.203
69.5173
86.099
98.6916
135.33
42.1562
79.6638
98.0468
46.4928
82.8069
46.7423
71.0706
51.7834
64.6114
81.4407
45.5536
79.5991
54.4454
51.5569
93.5239
105.751
68.4106
45.5561
70.2956
110.756
74.9455
86.7394
40.7143
83.3078
77.2117
42.3881
70.3713
47.814
89.5711
54.1985
81.1841
54.1526
41.0471
60.8144
74.5746
45.8707
60.2366
48.2978
60.0444
82.9599
68.4115
93.9003
51.013
76.4029
41.3045
90.2364
77.5595
49.5215
65.2885
85.5119
88.3348
55.7637
119.848
61.7276
79.6963
49.1002
49.1292
49.9732
41.1301
57.4587
67.6953
56.5268
48.6293
100.028
41.6556
45.3125
72.6917
42.3424
45.5039
142.565
47.0261
154.656
86.5244
124.078
71.3031
63.9526
82.3127
43.089
83.3164
41.0797
115.536
42.5894
74.7156
123.804
102.609
62.8461
74.964
46.5458
72.3252
140.29
42.4328
65.6051
79.4045
51.5148
107.141
45.7711
50.6475
85.4868
87.7995
73.8417
90.126
66.94
89.1855
43.0049
42.5322
72.4804
64.9165
43.8717
44.2747
69.0159
45.5029
41.3085
45.4247
46.3541
48.8659
50.7095
46.9077
57.8068
79.9366
93.1247
82.157
77.6117
95.0849
66.219
73.3481
42.9906
45.2226
47.1923
45.621
41.6067
45.6156
45.0551
45.1247
47.0783
47.1085
78.2634
110.024
45.2721
66.3478
66.0265
89.7266
72.7665
76.5325
61.2917
82.6235
77.5809
52.4223
74.5338
45.1775
149.651
51.4509
44.8567
47.3141
71.3179
44.4552
65.8215
63.7408
66.6422
77.397
43.6722
48.0868
44.2449
46.9571
41.2734
46.5246
41.0711
77.8511
68.0866
71.0582
48.2907
45.2627
46.9858
45.68
43.6477
43.177
44.7402
44.3809
43.8199
47.0115
53.8111
42.7084
45.7366
41.2852
56.8591
55.5064
139.957
70.0325
70.0088
74.5682
41.3786
41.0528
51.871
41.931
77.1822
46.647
69.2174
68.7346
73.5999
43.5327
74.2657
85.5522
116.107
111.17
42.5524
43.4889
70.0959
56.1586
65.6229
75.1521
94.3562
42.6415
122.967
41.5516
43.6087
50.0554
69.2348
48.7684
41.0662
41.4481
55.7623
64.891
42.8594
42.1327
122.955
73.3885
41.6742
180.019
60.6774
121.113
61.4335
46.8268
42.2603
61.2098
54.0031
64.7522
76.3104
56.1928
57.2272
44.7245
100.536
111.425
89.122
42.8873
69.4301
46.0161
112.387
82.4796
42.3756
42.3472
79.7444
81.8318
43.0217
91.401
69.614
42.9458
68.6094
42.3077
42.9429
61.1671
42.0874
41.7955
49.9313
47.919
50.8574
45.1159
44.4395
49.656
47.9166
44.6175
76.74
166.301
48.9874
43.3133
106.459
53.1515
77.374
66.5771
41.3382
46.7874
71.9089
111.354
85.187
47.3775
78.1732
102.403
115.536
64.7541
136.714
68.2163
89.6644
44.4079
107.481
74.4195
83.1227
92.0718
66.4073
87.7535
95.0076
73.0816
64.0599
58.0989
79.1517
74.3633
67.5933
109.318
115.513
96.5233
68.6047
65.0743
133.392
79.1029
78.3651
76.9661
107.054
77.8371
43.9669
71.3945
66.6684
41.4384
63.4473
59.811
47.1965
102.184
79.1777
106.757
79.8787
64.7914
80.6808
100.779
45.0475
60.0111
92.8703
67.2359
79.3308
42.2247
62.1889
41.7307
50.1583
75.0671
79.3856
85.7781
79.2678
65.2339
68.0694
101.579
60.2643
70.0656
71.9468
80.9845
41.3163
92.4651
163.775
161.091
71.7161
78.1515
68.4454
95.0924
74.0056
116.478
81.1164
61.3666
53
58.3645
73.4595
77.9413
109.536
109.904
85.5709
184.346
138.852
82.1277
104.644
63.5922
71.7682
81.6053
91.0577
103.77
88.6786
73.2124
96.1359
150.751
166.958
113.972
164.992
66.9724
100.771
111.109
54.187
111.672
67.4967
71.59
95.6722
43.835
43.3581
50.6897
47.5151
42.565
41.0856
43.6
41.6776
80.4946
43.2498
44.9215
43.3359
44.7084
105.226
103.989
51.5349
41.3627
42.04
46.6354
42.9269
44.6331
50.2398
44.0994
41.6238
49.5631
111.329
47.3734
43.6143
69.6105
53.0513
53.3176
43.1152
42.3533
53.0658
84.0691
65.6796
42.2478
88.9
45.9511
41.7184
45.793
41.3952
44.2113
63.2996
46.8852
69.4794
42.2513
56.1015
42.8649
50.1002
41.5735
87.1146
43.5738
42.2323
56.8787
54.8545
41.9251
76.6855
49.1978
43.5495
41.5457
68.7137
41.2077
42.3881
41.3567
45.7033
41.8872
40.7936
51.0498
41.0444
42.7999
46.3837
80.5075
50.2229
41.8539
41.328
41.2485
46.0934
44.461
42.7877
42.463
51.7201
59.0138
51.8434
47.1152
48.7257
47.2422
46.7795
45.5491
52.3641
42.6567
44.3972
76.0708
51.1608
105.289
46.4646
43.2026
44.2454
53.7818
51.4673
42.3634
52.5565
42.6681
64.6419
41.5647
50.4357
102.521
51.0802
42.4889
42.2483
43.4298
100.214
66.6271
47.5296
46.188
123.063
45.9613
93.7121
99.8836
75.6823
41.9435
42.0668
42.2009
42.7026
41.9971
57.1444
59.2554
41.3365
74.7172
62.2528
57.0598
42.9925
45.1938
43.1847
48.6265
88.3607
43.1978
42.1066
47.8499
71.8918
105.94
48.5188
47.724
45.4261
63.0584
66.5114
87.7664
42.9534
61.7299
41.4966
40.9658
99.4185
43.8298
45.606
69.8018
101.435
47.0363
101.115
43.0428
55.1034
75.0168
52.3368
61.9936
59.8033
68.3165
62.0255
46.9944
42.7186
59.5589
100.53
46.3441
82.7757
77.3059
85.7017
79.2956
64.078
44.2353
43.359
71.5558
60.0938
59.2836
45.1722
46.9121
67.9522
48.3923
41.9121
44.5058
96.4759
42.2488
43.0693
44.5337
52.2803
73.9508
43.9407
44.5782
74.4307
52.5473
47.1315
41.1566
66.7758
44.964
43.1351
41.1429
46.627
94.8427
58.3995
62.8422
80.4126
44.2701
97.3474
87.3303
71.6893
95.8016
88.8492
92.0898
91.888
60.2573
46.4966
43.661
56.225
58.0142
166.923
44.6017
80.8411
69.1571
80.5342
95.0103
106.738
79.8093
71.3465
103.707
91.1919
86.0705
65.7561
129.092
53.0449
82.4131
71.0178
78.5025
70.8196
100.986
63.2869
125.701
64.3104
55.5293
55.7971
104.078
95.4468
97.8643
132.122
86.376
64.6168
51.0067
86.5187
87.6734
88.5064
67.2518
75.1854
80.4448
41.1442
41.0816
41.1214
65.3449
42.0271
55.7684
48.8695
44.1086
107.7
41.2345
52.3039
41.7574
94.9818
59.1644
78.9693
90.0226
69.9751
85.108
43.7561
47.1661
70.8256
43.5374
43.067
65.9843
51.4782
70.4056
79.4926
54.6495
64.2956
160.534
161.848
71.5763
143.615
77.371