/*--------------------------------*- C++ -*----------------------------------*\
| =========                 |                                                 |
| \\      /  F ield         | OpenFOAM: The Open Source CFD Toolbox           |
|  \\    /   O peration     | Version:  2506                                  |
|   \\  /    A nd           | Website:  www.openfoam.com                      |
|    \\/     M anipulation  |                                                 |
\*---------------------------------------------------------------------------*/
FoamFile
{
    version     2.0;
    format      ascii;
    arch        "LSB;label=32;scalar=64";
    class       volScalarField;
    location    "0.075283";
    object      p;
}
// * * * * * * * * * * * * * * * * * * * * * * * * * * * * * * * * * * * * * //

dimensions      [0 2 -2 0 0 0 0];

internalField   nonuniform List<scalar> 
3919
(
0.0829999
0.0503115
0.0347441
0.024421
0.0289057
0.067446
-0.0341306
0.579589
0.505898
0.0214045
0.032696
0.156576
0.289218
0.0863005
0.0197265
0.0622089
0.315452
0.193961
0.113579
0.0860055
0.463821
0.137504
0.351648
0.222582
0.474017
0.120759
0.647525
0.373044
0.571676
0.439868
-0.0020842
0.129168
0.223748
0.0296961
0.187054
0.255026
0.244906
0.2614
0.302818
0.450613
0.203183
0.0264794
0.313812
0.0950378
0.0805161
0.397024
0.0919419
0.00913968
0.276178
0.339473
0.486428
0.0867313
0.611807
0.00470634
0.218361
0.0489072
0.138381
0.163069
0.0562443
0.30441
0.417588
0.341006
0.38521
0.0411034
0.112828
0.0736312
0.504281
0.0880939
0.0177024
0.262021
0.372298
0.0137889
-0.0175174
0.357702
0.146916
0.121817
0.0434681
-0.0327535
0.34855
0.0938931
0.0710709
-0.00610064
0.384493
0.583987
0.364193
-0.000729332
0.145213
0.0423025
0.191161
0.326707
0.0775017
0.0781023
0.0568435
0.615473
0.0642293
0.0648642
0.0652017
0.374927
0.0385601
0.154635
0.263444
0.17451
0.193175
0.0658859
0.163982
-0.0354125
0.0762125
0.42934
0.0341151
0.305001
0.130855
0.442144
0.0276717
0.00895389
0.540331
0.536731
0.333762
0.551283
0.566223
0.140182
0.45839
0.332759
0.464801
0.391736
0.540454
0.191638
0.763978
0.0111375
0.00187241
0.000721138
0.454965
0.0641383
0.0672871
-0.00172588
0.533253
0.0986477
0.192846
0.122898
0.0222201
0.247805
0.0611134
0.237857
0.229167
-0.0153203
0.452493
0.162823
-0.019391
0.246493
0.437015
0.0748072
0.171166
0.16817
0.281231
0.0820917
0.371129
0.327839
0.0288563
0.103822
0.175482
0.0800141
0.105345
-0.0172732
0.00421762
0.349168
0.263525
0.339191
0.401027
0.349461
0.384511
0.184306
0.0161429
0.0194842
0.177276
0.441108
0.163744
0.534648
-0.00789564
0.404951
0.750787
0.134544
0.0555173
-0.00244703
0.104784
0.0139762
0.314198
0.533611
0.10048
0.372101
0.111147
-0.0486251
0.401026
0.0241638
-0.0433685
0.0271793
0.0175114
0.562436
-0.055946
0.46232
0.50909
-0.0174586
0.154498
-0.00790379
0.598258
0.0684686
0.436994
0.433359
0.579572
0.261815
0.138796
0.473208
0.36128
0.282876
0.296841
0.0930498
0.544114
0.3262
0.273697
-6.89363e-05
0.455013
0.0556892
0.0598371
0.0957005
0.247389
0.241476
0.0613411
0.465108
0.281137
0.00335562
-0.0118108
0.500575
-0.00585546
0.104874
-0.0523179
0.0377261
-0.0202881
-0.0131696
0.327419
0.0562931
0.255598
0.537305
0.253638
0.444039
0.255421
0.291826
0.246487
0.367067
0.388384
0.429977
0.420735
0.36638
0.36104
0.38339
0.378222
0.330554
0.372732
0.552952
-0.0589764
-0.0126847
-0.009917
0.214829
0.271337
0.155362
0.239246
0.223515
0.554687
0.627679
0.447194
0.516783
0.114053
0.14518
0.105607
0.447965
0.475973
0.0589043
0.0976684
0.0520584
0.529328
0.0956438
0.022277
0.339276
0.442918
0.418975
0.239121
0.392446
0.592492
0.640764
0.235875
0.592924
0.47432
0.0932182
0.0260788
0.217426
0.686947
0.422173
0.392937
0.158315
0.317001
0.30959
0.317064
0.0851662
0.587955
0.458177
0.230796
0.0644369
0.485468
0.387759
0.00322298
0.527309
0.436283
0.191121
0.381978
0.140627
0.267816
0.420913
0.0427521
0.419262
0.579604
-0.0090538
0.442858
0.0455864
0.482811
0.388062
-0.0470174
0.371492
0.0327679
-0.0172716
0.103201
0.508085
0.586597
0.450431
0.139589
0.458796
0.24403
0.281442
0.436357
0.110583
0.094329
0.0931229
0.0129344
0.0316743
-0.00313029
0.241881
0.0364912
-0.0005574
0.0339258
-0.0228027
0.564866
0.367434
0.162828
-0.00961444
0.440791
0.0263857
0.0678928
0.521743
0.0355007
-0.0290919
0.0405
0.452343
0.304471
0.471724
0.419457
0.381503
0.00385906
0.302897
0.121328
0.462782
0.433588
0.423343
0.308428
0.36412
0.132681
0.271574
0.183786
0.575093
0.0617208
0.13142
0.283688
0.312518
0.155607
0.395732
0.725221
-0.00439488
0.16484
0.454498
-0.0136844
0.0346399
-0.0514233
0.0210392
0.0200933
0.018789
0.0403921
-0.0381588
0.0170403
0.103237
0.108752
0.0970525
0.393018
0.318358
0.234335
0.478762
0.539405
0.270893
0.40184
0.476817
0.0206964
0.0121441
0.417626
0.484255
0.45558
0.49343
0.266879
0.185467
0.53588
0.125917
0.422945
0.471861
0.443674
0.313496
0.692493
0.292812
0.219424
0.566713
0.174747
0.44172
0.660679
0.0527962
0.556079
0.475733
0.456679
0.552925
0.0550765
0.0743376
0.0892306
0.0791029
0.0281361
0.0246279
0.408686
0.490719
0.347529
0.337483
0.366331
-0.0619654
0.42112
0.484098
0.487476
0.51632
0.488661
0.477368
0.00850376
-0.0284284
0.022935
-0.0198832
0.033324
0.175376
0.227808
0.625276
0.507183
0.29392
0.13639
0.150127
0.181899
0.135601
0.11959
0.515442
0.0953024
0.145164
0.466948
0.315105
0.184315
0.316011
0.0367303
0.557701
0.041209
0.0507891
0.11387
0.493696
-0.0398672
0.0495847
-0.0339186
0.511383
0.428591
0.534664
0.342273
0.305428
0.357027
0.343482
0.259
0.54833
0.363227
0.0261166
0.213445
0.0779658
0.0351022
-0.039536
0.0165961
0.0417548
0.000811454
-0.0221395
0.118027
0.0383622
0.18541
0.00298321
0.0471097
-0.0185268
0.20687
0.0615759
0.00999347
0.0414044
-0.015056
0.0116345
-0.0255066
-0.0310792
0.0515138
0.0187613
0.0162413
0.0435763
0.00223255
0.0498338
0.107065
0.00681747
0.0197924
0.0658043
0.0694902
0.133073
0.057431
0.169597
0.170098
0.350333
0.172905
0.34371
0.375723
0.322
0.375985
0.12182
0.515656
0.493058
-0.0215793
0.132078
0.106162
0.0889425
0.0331869
0.121945
-0.0280217
-0.00421745
0.0629532
0.0128991
-0.0139567
-0.0199822
0.102584
0.111509
-0.0234091
0.0619317
0.0378268
-0.0068793
0.238882
0.243577
0.371232
0.446756
0.429852
0.2157
0.190728
0.335999
0.709404
0.120417
0.389062
0.362092
0.376916
0.220618
0.221243
0.295507
0.364523
0.443382
0.387128
0.397736
0.354581
0.615093
0.351165
0.411242
0.284041
0.439721
0.573268
0.562192
0.661421
0.614584
0.634308
0.526256
0.174119
0.0347229
0.599335
0.465293
0.0013414
0.0086139
-0.0414567
0.0348502
0.141654
0.344773
0.207534
0.290837
0.261219
0.707728
0.618711
0.57817
-0.0293953
0.621681
0.753358
0.532185
0.555311
0.361044
0.476262
0.341852
0.548282
0.0960352
0.272143
0.0105236
0.473331
0.0732915
0.330332
0.635427
0.0416003
0.322866
0.330098
0.289226
0.111656
0.586989
0.500197
0.297887
0.439142
0.219769
0.43575
0.571601
0.459673
0.45625
0.62492
0.691376
0.368423
0.0818851
0.452398
-0.012265
-0.0150253
-0.0582203
0.564714
0.453464
0.476449
0.0679446
0.130959
-0.0270985
0.31581
0.467368
0.19865
0.518819
0.0300762
0.44661
0.501354
0.291177
0.419177
0.578818
0.404285
0.148549
0.378862
0.134907
0.198726
0.286658
0.207429
0.576263
0.528692
0.439857
0.285746
0.455863
0.123727
0.399473
0.527341
0.510482
0.262121
0.546595
0.0735795
0.475038
0.363068
0.493284
0.569002
0.605545
0.421084
0.568492
0.343276
0.191966
0.275327
0.708977
0.27443
0.384608
0.53695
0.470921
0.405392
0.461571
0.102464
0.0959343
0.228115
0.467866
0.405308
0.539412
0.167819
0.224536
0.450863
0.311215
0.361641
0.638207
0.343619
0.337144
0.0850036
0.226523
0.376714
0.41037
0.551746
0.464027
-0.00724178
0.0957046
0.106699
0.160304
0.416773
0.614188
0.0335893
0.0309661
0.0230907
0.274583
0.115653
0.0849795
0.397286
0.279354
0.113946
0.625933
0.127394
0.0651054
0.63103
0.126394
0.0189018
0.362301
0.561107
0.17779
0.530303
0.105744
0.145439
0.391886
0.330175
0.13967
0.521174
0.477511
0.39483
0.58392
-0.0334924
0.71736
0.271638
0.307005
0.093223
-0.0435046
0.0576273
0.584931
0.372778
0.105783
0.344548
0.343584
0.486752
0.26868
-0.0546424
0.422389
0.360587
0.255873
0.178879
-0.0469924
0.375931
0.345297
0.114518
0.283083
0.463336
0.155232
0.205795
0.0832914
0.447059
0.228368
0.1933
0.286685
0.143482
0.534781
0.0165549
0.308835
0.505329
0.00128654
0.520825
0.542877
0.333402
0.404037
0.158608
0.118318
0.177518
0.389237
0.453102
0.360471
0.217055
-0.00176252
0.520473
0.130528
0.450821
0.195327
0.272973
0.441836
0.405831
0.623216
0.0280411
0.33678
0.101632
0.186271
0.159375
0.462788
0.0456331
0.455936
0.448611
0.458589
-0.0175511
0.648819
0.401872
0.17081
0.592443
0.625662
0.348447
0.506593
0.45908
0.574904
0.387272
0.579539
0.308236
0.142957
0.639348
0.534239
0.428196
0.606682
0.706583
0.440209
0.202742
-0.00803622
-0.0143702
0.237057
0.2858
0.0808597
0.0562664
0.0953811
0.12512
0.0913621
0.0351449
0.0142932
0.113001
0.070407
0.0911567
0.161803
0.300248
0.0563991
0.315021
0.408413
0.107914
0.534155
0.589581
0.44165
0.552348
0.40986
0.385454
0.446366
0.39637
0.217636
0.134536
0.139746
0.254061
0.299764
0.128061
0.189469
0.464583
0.310918
0.408348
0.421095
0.433481
0.542095
0.449052
0.213583
0.194628
0.519887
0.429776
0.474305
0.505552
0.281914
0.0554755
0.30425
-0.0512299
0.445771
0.0578701
0.226412
0.172329
0.00701222
0.200203
0.080053
0.067575
0.0252849
0.0810206
0.260995
0.226539
0.202504
0.159884
0.263648
0.258151
0.300738
0.55082
0.451404
0.249231
0.407796
0.494525
0.0338379
0.314811
0.436405
0.522629
0.56924
0.536296
0.408852
0.488378
0.247217
0.341861
0.0461608
0.449049
0.392413
0.38499
0.480857
0.391309
0.289791
0.400012
0.120349
0.485729
0.357162
0.26401
0.303809
0.441028
0.225468
0.488171
0.406538
0.191745
0.233555
0.440674
0.439492
0.456023
0.596844
0.573393
0.5877
0.244598
0.143013
0.245148
0.0586753
0.559052
0.442559
0.489466
0.470187
0.457143
0.34062
0.328931
0.466568
0.351362
0.127306
0.37351
0.207505
0.327386
0.187198
0.454583
0.620967
0.522671
0.586857
0.482445
0.584557
0.202075
0.0954902
0.575234
0.44303
0.231366
0.410862
0.103888
0.172183
0.159923
0.12284
0.140056
0.318984
0.271857
0.444511
0.570948
0.271785
0.503027
0.134865
0.538564
0.418951
0.244694
0.158027
0.298778
0.338113
0.380741
0.354747
0.414536
0.460453
0.34884
0.574603
0.540919
0.471312
0.286283
0.382997
0.309744
0.332362
0.351678
0.296169
0.126375
0.229134
0.194056
0.566226
0.39569
0.580522
0.48527
0.429179
0.539337
0.503399
0.406234
0.406984
0.516692
0.502586
0.420311
0.416478
0.0165444
0.060618
0.0114758
0.122882
0.0732932
0.0405312
0.274926
0.0597544
0.103134
0.579543
0.527725
0.462099
0.388935
0.516812
0.409352
0.374469
0.526033
0.401045
0.415647
0.679925
0.506436
0.480601
0.614231
0.563316
0.342245
0.303957
0.186144
0.179571
0.163931
0.291918
0.308704
0.502581
0.223258
0.417037
0.406218
0.444253
0.453705
0.360878
0.468074
0.246417
0.280895
0.256945
0.407494
0.451971
0.568722
0.165021
0.152998
0.19154
0.410452
0.309956
0.317601
0.304213
0.424969
0.362185
0.5024
0.608949
0.565205
0.686027
0.433915
0.450049
0.406007
0.436159
0.440668
0.390223
0.517151
0.439102
0.354517
0.469029
0.628823
0.300729
0.333527
0.45648
0.409152
0.123433
0.318815
0.381188
0.358132
0.157959
0.470745
0.430164
0.162261
0.0358557
0.234984
0.263561
0.340117
0.554797
0.517968
0.399342
0.464634
0.516133
0.368309
0.457662
0.641268
0.535713
0.558917
0.586188
0.652277
0.525313
0.588784
-0.0533098
0.0892609
0.413822
0.538691
0.458201
0.714314
0.51654
0.526249
0.532851
0.653392
0.51398
0.223464
0.229594
0.478684
0.425352
0.385283
0.597138
0.026338
0.337308
0.043439
0.156188
0.397301
0.365438
-0.00910328
0.562072
0.473555
0.427231
0.304665
0.333013
0.377824
0.46998
0.421229
0.448886
0.432607
0.557301
0.390091
0.0641713
0.0785071
0.378199
0.0779251
0.225484
0.46447
0.274662
0.173235
0.183034
0.299641
0.213575
0.0912696
0.220408
0.556901
0.645468
0.234918
0.557587
0.267962
0.563986
0.527123
0.369813
0.114634
0.16745
0.296469
0.385801
0.230544
0.504043
0.40115
0.427405
0.332519
0.382478
0.549438
0.314055
0.380643
0.53789
0.219537
0.202768
0.269796
0.251216
0.289968
0.139686
0.265889
0.301608
0.705945
0.13577
0.334014
0.274541
0.558769
0.631506
0.724803
0.416775
0.591315
0.572834
0.666125
0.265247
0.637722
0.620289
0.299318
0.674805
0.707198
0.464629
0.596474
0.65066
0.165419
0.296171
0.511312
0.129597
0.180916
0.0796131
0.0832596
0.287548
0.225615
0.100347
0.16527
0.117197
0.440139
0.195311
0.0456975
0.166324
0.290977
0.187176
0.582604
0.606897
0.544384
0.504945
0.21845
0.628656
0.0357324
0.0731187
0.0325769
-0.0484431
0.282336
0.483973
-0.0188622
0.49151
0.388562
0.419908
0.193241
0.494252
0.427438
0.32799
0.596314
-0.0298938
0.439555
0.465141
0.505735
0.232004
0.337941
0.0145067
-0.00953166
0.0419446
0.211731
0.485318
0.408792
0.571769
0.594582
0.285832
0.456163
0.443294
0.36678
0.633656
0.587991
0.587279
0.553234
0.117987
0.21733
0.24071
0.21408
0.275401
0.230494
0.340047
0.498051
0.351568
0.26042
0.0993933
0.0150305
0.329577
0.361147
0.324352
-0.0248487
0.0577577
0.115372
0.164051
0.0808001
0.0611004
0.0978494
0.548582
0.450772
0.236489
0.36042
0.414568
0.183886
0.100353
0.0619591
0.161526
0.427427
0.612937
0.498165
0.464478
0.70304
0.558364
0.443774
0.461479
0.387618
0.429651
0.443502
0.00600652
0.374009
0.302768
0.164578
0.124668
0.499058
0.110378
0.306301
0.0950131
0.0603958
0.0047087
0.14642
0.0922115
0.103661
0.144036
-0.0216066
0.405922
0.460429
0.335055
0.643883
0.412817
0.538248
0.455042
0.415549
0.411158
0.514077
0.551504
0.525657
0.505649
0.597051
0.530228
0.5649
0.380184
0.0340841
0.00911517
0.058696
0.033539
0.292382
0.351444
0.255853
0.406078
0.31348
0.203733
0.0770609
0.439937
0.283915
0.323079
0.396799
0.0325774
0.460915
0.309645
0.270429
0.219459
0.229901
0.427369
0.276929
0.236611
0.40291
0.500793
0.348573
0.242676
0.401086
0.439453
0.431964
0.329941
0.124348
0.381059
0.358917
0.0465605
0.180425
0.457427
0.0502228
0.494662
0.230974
-0.0274759
0.442815
0.415059
0.450389
0.436626
0.506671
0.346879
0.396082
0.576877
0.00273299
0.177514
0.544915
0.357053
0.503886
0.672711
0.508228
0.462368
0.496667
0.420059
0.496784
0.500966
0.557823
0.421101
0.461939
0.606142
0.281107
0.378449
0.415125
0.0856023
0.521626
0.687041
0.222464
0.247391
0.589375
0.68578
0.411754
0.472724
0.514027
0.505704
0.437873
0.270546
0.452692
0.394759
0.425551
0.168423
0.12547
0.404738
0.412781
0.358794
0.144282
0.232912
0.0563207
0.0165925
0.507514
0.0669726
0.497416
0.687479
0.689945
0.621205
0.62574
0.629846
0.241651
0.425583
0.493489
0.550564
0.0471061
0.13977
-0.0213601
0.119407
-0.035395
0.513881
0.050251
0.35962
0.568949
0.368558
0.268678
0.523837
0.499427
0.311601
0.158497
0.275902
0.481535
0.0183578
0.393288
0.133697
0.0176949
0.0788086
0.211516
0.622827
0.369812
0.429637
0.351945
0.515056
0.0969173
0.33369
0.283559
0.421052
0.466809
0.303743
0.168622
0.35673
0.510751
0.476887
0.755989
0.638221
0.164815
0.262084
0.502194
0.295444
0.672461
0.510777
0.37997
0.508578
0.462366
0.383705
0.325173
0.515495
0.244893
0.107782
-0.0892193
0.0413937
0.122712
0.00912106
0.188734
0.0872781
0.127345
0.304779
0.0101722
0.147421
0.158484
0.0635298
-0.0542096
0.5997
0.71149
0.509248
0.34631
0.377335
0.402399
0.34064
0.485512
0.420549
0.380064
0.287174
0.172401
0.197497
0.278839
0.229685
0.138925
0.215579
0.30423
0.0961017
0.646728
0.476701
0.37388
0.609829
0.538491
0.563467
0.530915
0.463733
0.136156
0.0319287
0.307508
0.477945
0.485125
0.151955
0.0804698
0.204369
0.00550326
0.140781
0.0681012
0.248894
0.625301
0.679835
0.524568
0.320287
0.510219
0.470624
0.516423
0.532936
0.165517
0.321367
0.766465
0.176534
0.387687
0.125799
0.00762478
0.38225
0.196818
0.47028
-0.0324598
0.488548
0.29424
0.377419
0.317773
0.488508
0.345032
0.484712
0.653829
0.33438
0.123868
0.36065
0.369495
0.322919
0.622396
0.105709
0.532686
0.405698
0.413245
0.135325
0.212731
0.557059
0.168743
0.303774
0.526565
0.327723
0.300274
0.434697
0.39355
0.321901
0.452857
0.333567
0.493217
0.499359
0.288632
0.277112
0.0369537
-0.0111446
0.243919
0.264471
0.0186362
0.45689
0.387391
0.507969
0.238209
0.0810955
0.0292501
-0.000579272
0.00708979
0.494564
0.417902
0.303608
0.353842
0.112812
0.0168138
0.535048
0.514231
0.509744
0.578054
0.430176
0.514905
0.155938
0.306467
0.258268
0.309523
0.466003
0.441454
0.458664
0.469349
0.287801
0.253623
0.186658
0.152699
0.715728
0.305428
0.547221
0.633228
0.616504
0.233215
0.50568
0.35227
0.227978
0.392577
0.589636
0.171201
0.223975
0.505185
0.405421
0.141142
0.483851
0.390926
0.317819
0.228911
0.450883
0.718899
0.634311
0.427406
0.505629
0.169077
0.122492
0.359521
0.264682
0.514424
0.147476
0.170686
0.183781
0.172199
0.0327119
0.101564
-0.0306458
0.111615
0.0294108
-0.0979614
0.0124167
0.496664
0.0117791
-0.00265068
0.442907
0.392831
0.470916
0.532324
0.743105
0.633842
0.519275
0.475225
0.475319
0.491435
0.51529
0.121259
0.584716
0.10414
0.669312
0.440803
0.0493418
0.494099
0.106473
0.223541
0.517599
0.564436
0.5171
0.458821
0.478452
0.411317
0.423147
0.388837
0.247168
0.21724
0.33476
0.290817
0.288237
0.199141
0.263949
0.2915
0.105715
0.0862431
0.225591
0.152017
0.427624
0.317937
0.274057
0.253517
0.384061
0.374179
0.606058
0.511871
0.424916
0.029198
0.0280704
0.390944
0.33933
0.0270292
0.174144
0.0128742
0.0541427
0.243935
0.230485
0.169533
0.158692
0.763469
0.25918
0.189392
0.126377
0.109967
0.162711
0.0797582
0.0459583
0.16911
0.186501
0.20301
0.203751
0.19351
0.435403
0.498237
0.458164
0.604278
0.522187
0.702968
0.6849
0.663694
0.569986
0.644975
0.68947
0.328684
0.21045
0.363219
0.374978
0.277717
0.274944
0.497619
0.392259
0.533086
0.48113
0.612156
0.576405
0.464553
0.551204
0.50696
0.600645
0.515314
0.154267
0.23221
0.232929
0.23355
0.185814
0.258133
0.27475
0.268027
0.196502
0.17595
0.240812
0.0693745
0.214871
0.0863753
0.143805
0.184654
0.181276
0.187761
0.155602
0.332233
0.349927
0.331249
0.777868
0.664417
0.676885
0.521793
0.669197
0.707971
0.638566
0.253441
0.167201
0.179155
0.531835
0.252637
0.507147
0.169396
0.266309
0.627431
0.520581
0.0815491
0.688498
0.103557
0.0802614
0.0734129
0.180364
0.045955
0.335661
0.379486
0.473476
0.374788
0.385345
0.243918
0.41868
0.28266
0.525535
0.427356
0.559349
0.387481
0.407415
0.424158
0.422556
0.766937
0.607407
0.649018
0.707323
0.487622
0.485257
0.442504
0.599761
0.656996
0.424172
0.483506
0.434655
0.469274
0.214274
0.0892885
0.26437
0.237889
0.411741
0.479725
0.453922
0.439721
0.665353
0.459599
0.408756
0.308752
0.285795
0.488227
0.143108
0.217804
0.132633
0.228781
0.267945
0.593884
0.424164
0.564546
0.316855
0.495704
0.484921
0.328679
0.307794
0.269818
0.760713
0.537485
0.606354
0.558769
0.172878
0.603752
0.216297
0.0298662
0.0953826
0.611723
0.305496
0.156082
0.356261
0.355198
-0.00148619
-0.0387238
0.499824
0.292533
0.264
0.145433
0.294977
0.211818
0.339788
0.34187
0.18903
0.2803
0.608296
0.474085
0.439568
0.486868
0.444651
0.360182
0.514079
0.319321
0.471661
0.585483
0.534149
0.518289
0.362994
0.302758
0.132265
0.166455
0.191129
0.267328
0.520601
0.414976
0.246992
0.439811
0.604654
0.451506
0.277779
0.392073
0.655222
0.511324
0.188129
0.132703
0.174094
0.367451
0.515613
0.508855
0.621331
0.469922
0.622983
0.620033
0.710085
0.510076
0.566246
0.430682
0.533447
0.443457
0.424981
0.398107
0.41643
0.434098
0.621765
0.175654
0.540698
0.413838
0.440837
0.510561
0.12991
0.380347
0.526866
0.491194
0.130693
0.0885633
0.437622
0.502324
0.346905
0.00713476
0.426787
0.234809
0.377254
0.297534
0.587525
0.438282
0.410255
0.171187
0.572857
0.281448
0.609814
0.269954
0.0856843
0.07883
0.115875
0.0359868
-0.00256905
0.55299
0.252863
0.587969
0.424352
0.268584
0.375299
0.450462
0.118077
0.16557
0.0874124
-0.0168689
0.0176478
0.02609
0.546984
0.277721
0.129801
0.0639287
0.326553
0.435146
0.377622
0.309111
0.19344
0.196979
0.325101
0.225526
0.0776117
0.117936
0.196041
0.188218
0.127559
0.192697
0.467958
0.0975247
0.0875164
0.205085
0.406178
0.464911
0.373045
0.419314
0.245745
0.240202
0.173844
0.174552
0.360981
0.0864906
0.313483
0.3994
0.354038
0.400529
0.439733
0.257681
0.308163
0.18822
0.539701
0.153587
0.337778
0.486198
0.0905646
0.453025
0.627135
0.526304
0.372685
0.380534
0.606837
0.478119
0.50019
0.598026
0.599528
0.610565
0.481013
0.281405
0.356244
0.403418
0.353635
0.419477
0.410859
0.419334
0.0619091
0.0118361
0.171353
0.255212
0.174016
0.0847256
0.0207629
0.175393
0.035954
-0.0121912
0.0955967
0.345184
0.0956765
0.628426
0.0803087
0.240411
0.554667
0.508114
0.578005
0.650163
0.507257
0.276577
0.162162
0.0529341
0.0175546
0.254189
-0.0224435
0.259389
0.180142
0.314417
0.106254
0.023986
0.376654
0.291004
0.0999206
-0.0148076
0.548253
0.0236959
0.119984
0.0539077
-0.00103714
0.0852759
0.141544
0.158705
0.0471881
0.502119
0.0228176
0.155572
0.605434
0.540683
0.00256665
0.0196605
0.0250711
0.55202
0.0449741
0.318567
0.0477313
0.3119
0.17691
0.614472
0.442995
0.000814022
0.471861
-0.0180692
0.0704619
0.239593
0.108616
0.272585
0.0576971
0.0514015
0.102297
0.147484
0.015406
-0.0529648
0.19604
0.181423
0.546284
0.531658
0.486596
0.191603
0.192149
0.233792
0.205131
0.12669
0.20086
0.113978
0.0254422
0.164007
0.0219647
0.346141
0.699384
0.388535
0.463879
0.486624
0.384496
0.406515
0.40987
0.125724
0.270381
-0.0441741
0.355336
0.653629
0.480701
0.146459
0.444726
0.267418
0.184246
0.455438
0.135571
0.35958
0.321425
0.234619
0.609687
0.510594
0.481572
0.329008
0.413259
0.638147
0.31207
0.271153
0.231309
0.305891
0.561567
0.586095
0.263645
0.245281
0.405079
0.541873
0.222177
0.390412
0.0913213
0.305183
0.406263
0.31768
0.509138
0.409862
0.355769
0.343007
0.377721
0.402678
0.492517
0.228274
0.346056
0.305646
0.391402
0.563582
0.642086
0.562161
0.443321
0.59308
0.643675
0.782484
0.604178
0.47102
0.37261
0.390072
0.64864
0.0324739
0.152731
0.23779
0.229099
0.322017
0.312492
0.551853
0.423175
0.423223
0.504258
0.380189
0.277339
0.41091
0.331747
0.298933
0.400874
0.320839
0.384068
0.391339
0.436781
0.37381
0.490504
0.321003
0.238285
0.317707
0.376211
0.444959
0.488347
0.369963
0.470938
0.382978
0.456091
0.128927
0.38403
0.562726
0.209145
0.588644
0.689073
0.592077
0.351188
0.474209
0.403752
0.33527
0.358427
0.365251
0.297202
0.230312
0.554906
0.305715
0.256195
0.361663
0.290693
0.133435
0.381538
0.176303
0.219655
0.141463
0.173134
0.110684
0.229751
0.156872
0.282145
0.201175
0.383556
0.392401
0.418732
0.304268
0.426326
0.417906
0.411101
0.415835
0.536348
0.106561
0.234573
0.160629
0.597561
0.33363
0.155854
0.192913
0.140943
0.620117
0.481963
0.508959
0.551728
0.353322
0.415961
0.41527
0.511773
0.433726
0.36165
0.24284
0.284314
0.0412911
0.651982
0.59439
0.512587
0.52296
-0.0285892
0.184216
0.223314
0.238129
0.570189
0.468092
0.327629
0.439204
0.176805
0.469784
0.463582
0.470461
0.37675
0.531114
0.473015
0.56292
0.462632
0.615637
0.423576
0.504094
0.403576
0.543482
0.516988
0.300764
0.335011
0.475347
0.480391
0.379598
0.501804
0.250621
0.351296
0.260868
0.589369
0.593579
0.489189
0.620026
0.392937
0.396312
0.354118
0.271858
0.406623
0.393003
0.343605
0.62331
0.472681
0.653891
0.283573
0.404062
0.42125
0.236887
0.475322
0.545143
0.376676
0.410684
0.382646
0.67346
0.556479
0.657559
0.589876
0.711144
0.53098
0.491421
0.524526
0.563752
0.468607
0.631279
0.621122
0.588671
0.595743
0.685622
0.500645
0.409585
0.240214
0.171046
0.317654
0.334993
0.444067
0.645842
0.490382
0.311233
0.0685974
0.0652698
0.663115
0.0560307
0.413582
0.409101
0.60704
0.635267
0.567945
0.594941
0.563612
0.606612
0.244029
0.199332
0.227781
0.246239
0.207232
0.284419
0.233133
0.167694
0.181402
0.177239
0.309745
0.175061
0.269894
0.439514
0.134365
0.443858
0.430203
0.382459
0.212774
0.278952
0.071705
0.0577633
0.322975
0.450396
0.38469
0.432003
0.383767
0.200856
0.358754
0.122922
0.380082
0.235655
0.237181
0.141732
0.00378121
0.464061
0.388288
0.518482
0.458145
0.28839
0.263946
0.383294
0.200192
0.275899
0.324935
0.399914
0.405994
0.447723
0.449909
0.37321
0.162863
0.17812
0.100491
0.364411
0.0870268
0.555318
0.539297
0.0940755
0.352784
0.314252
0.249945
0.18917
0.213591
0.210085
0.135371
0.142577
0.326294
0.380687
0.143305
0.304379
0.147914
0.245571
0.253861
0.29763
0.449041
0.520881
0.322996
0.38281
0.171941
0.343157
0.426404
0.419723
0.41446
0.063983
0.336646
0.342719
0.453461
0.597184
0.396584
0.521527
0.454857
0.363493
0.451949
0.365934
0.450469
0.510235
0.519245
0.557721
0.363746
0.387261
0.749227
0.583801
0.402909
0.337534
0.437185
0.234209
0.445302
0.524731
0.46791
0.0728959
0.190018
0.376724
0.103321
0.391715
0.240977
0.10459
0.39862
0.038991
0.112883
0.151734
0.0723055
0.00723334
0.34315
0.278996
0.333801
0.336709
0.37526
0.3685
0.333484
0.225277
0.292121
0.175367
0.338613
0.215473
0.323934
0.248527
0.0157745
0.497025
0.560702
0.694631
0.0666489
0.242385
0.792672
0.669769
0.79247
0.238348
0.10137
0.267377
0.478392
0.236892
0.212481
0.173077
0.288008
0.0117749
0.717031
0.32203
0.268686
0.619183
0.667095
0.145963
0.237588
0.194122
0.0138601
0.0161733
-0.0226646
-0.0161032
0.134082
0.24103
0.529776
0.236881
0.0400433
-0.0423532
0.0445764
0.0146555
-0.00125696
0.0424527
0.0766514
0.0174294
0.641442
0.666795
0.749699
0.578092
0.480091
0.494164
0.602665
0.63377
0.494969
0.461891
0.390716
0.466087
0.408188
0.422379
0.411376
0.44871
0.405933
0.286353
0.341748
0.439683
0.465438
0.116433
0.18788
0.232246
0.530308
0.512998
0.521677
0.419194
0.403097
0.473411
0.535794
0.515287
0.168065
0.153689
-0.0277199
0.360351
0.33693
0.120814
0.128426
0.556967
0.231697
0.297412
0.40456
0.000735573
0.208677
0.374945
0.338106
0.141614
0.0577964
0.103754
0.00331742
0.295919
0.558304
0.564544
0.548759
0.495566
0.411751
0.52239
0.415529
0.471232
0.313991
0.48043
0.119768
0.40193
0.272397
0.3442
0.515785
0.466382
0.157946
0.0323042
0.0677872
0.094278
0.230702
0.257492
0.455363
0.318024
0.286799
0.381798
0.380905
0.468023
0.443296
0.538412
0.606865
0.486888
0.56055
0.55724
0.395447
0.318703
0.438605
0.391837
0.566256
0.667152
0.695457
0.46431
0.575282
0.737933
0.72555
0.647737
0.727819
0.570255
0.464425
0.137902
0.115566
0.240751
0.306839
0.27555
0.355688
0.582508
0.260929
0.372573
0.196086
0.254204
0.183871
0.346704
0.485849
0.302551
0.390991
0.474053
0.518036
0.658951
0.575201
0.527828
0.504502
0.515947
0.482052
0.502202
0.477989
0.42264
0.225358
0.275684
0.438087
0.296183
0.190915
0.0540603
0.354895
0.235903
0.302986
0.160359
0.328139
0.411683
0.332278
0.279673
0.277482
0.268324
0.206714
0.150913
0.36226
0.465398
0.328868
0.341208
0.411279
0.238526
0.262932
0.444523
0.414666
0.472983
0.365696
0.483897
0.137768
0.172417
0.548996
0.538234
0.547841
0.549888
0.16062
-0.0540436
0.125251
0.0659436
0.0813775
0.0876876
0.205271
0.507683
0.478023
0.165406
0.402475
0.320055
0.293918
0.270066
0.343827
0.404093
0.423434
0.449369
0.210867
0.370496
0.265108
0.00749326
0.059024
0.0255129
0.236386
0.472669
0.365321
0.475552
0.320137
0.574579
0.619472
0.0530063
0.140295
0.174739
0.147977
0.240273
0.14201
0.0369041
0.258551
0.0340572
-0.0373868
-0.0314976
0.0881565
-0.017659
0.100091
0.0880163
0.00051189
0.0333354
0.0973323
0.0547567
-0.0314147
0.14047
0.23965
0.0758199
0.508291
0.512469
0.299094
0.499478
0.492652
0.293052
0.398995
0.499732
0.498198
0.341413
0.406617
0.178957
0.142864
0.196432
0.259513
0.355813
0.517021
0.456949
0.373856
0.684118
0.203981
0.447594
0.150435
0.50518
0.504632
0.439525
0.601229
0.609296
0.601401
0.623089
0.562443
0.549953
0.488345
0.452218
0.558174
0.567587
0.584848
0.61996
0.505629
0.322716
0.338209
0.307988
0.407903
0.360969
0.452677
0.338255
0.327507
0.407903
0.431968
0.35575
0.246494
0.288425
0.306245
0.379591
0.462819
0.448124
0.397726
0.0717555
0.11669
0.0943198
0.195074
0.0514399
-0.00141451
0.0978892
0.0448637
0.0887632
0.386899
0.335665
0.167804
0.683987
0.452088
0.724349
0.581201
0.506037
0.352903
0.340821
0.385232
0.301688
0.435668
-0.0741425
0.42482
0.486633
0.435795
0.451641
0.0747013
0.0763944
0.675834
0.621087
0.132122
-0.0137914
0.584401
0.423585
0.663637
0.142994
0.0869901
0.316862
0.185741
0.417361
0.449044
0.449761
0.330553
0.45504
0.521057
0.460482
0.174017
-0.0640539
0.167401
0.183201
0.19389
0.257723
0.346409
0.290533
0.388255
0.25581
0.33487
0.3209
0.323412
0.145302
0.195928
0.125086
0.494664
0.393959
0.427989
0.677951
0.622351
0.185967
0.0550526
0.387462
0.302188
0.312299
0.270466
0.304095
0.250091
0.402803
0.506833
0.380438
0.329002
0.421337
0.310979
0.245152
0.465575
0.37771
0.5761
0.502074
0.74927
0.422399
0.286088
0.210921
0.27399
0.6317
0.437379
0.585832
0.384951
0.562162
0.808714
0.790045
0.625556
0.609675
0.424419
0.583371
0.509315
0.229731
0.325776
0.35845
0.260909
0.271992
0.129037
0.16584
0.481754
0.437832
0.251537
0.0483185
0.451616
0.0679248
-0.0160794
0.42235
0.23899
0.389371
0.0493563
0.231209
0.0367294
0.448113
-0.0443234
0.290101
0.306729
0.24072
0.360669
0.569436
0.171842
0.475738
0.400135
0.335813
0.119817
0.232922
0.466436
0.355481
0.48947
0.536136
0.462069
0.389285
0.313104
0.278974
0.119512
0.406607
0.423674
0.449982
0.421216
0.471528
0.486061
0.52999
0.475246
0.37951
0.445319
0.482311
0.56609
0.215069
0.260921
0.154725
0.141935
0.137395
0.3234
0.414111
0.633886
0.139997
0.260233
0.344273
0.459076
0.10904
0.191559
0.0759057
0.217845
0.30543
0.277124
0.295613
0.318505
0.143784
-0.0345028
0.0632952
-0.0662105
0.262747
0.111829
0.080882
0.176313
0.0807581
0.0468661
0.106402
0.335301
0.253769
0.0146322
0.0619633
0.0506006
-0.0599876
0.17043
0.0126498
0.194108
0.123068
0.145034
0.0527223
0.153433
0.148993
0.0416743
0.43905
0.486629
0.399121
0.404162
0.350659
0.260095
0.274296
0.281399
0.210603
0.195003
0.197464
0.151806
0.278033
0.269068
0.210622
0.266488
0.443179
0.468349
0.388711
0.425287
0.425248
0.41906
0.42391
0.120579
0.342266
0.406941
0.508887
0.447786
0.364699
0.39715
0.428705
0.180976
0.116841
0.142869
0.461173
0.530016
0.568907
0.474672
0.461305
0.275288
0.262589
0.332695
0.402631
0.406903
0.317218
0.279517
0.370559
0.337928
0.287806
0.138921
0.315994
0.245703
0.138563
0.125641
0.212848
0.17726
0.083743
0.000137706
0.131255
0.548824
0.588903
0.521298
0.362843
0.436665
0.405974
0.681937
0.509025
0.626492
0.47581
0.25705
0.493202
0.321375
0.504388
0.540797
0.30664
0.114505
0.00434843
0.258119
0.29275
0.0475873
0.0579159
0.0492462
0.149964
0.194185
0.118176
0.0567415
0.119405
0.653649
0.583715
0.532183
0.516809
0.00546156
0.144287
0.237469
0.132426
0.466925