/*--------------------------------*- C++ -*----------------------------------*\
| =========                 |                                                 |
| \\      /  F ield         | OpenFOAM: The Open Source CFD Toolbox           |
|  \\    /   O peration     | Version:  2506                                  |
|   \\  /    A nd           | Website:  www.openfoam.com                      |
|    \\/     M anipulation  |                                                 |
\*---------------------------------------------------------------------------*/
FoamFile
{
    version     2.0;
    format      ascii;
    arch        "LSB;label=32;scalar=64";
    class       volVectorField;
    location    "0.0440925";
    object      U;
}
// * * * * * * * * * * * * * * * * * * * * * * * * * * * * * * * * * * * * * //

dimensions      [0 1 -1 0 0 0 0];

internalField   nonuniform List<vector> 
3975
(
(11.9695 0.460487 0.193003)
(10.5976 -0.204438 -0.00979237)
(10.6251 -0.0200933 0.00942487)
(10.7241 -0.457579 0.15891)
(10.7233 -0.430048 0.121296)
(11.627 0.833968 -0.641329)
(10.601 -0.865954 0.277144)
(10.6303 -0.851022 0.414747)
(10.9926 -0.381883 0.155713)
(10.9687 -0.150297 0.0412669)
(11.1502 -0.127129 0.0762948)
(10.3159 -0.041433 0.00405522)
(10.9031 -0.275486 0.0528646)
(10.5181 -0.00922343 0.0184336)
(10.898 -0.188051 0.0389317)
(10.9558 0.108212 0.00661973)
(10.5474 -0.0477618 0.019791)
(11.1659 -0.181274 -0.147317)
(10.69 0.0163064 -0.0373404)
(10.6926 0.0513827 0.0259624)
(10.5111 -0.00217622 0.013624)
(11.0834 -0.155529 -0.0793072)
(10.6928 0.00446456 -0.0590189)
(11.553 0.268439 0.69428)
(11.6311 0.270825 0.538865)
(10.7126 -0.634318 0.0500455)
(13.2727 1.79164 -0.503945)
(11.2222 0.0592527 0.278067)
(11.2204 -0.491409 -0.506562)
(10.54 -0.0590985 0.0417743)
(10.4572 0.873533 -0.290013)
(10.5469 0.130795 0.00120945)
(10.3276 1.49741 -0.799555)
(10.7272 0.66504 -0.281109)
(10.7323 0.596365 -0.192187)
(11.1691 -1.30558 0.507753)
(11.3761 0.541216 -0.187515)
(11.0196 0.537004 -0.0981001)
(10.9536 0.637863 -0.297561)
(10.9045 0.68573 -0.32153)
(11.1696 0.616018 -0.302429)
(11.2335 0.660439 -0.406681)
(11.1161 0.690724 -0.460142)
(10.859 0.3668 -0.0368758)
(11.8005 0.388929 0.224653)
(10.8452 0.272508 -0.0289316)
(10.9934 0.110685 -0.00888438)
(10.9205 0.125133 -0.0229126)
(11.8803 1.63592 -1.28308)
(10.7253 -0.231902 -0.0395183)
(10.5758 -0.19261 0.0552792)
(11.1026 0.477972 0.0119575)
(10.3172 1.33983 -0.957241)
(12.6188 1.24624 -0.29538)
(12.722 0.89194 -0.00080481)
(12.6628 1.3921 -0.290637)
(12.61 1.29313 -0.214919)
(12.5348 1.25933 -0.242348)
(12.3541 1.28764 -0.322992)
(12.2521 0.620883 0.0459856)
(11.9223 0.753836 -0.152482)
(11.965 1.9933 -1.11531)
(12.6062 0.674536 0.0403356)
(11.8423 1.07496 -0.15929)
(10.6575 0.335235 -0.188893)
(12.7963 0.961499 -0.619537)
(10.3049 1.52918 -1.03718)
(10.6092 0.318297 -0.115439)
(12.8368 1.14337 -0.929496)
(6.22227 1.20504 0.353224)
(6.08093 1.18721 0.206184)
(5.11033 1.03518 -0.16692)
(9.89927 1.40758 0.763435)
(10.4473 0.0368343 -0.0229763)
(11.8583 0.509708 -0.0320032)
(12.072 0.525755 0.264923)
(11.8033 0.443785 0.0647772)
(11.9025 0.484364 0.180939)
(12.0926 0.585572 0.0971604)
(11.9447 0.521314 0.0198776)
(11.0732 -0.151519 0.0893714)
(10.5041 -0.185613 0.0181805)
(10.6396 -0.0506721 -0.0140394)
(10.5574 -0.023841 0.0211072)
(10.7271 0.309726 -0.0431063)
(12.4734 0.0930653 0.209086)
(11.7964 -0.514139 -0.223091)
(11.2295 0.962616 0.0662766)
(10.468 -0.125763 0.0478849)
(10.3395 -0.103418 0.0196134)
(10.8946 -0.344909 -0.0814131)
(10.6991 -0.0744205 -0.0315871)
(10.5437 0.00538552 -0.0427803)
(10.67 0.0236866 -0.0701872)
(5.49102 2.78217 -0.938775)
(11.5763 0.385114 0.0280602)
(11.5631 0.362555 0.0763072)
(11.1256 -1.93903 2.31285)
(10.7745 1.24005 -0.852936)
(12.2202 1.6525 -0.297961)
(10.9345 0.215469 0.00634285)
(12.6389 2.4763 -2.53069)
(10.5735 1.44365 -1.13849)
(10.4314 2.17517 -1.25364)
(10.985 -0.194846 0.173776)
(10.7966 0.0332872 0.010733)
(11.8603 0.460884 -0.166163)
(11.4839 0.820455 -0.775194)
(11.535 0.921001 -0.824133)
(11.7202 0.865017 -0.75711)
(10.6482 -0.0095838 -0.0455082)
(10.5083 -0.0530776 -0.00931165)
(10.5956 -0.031864 -0.00819005)
(10.5547 -0.0294328 -0.0077155)
(11.2297 0.0322243 0.303298)
(10.2933 -0.0577647 0.00431666)
(10.2691 -0.0681816 0.00454539)
(10.234 -0.0817435 -0.00249759)
(12.8127 1.25112 -2.08525)
(10.4894 2.39913 -1.50515)
(10.4171 0.737953 -0.240422)
(12.9877 1.08953 -1.73606)
(10.6573 -0.107071 0.0122721)
(12.7674 0.906789 -1.35748)
(12.5029 0.787706 -1.36695)
(12.8534 1.1787 -1.93014)
(10.413 -0.0209285 -0.0199413)
(10.2951 -0.0334292 0.00954163)
(10.3711 -0.0247838 0.0334561)
(10.3955 -0.00371037 0.0491163)
(10.3143 -0.013888 0.0237736)
(10.3195 -0.0231531 0.010409)
(11.5139 0.581652 -0.321513)
(10.7964 0.707959 -0.337471)
(11.0441 0.701639 -0.604974)
(11.1707 0.750179 -0.54687)
(10.5265 0.00187722 -0.0254095)
(10.6765 0.0146648 -0.0834886)
(10.6518 0.0940671 -0.0420807)
(10.9676 -0.726594 0.209548)
(10.9557 0.830479 -0.518835)
(11.0784 -0.377627 0.152263)
(10.9239 -0.308151 0.394459)
(10.7804 -0.109253 0.0605525)
(12.6837 2.0008 -1.286)
(10.5766 -0.289605 0.0149335)
(10.571 -0.50345 0.00243899)
(10.3504 -0.0310653 0.0257772)
(10.8137 0.805001 -0.692025)
(10.7369 -0.0321855 -0.0286642)
(10.959 1.21938 -1.20376)
(10.3804 -0.0230717 -0.0142832)
(10.4606 0.0755913 0.00123549)
(11.8962 0.827202 -0.718894)
(11.199 0.729444 1.78181)
(10.1409 1.94986 -1.42189)
(11.3493 0.0122498 0.212926)
(10.7233 0.0211746 0.0558632)
(10.9014 0.436449 0.0593958)
(11.0519 -0.120777 -0.0853523)
(11.211 -0.0694786 -0.025022)
(10.6925 0.197435 -0.00274326)
(12.0456 -0.590162 0.362722)
(10.6087 -0.285751 -0.00828373)
(11.0946 0.240384 0.00549651)
(12.2323 -0.431797 0.302475)
(11.8607 -0.0295019 0.986329)
(6.4313 1.82547 -0.0860054)
(10.6482 0.0107644 0.0558016)
(11.0564 -0.218603 -0.0694626)
(10.9244 0.898886 0.0283523)
(10.8423 0.463604 -0.0323671)
(11.6724 0.307798 0.113984)
(11.6808 -0.568588 -0.538792)
(7.01319 1.23656 0.143197)
(11.1307 0.276858 -0.00247627)
(11.5812 -0.225883 0.588366)
(10.6789 0.510215 -0.0358745)
(11.434 1.68367 -2.35096)
(10.5799 0.043695 -0.0365133)
(11.1524 -0.0985166 0.448806)
(10.5825 -0.152905 -0.0110149)
(12.6619 1.23809 -1.80718)
(12.7619 1.39154 -1.56024)
(10.5929 0.220478 0.0249503)
(11.2737 0.325351 0.0571577)
(12.1367 0.363965 0.741934)
(12.1209 0.333751 0.530861)
(11.2718 -0.548577 1.00709)
(12.1059 -0.166551 0.993128)
(11.8537 0.23729 0.250992)
(11.2284 0.136307 0.149832)
(10.5216 0.0305874 0.00737916)
(10.8566 0.283319 -0.0396121)
(11.7215 1.23917 -0.16049)
(10.8978 0.492077 -0.0798755)
(11.0661 0.153741 0.014085)
(11.0302 0.158023 0.0120014)
(11.1077 0.0321158 0.128756)
(10.7029 -0.168663 0.0631598)
(10.481 -0.120409 0.023067)
(10.9477 0.21015 -0.00357541)
(10.5816 -0.0915476 0.0700117)
(10.6861 0.338519 0.0610081)
(10.6489 0.162855 0.00163903)
(10.7528 0.109924 0.0142856)
(11.7636 0.400133 -0.0665366)
(4.97045 1.12086 -0.760467)
(10.969 -0.363046 0.521306)
(3.99893 0.691462 -0.0181358)
(11.2064 -0.450213 -0.200288)
(11.7032 -1.40732 0.764889)
(11.1495 1.33664 -0.0097865)
(11.0311 -1.17373 0.602142)
(10.4348 -0.0563837 -0.0130061)
(10.9719 0.648538 -0.110287)
(11.5554 0.555098 -0.111423)
(10.6439 0.0898676 0.0247709)
(10.6214 -0.156775 0.0147036)
(11.3895 1.63586 -0.719707)
(10.7083 0.0283527 -0.100456)
(11.5933 -1.0476 0.556653)
(11.086 -0.0820072 0.123352)
(11.8259 1.37644 -0.45051)
(11.8582 0.503683 0.146646)
(12.0155 0.462667 0.47393)
(4.28984 0.516384 0.00320065)
(10.722 -0.298312 0.0909793)
(12.4422 1.51702 -2.17368)
(10.802 0.203933 -0.0266463)
(10.4628 0.0278342 0.0277008)
(11.0283 -0.165271 0.319106)
(10.8748 -0.811033 -0.320941)
(10.4254 -0.038501 -0.0101501)
(10.7133 -0.242645 0.0525922)
(10.55 0.579297 -0.0764908)
(10.4533 1.51682 -1.65056)
(11.9921 0.800606 -0.54694)
(12.7343 0.965842 0.00838674)
(11.0286 1.7341 -1.80346)
(11.0117 0.0381047 0.0233468)
(9.33277 4.02916 -2.05704)
(10.8309 0.726814 -0.168846)
(11.5371 -1.46816 0.917507)
(10.4585 -0.164631 0.0486713)
(10.4894 4.24715 -2.92437)
(11.6428 1.41506 -0.363229)
(10.7826 2.33022 -1.70697)
(11.5426 1.52036 -0.0674125)
(10.6164 0.608886 0.0277302)
(11.1616 0.28252 0.0508362)
(10.7885 0.123775 -0.00151368)
(11.2448 1.39628 -1.97069)
(6.26774 0.905603 0.126628)
(11.0247 0.513801 -0.152687)
(10.7581 0.492871 -0.128489)
(11.5028 -0.917786 1.2803)
(11.949 1.66938 -2.50024)
(9.12834 0.41696 0.889117)
(11.6365 1.89316 -0.784795)
(10.7421 2.08807 -2.92753)
(13.0682 1.42565 -2.99926)
(10.8409 -0.648158 -0.138825)
(12.0058 0.50078 0.10144)
(12.5961 1.02529 -0.495845)
(10.3163 1.65767 -1.17393)
(6.65679 0.8477 -0.283708)
(10.6611 0.309081 -0.120526)
(11.8001 0.515924 -0.302091)
(10.6374 -0.0213898 -0.0148373)
(11.1777 -0.49342 0.988025)
(10.4828 0.00187773 0.0413736)
(10.4367 -0.00368963 0.0608425)
(10.4338 -0.0247198 -0.0190015)
(10.3976 -0.0138194 0.0426267)
(10.8799 0.388559 -0.026513)
(10.4445 -0.0169171 0.038873)
(11.6674 0.55015 0.0185462)
(2.73116 0.708747 0.015072)
(12.5803 0.874905 -0.588826)
(12.8905 0.56198 -3.06039)
(11.6809 0.460675 0.134556)
(11.6039 0.524365 -0.405828)
(10.7513 0.047679 0.00800608)
(11.435 0.0602909 0.267347)
(11.307 0.271978 0.0547472)
(12.7286 1.51947 -0.79645)
(11.1018 0.0110866 0.139586)
(7.74583 0.124468 1.02841)
(10.4262 0.0197955 -0.0321768)
(10.4158 0.0489923 0.00329436)
(9.8784 1.53423 -1.64693)
(11.2598 0.581708 -0.219514)
(10.4372 2.92914 -2.00015)
(10.8183 -0.920661 0.45946)
(10.9429 -0.952701 0.558932)
(10.9564 -1.18074 0.61298)
(10.8875 -0.860398 0.617276)
(11.0237 -1.60906 0.356313)
(10.295 -0.113201 0.00602531)
(11.3788 -1.58285 0.320896)
(11.1623 -1.58072 0.158029)
(10.9683 0.651297 -0.27173)
(11.7735 0.0405665 1.06145)
(12.2123 0.518089 0.716634)
(11.6867 -0.102554 1.12899)
(11.9791 -0.280539 1.10413)
(12.183 -0.149637 1.24767)
(12.298 0.196806 0.997473)
(11.4439 -0.597074 0.849134)
(10.9831 0.0422639 0.0247756)
(10.9353 0.0638088 -0.00699949)
(11.5129 0.288941 0.18011)
(11.1068 0.325335 -0.00954032)
(11.009 0.292765 -0.0138327)
(11.7203 -0.855305 1.29623)
(11.6575 0.133124 0.629949)
(11.3045 -0.795594 0.870091)
(11.0173 -0.143497 0.139196)
(10.9928 -0.127682 0.0943829)
(10.9368 -0.0669136 0.0317137)
(10.9927 0.0277056 0.123731)
(10.9793 -0.0734533 0.236259)
(10.9516 -0.147308 0.318641)
(13.4204 1.80397 -0.0860071)
(11.2784 0.0483749 0.630123)
(11.1987 -0.0198014 0.478604)
(10.9363 -0.146999 0.325366)
(10.817 -0.0717329 0.0662031)
(12.3467 0.654886 0.381095)
(11.8486 0.473465 0.126676)
(11.8071 0.51879 0.0995251)
(11.7419 0.514919 0.0283578)
(11.7528 0.472654 0.0773644)
(12.3224 -1.09567 0.294168)
(11.6301 -0.407113 1.20167)
(11.4055 -0.780444 0.923916)
(11.9099 -0.330572 1.41291)
(12.2016 -0.814295 1.48618)
(11.8923 -0.658214 1.74015)
(12.1713 -0.560428 0.710464)
(12.4427 -0.740704 0.659188)
(11.9348 0.225562 0.584382)
(12.416 -0.29341 0.326717)
(12.2141 -0.377691 0.544068)
(10.4013 -0.0805532 0.0255612)
(10.9666 -0.256374 0.01166)
(11.2764 -0.412527 0.114808)
(11.3075 0.0383447 0.0314504)
(10.9575 -0.0614839 0.0220039)
(11.9074 -0.58098 1.21248)
(11.6023 -0.61935 0.784339)
(11.3465 -0.842842 1.12956)
(11.2477 -0.881461 1.1262)
(11.2459 -0.696306 0.538989)
(10.8367 -0.629829 0.602494)
(10.8439 0.241302 0.00767274)
(12.3696 1.54205 -0.460067)
(11.2963 -0.545686 -0.0130019)
(10.8561 -0.358167 0.241955)
(11.535 -0.288998 0.172495)
(12.4033 4.7446 -4.04183)
(11.7477 1.37019 -0.516156)
(10.7031 -0.388481 -0.040364)
(10.7621 -0.3704 -0.0458094)
(10.8182 -0.316345 -0.0552417)
(11.7094 -0.668998 0.616595)
(10.75 -0.346249 -0.0480965)
(10.6532 -0.280385 -0.046958)
(10.5717 -0.363212 0.0813572)
(10.6159 -0.373934 0.135738)
(13.1979 0.5884 0.132792)
(11.4527 -0.143843 0.248655)
(11.8615 0.412651 0.418825)
(10.4759 0.0267683 -0.0271506)
(11.9452 0.980602 -1.7397)
(10.5097 -0.299681 0.0670929)
(7.98485 2.4428 -0.71582)
(13.0476 1.09839 -1.56737)
(10.6003 2.18374 -1.80724)
(12.0501 1.5152 0.144827)
(12.7305 1.11158 -0.299845)
(10.6743 -0.388582 0.0983492)
(12.1892 -0.472314 1.57454)
(12.7228 1.02905 -0.21965)
(12.6935 0.972767 0.11427)
(10.4988 -0.0435034 -0.016705)
(13.1597 0.200168 0.009078)
(12.6686 1.05103 -0.0796175)
(12.4408 0.689175 0.574616)
(11.5913 0.291184 0.124152)
(11.0569 0.0457682 -0.0397828)
(12.5572 0.777525 0.443363)
(11.7072 0.230022 -0.00723223)
(10.4137 -0.164523 0.0356021)
(10.6836 0.140048 0.0100269)
(11.5704 0.415211 -0.104644)
(12.2 1.48164 -0.490647)
(11.6069 0.433243 -0.0335238)
(11.6595 0.491337 -0.0537427)
(10.91 0.72338 -0.289561)
(11.8116 0.419301 0.0212775)
(11.6001 0.35049 -0.0497976)
(11.5029 0.184248 0.206827)
(11.7342 0.646602 -0.334897)
(11.4426 0.207549 0.387041)
(11.9318 0.307902 0.409785)
(11.8579 0.523737 -0.186964)
(11.8979 0.489598 -0.0992259)
(11.3553 1.05367 -0.661409)
(11.6884 0.469489 -0.14312)
(11.7435 0.280527 0.546592)
(12.6671 1.70782 -1.33018)
(11.8057 0.504169 1.52622)
(10.5872 -0.207131 0.00212038)
(5.04705 0.367921 -0.00314094)
(11.5145 0.15937 0.497543)
(10.9007 0.0311492 -0.0155618)
(12.1086 0.45823 1.14623)
(11.6066 0.213612 0.499518)
(11.248 0.114722 0.482145)
(11.4402 0.190642 0.658135)
(10.9472 -0.504802 0.153256)
(12.5813 0.985407 0.609585)
(12.2331 0.348762 1.29722)
(12.3166 1.02856 0.661665)
(11.2681 -0.0014096 0.698725)
(12.4943 0.872539 0.429052)
(11.112 0.432798 0.0664179)
(12.0952 0.706728 1.09515)
(11.9766 -0.534426 1.16295)
(10.7798 -0.605635 0.552928)
(10.9176 -0.343339 0.615392)
(12.313 1.29267 0.651919)
(11.8446 -0.266605 0.747906)
(10.7036 -0.161732 0.0849445)
(10.9363 -0.859191 -0.0993381)
(11.5612 0.318762 0.0125321)
(12.4419 0.637803 0.8176)
(10.8564 -0.354864 0.594259)
(10.8041 -0.0901915 0.0786102)
(11.6819 0.217916 0.586006)
(13.2425 -0.464114 -0.0843069)
(11.0378 2.05167 -0.181743)
(10.3264 1.46924 -0.052246)
(11.3511 0.0783677 0.558357)
(11.0029 -0.0414818 0.11709)
(12.3738 1.01127 -0.416699)
(10.6105 4.57685 -1.05807)
(11.2696 0.185979 0.221575)
(11.0832 0.320996 0.0336721)
(10.7838 -0.472852 0.350114)
(11.0836 0.400533 -0.0197739)
(11.3057 0.261532 0.165846)
(12.0144 -0.838189 1.0737)
(11.1263 -0.107984 0.0216373)
(11.8698 0.48275 0.191925)
(11.1903 0.0932946 0.0602361)
(11.5941 0.539541 -0.126154)
(11.2906 -0.0839333 0.134131)
(10.5831 -0.175485 0.0500589)
(12.861 -0.863283 0.127922)
(11.161 -0.0964804 0.116746)
(11.0948 0.0137803 0.0618905)
(12.5144 0.662509 0.412153)
(11.0985 -0.507052 -0.00784596)
(11.0688 0.531798 -0.0705714)
(10.6743 0.413051 -0.0681223)
(10.6798 -0.408549 0.187142)
(10.9691 0.119127 -0.0144986)
(12.2445 0.636002 0.80534)
(10.9246 0.0488734 -0.018682)
(11.3792 0.304145 0.0205479)
(11.1977 -0.899002 0.993312)
(10.9602 1.23065 -0.415003)
(12.1363 3.78173 -4.09069)
(11.3583 -0.0992725 0.0735849)
(11.2965 -0.28669 0.111602)
(11.3809 0.108195 0.150893)
(11.0763 0.0171464 0.102474)
(10.9385 0.263706 -0.0117948)
(11.1326 -0.0142332 0.0318988)
(10.6906 0.0725987 0.0257977)
(11.2834 -0.344136 -0.149946)
(10.671 -0.165904 0.0702054)
(12.3256 0.692113 0.695846)
(12.297 -0.28076 1.06341)
(11.302 -0.0387418 0.64571)
(6.43434 1.19879 0.341093)
(11.5938 -0.793664 1.41033)
(11.3244 0.837341 -0.891324)
(11.2561 -0.14214 0.325582)
(11.0637 0.13165 0.106283)
(12.2804 0.554698 1.07457)
(10.6599 0.0777249 -0.00267708)
(10.6539 -0.690634 0.16311)
(11.1722 -0.483582 0.127523)
(10.9285 -0.493798 0.366591)
(11.8196 -0.834632 0.339996)
(11.8191 0.668395 1.38171)
(8.26164 1.1335 0.376502)
(10.9039 -0.22993 0.118573)
(11.2766 0.46692 0.0618657)
(11.1849 -0.620505 -0.339846)
(10.8074 -0.245165 0.0668257)
(11.3115 -0.164654 0.0838037)
(11.6766 0.229206 0.467621)
(10.2621 0.944301 2.41334)
(10.9174 -0.862989 0.173065)
(11.7521 0.0633463 -0.0762172)
(11.1643 2.21662 -1.49142)
(11.2074 0.750059 -0.052346)
(11.177 1.46033 -0.922681)
(8.05739 2.00577 0.676491)
(10.4476 -0.0656822 0.025948)
(10.5344 -0.126227 -0.0132444)
(10.735 0.409971 -0.068812)
(10.9345 1.38145 -1.62647)
(10.8079 -0.136868 0.0423351)
(11.1661 0.376515 -0.0291462)
(11.3066 -1.06674 0.492464)
(11.0037 0.595572 -0.0617512)
(12.2673 -0.151982 0.622143)
(12.1042 -0.469007 2.06507)
(9.60608 4.67798 -4.12497)
(12.6531 0.995092 0.0354502)
(11.1104 2.53366 -1.91537)
(7.43967 2.22085 -0.322091)
(10.9017 1.04054 -0.314002)
(11.5301 0.731613 -0.346225)
(10.5467 1.14683 -0.127761)
(11.8186 0.978105 -0.0135473)
(10.5171 0.661511 -0.148007)
(10.731 0.531255 0.0561936)
(11.2688 1.49575 -2.08846)
(11.7103 1.0419 -0.778329)
(11.2294 1.46023 -0.67465)
(11.1951 0.101298 0.0544607)
(5.8527 5.51815 -2.96908)
(11.9164 -0.153093 0.428281)
(11.1852 0.555235 0.0363626)
(11.2885 0.183834 -0.0038257)
(10.8386 -0.32452 0.0424667)
(12.5091 1.99112 -0.392884)
(11.9696 0.703209 0.459477)
(8.66647 1.18114 0.294521)
(11.4176 1.27483 -1.3067)
(6.38309 4.00659 -1.21426)
(11.9565 1.19566 -0.00285959)
(11.8162 0.306428 0.198014)
(12.296 0.753543 0.767774)
(10.6918 0.729728 -0.170326)
(11.8648 -0.496994 0.533762)
(11.6689 -0.0838758 -0.117992)
(12.0732 -0.816169 1.28057)
(12.7813 0.846729 -0.245115)
(11.5055 0.225526 0.240606)
(11.4514 0.433887 -0.031535)
(10.8343 0.645601 -0.171582)
(11.5949 0.292368 0.219659)
(10.6575 -0.0304302 0.00125191)
(11.8538 1.04544 -0.459716)
(12.4077 2.1217 -1.8003)
(12.7369 2.89858 -2.79443)
(11.836 1.46954 -1.23623)
(12.904 2.66256 -5.74273)
(4.92071 0.995401 0.0197742)
(12.5027 0.686421 0.774864)
(9.82699 2.17995 -1.45801)
(5.9434 0.962845 0.486689)
(10.6951 0.0980719 0.0160573)
(11.0308 0.830905 -0.011316)
(10.7468 0.219217 0.0209418)
(10.8226 0.0753837 0.00779466)
(10.9099 0.864605 -0.13759)
(10.7789 -0.126968 0.0650297)
(10.8544 0.134272 -0.0189455)
(11.4283 -0.567144 -0.128707)
(10.7433 0.247635 0.0214665)
(10.5195 0.365213 -0.0910177)
(10.8217 0.422781 0.0871328)
(10.5347 0.306619 -0.0832457)
(12.0472 1.54889 -1.05582)
(10.6877 0.484478 -0.030454)
(10.8163 -0.0549062 0.0304086)
(10.7729 0.450318 0.0705302)
(10.5746 0.607634 0.00473034)
(11.228 0.108464 0.00931774)
(10.0683 1.3956 -0.941237)
(11.0451 1.70164 -0.875852)
(11.1728 -0.214977 0.782021)
(11.2698 0.523224 0.025139)
(11.2354 0.678737 -0.0778053)
(12.4349 0.255035 1.07229)
(10.8977 0.296282 -0.0751246)
(10.5875 0.132349 0.034529)
(10.8507 0.00686701 0.0467932)
(10.6434 -0.0701404 0.0540924)
(10.9856 0.36338 0.0527559)
(11.2406 0.829706 0.0419986)
(11.0425 -0.0202678 0.11789)
(10.7511 -0.465346 0.335512)
(9.9681 -2.319 3.95192)
(10.8302 1.89417 -3.66831)
(12.1066 0.256502 0.419131)
(12.4602 0.120223 0.167017)
(11.2546 0.140199 0.227588)
(11.5872 0.0553805 0.669083)
(11.6475 -0.617817 0.523259)
(11.9979 0.147018 0.672952)
(11.1273 1.45997 -2.38973)
(12.1212 0.842713 0.0997169)
(10.9542 0.257346 0.00743919)
(11.0289 0.00118418 -0.0553461)
(10.7133 0.108804 0.0285241)
(10.5742 -0.133499 0.0684948)
(11.1465 0.933736 -0.0597682)
(10.6618 -0.253695 0.0205276)
(10.6054 -0.160717 0.0496655)
(11.4949 0.214169 0.0416574)
(11.1086 0.060343 -0.010677)
(11.0328 0.100582 -0.0135767)
(11.2209 0.465058 0.0813937)
(10.8176 0.352983 0.0427929)
(10.6362 -0.221523 -0.00634124)
(10.6146 -0.27424 0.00787922)
(11.5117 1.66163 -1.37134)
(11.1263 0.560435 0.106593)
(10.6601 0.0901657 -0.051841)
(10.6428 0.241222 0.0344838)
(11.0932 -0.0236602 0.227773)
(10.9461 0.122357 -0.0327867)
(10.6336 0.00277068 -0.0410703)
(11.4082 -0.0354763 0.0550524)
(10.9148 0.339033 0.0451258)
(10.8667 0.271299 -0.000219751)
(11.0751 0.452678 0.0801181)
(10.6608 -0.126846 0.0461115)
(10.7767 -1.27829 -0.123616)
(10.6669 -0.0178212 0.0536174)
(11.0659 0.466518 0.0941359)
(11.0716 0.0187051 0.156353)
(10.6003 0.00152908 0.0381475)
(11.3628 0.809484 0.0622116)
(11.1112 0.602932 0.0449973)
(12.8772 0.85497 -1.26081)
(11.0733 0.544891 -0.198453)
(10.7805 -0.213173 0.164794)
(12.3101 3.16907 -0.375503)
(12.3177 -0.253738 0.851026)
(11.2088 0.851534 -0.933245)
(10.7282 -0.508048 0.594199)
(11.9787 1.36036 -0.315042)
(4.00039 0.048071 0.837443)
(12.2821 0.517585 0.206964)
(7.18476 0.481009 0.54413)
(12.6295 0.0984327 1.0033)
(8.84064 4.27529 -3.46508)
(10.3452 2.0478 -3.1739)
(5.53162 0.288054 0.224605)
(13.0623 1.74511 -0.638233)
(5.01352 0.875353 -1.32298)
(11.6634 0.81992 -0.0964212)
(8.91867 2.92996 -0.700179)
(10.9638 1.52928 0.479605)
(9.01635 -0.773242 2.60377)
(2.01185 -0.807794 -0.466294)
(4.78728 0.901844 0.42571)
(10.8618 1.60385 -0.0944475)
(11.2057 1.42836 -0.135296)
(11.4207 1.69617 -0.214569)
(10.7985 2.11169 -0.912519)
(10.5907 2.15734 -0.733606)
(10.6902 1.86234 -0.480723)
(10.6242 -0.0447623 0.050692)
(13.2813 2.25685 -0.14664)
(10.9745 0.912426 -0.00638358)
(10.8662 0.614329 -0.0113611)
(10.6135 0.78549 -0.0171742)
(11.0261 0.787042 -0.102316)
(10.6776 0.314213 -0.0806491)
(10.7189 0.262627 -0.145518)
(11.1411 0.592467 0.00342729)
(10.5324 -0.181658 -0.0144301)
(10.7606 0.0318912 -0.0346257)
(11.3695 -0.0486399 -0.132609)
(11.2033 0.0336689 -0.082855)
(10.6624 0.193611 0.0207755)
(10.8805 -0.457644 0.190182)
(10.4619 -0.0142174 0.0179795)
(11.0753 -0.32129 -0.180925)
(11.7288 1.84972 -2.11608)
(11.2968 1.21591 -0.460681)
(11.5028 -0.318435 -0.0039949)
(11.087 -0.0922525 -0.100564)
(10.8867 -0.209538 0.306281)
(11.6896 -0.0475308 1.91485)
(12.162 0.456678 0.247608)
(10.8333 -0.437646 0.374195)
(11.4767 0.034695 0.346707)
(12.1561 2.74799 -2.03308)
(10.9156 0.278097 -0.0189529)
(11.7094 -0.138901 0.422249)
(3.09839 -0.445709 0.562751)
(10.5064 0.825545 -0.278807)
(12.153 0.346894 0.852738)
(11.4807 -0.216836 0.652155)
(10.6475 -0.538635 0.0109089)
(10.796 -0.164014 0.00672187)
(12.5369 0.700511 0.553592)
(11.629 0.340845 0.158951)
(10.9601 0.35649 -0.0567328)
(10.9842 -0.00815352 0.0337107)
(11.6549 0.253027 0.184927)
(10.7351 1.44103 -0.119289)
(11.2304 -0.369439 -0.158957)
(11.443 0.357944 0.00195525)
(11.154 0.173057 0.095728)
(11.6802 1.75764 -0.837795)
(11.7348 0.411186 0.12608)
(10.891 -0.366173 0.168181)
(10.1999 1.47469 -0.952092)
(10.8777 -0.0561134 -0.00827437)
(10.7504 0.120941 0.0208067)
(10.6348 0.0174182 0.0420008)
(10.8085 -0.0525544 0.00881346)
(10.4121 -0.0716278 -0.0115168)
(10.8485 0.2389 0.00505878)
(10.7344 -0.210286 0.0112988)
(10.7018 -0.0710956 -0.0145512)
(11.8025 0.278395 0.50248)
(11.8633 0.903837 -0.28647)
(11.5592 -0.169183 0.135766)
(11.851 0.642047 -0.0140882)
(12.0123 0.522131 0.0685686)
(10.299 2.1174 -1.17696)
(11.1724 1.33912 -1.52641)
(11.4862 0.644359 -0.248339)
(13.6804 3.56149 -2.96912)
(11.2513 -0.0802 0.589374)
(12.572 4.59737 -1.27065)
(11.766 1.03142 -0.972345)
(11.9062 0.619616 1.1888)
(12.1408 -0.140998 0.479305)
(3.52866 0.0560809 -0.0212166)
(11.2874 1.07267 -1.12488)
(11.0632 1.19611 -0.4197)
(10.9946 -0.0442005 -0.0429636)
(12.4631 0.98725 -0.0131609)
(10.7115 0.725174 -0.214575)
(13.2125 0.354632 0.0183828)
(11.6651 0.268577 0.114797)
(10.6506 0.00161889 -0.0146839)
(10.8845 0.827952 -0.379572)
(12.1387 1.36783 0.189147)
(10.7241 0.0477691 0.0388709)
(11.2313 -0.290233 -0.0212638)
(11.0294 1.38269 -0.025419)
(10.779 0.919754 -0.163491)
(10.7722 0.159869 -0.00573508)
(10.8522 0.22503 -0.0805886)
(11.326 0.000306863 0.0594498)
(10.7585 0.181159 -0.0170467)
(11.3056 0.527359 0.0707448)
(11.1962 -0.395179 -0.00824195)
(10.9157 0.017731 -0.0152486)
(11.2701 0.387359 0.0548105)
(10.8691 0.0685389 -0.021483)
(10.8683 0.070451 0.0180877)
(11.1805 0.498725 0.100482)
(12.7777 1.90451 -0.161653)
(10.7636 0.060102 0.0184907)
(10.7061 0.187631 -0.0369298)
(11.0305 0.19323 -0.0139074)
(11.4011 -0.0548974 0.893525)
(10.8816 0.0793274 -0.0383639)
(10.7333 -0.820157 -0.052895)
(10.7629 -0.0795388 0.0690604)
(10.8842 -0.247281 0.199339)
(11.2081 -0.101097 0.620875)
(10.7395 -0.356956 -0.0687108)
(4.81288 0.260855 0.824881)
(12.7201 0.872442 -0.0971937)
(10.7852 0.331128 -0.130284)
(10.679 -0.200114 0.0601477)
(11.1156 -0.107964 0.429996)
(12.2128 0.868594 -0.828761)
(11.309 0.423159 0.0288539)
(11.4842 -0.314507 0.749117)
(11.1436 0.165463 0.108255)
(11.7652 -0.0873586 0.417559)
(11.8845 1.10702 -0.252266)
(6.11737 1.79146 -3.35979)
(11.3465 0.155641 0.0762031)
(12.5607 0.771391 0.119341)
(12.6431 1.18072 -0.148638)
(10.4894 1.74669 -1.42138)
(11.8535 1.65963 -0.711653)
(10.9841 0.198782 -0.00671057)
(12.2302 0.663849 -0.411798)
(12.1003 0.58041 -0.182355)
(11.7949 0.0462731 0.188672)
(11.7203 0.722689 -0.419501)
(12.0462 0.975871 -0.557971)
(9.60879 3.36212 -1.44543)
(10.7363 0.0878599 0.00512092)
(10.3806 1.09678 -0.808394)
(10.7064 -0.00768767 0.0434815)
(9.14135 -0.301864 4.04744)
(10.8009 0.313383 -0.0550207)
(11.6783 1.78765 -0.201089)
(11.5653 0.848678 0.0805834)
(10.5398 0.66273 -0.0898725)
(12.9339 0.95351 -0.578599)
(12.743 1.7256 -0.38915)
(12.4588 0.520307 0.204393)
(9.05478 2.898 -4.72807)
(11.9088 -0.701439 1.10431)
(12.7019 1.40754 -1.68203)
(11.8337 1.59156 -0.225654)
(11.7456 1.76112 -0.573934)
(11.6837 1.07518 -1.03557)
(11.5262 1.72283 -1.24497)
(12.0021 0.695179 -0.479901)
(11.6696 1.30941 -2.28892)
(12.3826 1.69542 -3.00358)
(12.1718 1.7105 -4.02255)
(10.6684 1.45038 -0.801012)
(6.13017 0.995642 -0.165599)
(12.5188 1.62652 -0.433837)
(10.5908 0.875141 1.51918)
(11.9205 1.89085 -0.799688)
(7.12424 2.53256 -0.47646)
(3.68774 0.679622 0.129519)
(10.4951 0.928249 -4.18566)
(12.5583 0.841128 -0.477732)
(11.197 2.3374 -2.91069)
(10.8463 2.4566 -2.85288)
(3.46127 0.50003 -0.0166211)
(12.8579 2.42012 -3.53622)
(12.5778 1.95185 -3.44902)
(6.70084 1.16576 -0.255447)
(6.00593 0.351896 0.505547)
(9.2634 2.85747 -2.88316)
(12.4908 1.66258 -1.66201)
(10.818 0.850908 -0.542371)
(12.4626 0.757134 0.0661481)
(12.4146 1.39038 -1.05288)
(12.5104 1.59346 -1.48839)
(12.0621 0.968145 -0.722977)
(11.3348 1.17147 -0.746131)
(12.6233 1.1376 -0.16487)
(12.6527 1.28764 -0.677248)
(12.1945 1.40886 -0.204431)
(12.9125 1.64691 -0.704409)
(11.6406 -0.258283 1.32811)
(11.7649 0.293695 0.349111)
(13.0484 2.79737 -1.27051)
(12.9145 3.42555 -1.20606)
(11.2283 1.51999 -0.47221)
(11.5462 0.392171 -0.039318)
(10.8677 0.670257 -0.380388)
(11.1197 1.21933 -2.27973)
(11.2782 1.04284 -1.61865)
(11.7579 0.97213 -1.55186)
(11.5444 1.02857 -1.45855)
(11.3397 0.94892 -0.254424)
(11.4087 0.960629 -0.195439)
(11.4322 0.276214 0.129115)
(11.1889 0.164362 0.0263202)
(10.8384 0.509357 -0.118478)
(10.887 0.493748 -0.0919976)
(11.6027 0.778441 -0.0752662)
(11.1364 0.167043 0.0465329)
(11.3306 0.761339 -0.256953)
(10.6371 0.978492 -0.297204)
(10.7929 0.684022 -0.175293)
(10.5371 0.913119 -0.288557)
(10.1469 1.71855 -0.757082)
(10.0148 1.66105 -0.763685)
(12.322 0.700368 0.717521)
(11.5386 0.31968 0.124598)
(11.5525 0.222933 0.213802)
(11.4104 0.287692 0.0311863)
(12.026 0.629774 -0.180201)
(11.3167 0.307826 -0.0143656)
(11.2178 0.0982938 0.11326)
(10.9081 -1.50078 0.386815)
(11.3218 -0.617631 0.0491345)
(11.3542 -0.496203 0.991514)
(11.7658 -0.36841 0.943334)
(11.5496 -0.490553 1.27431)
(11.476 -0.839324 0.989908)
(11.2869 -1.20426 0.84743)
(11.6662 -0.319026 0.984269)
(11.7269 -0.447202 1.26735)
(10.9896 -0.283277 0.713909)
(10.9999 -0.216132 0.452914)
(11.1535 -0.021221 0.337412)
(10.4408 -0.0171187 -0.0114783)
(13.1891 1.31131 -0.197715)
(11.8807 -1.01111 2.11003)
(11.4672 0.265278 -0.00748197)
(11.9335 -1.2636 2.16184)
(12.096 -1.26037 1.94912)
(11.9354 -1.00059 2.02622)
(11.6834 -1.24114 -0.0637273)
(11.8725 -1.42052 0.0569868)
(12.3545 -0.486957 -0.262829)
(12.3806 -0.443178 -0.141382)
(11.3439 1.56026 -0.557264)
(11.6266 0.772935 -0.483457)
(11.4741 0.742692 -0.457928)
(11.2072 0.672948 -0.560826)
(10.3355 1.14906 -1.17035)
(10.7009 1.09883 -1.13732)
(10.5869 1.09809 -0.854184)
(10.2896 -0.0145903 0.0138909)
(12.4706 0.910287 -0.941584)
(12.7479 1.2142 -2.39739)
(10.461 0.729313 0.222714)
(11.4755 0.487681 -0.0539023)
(10.9387 0.508657 -0.00588396)
(11.3519 0.473231 -0.296944)
(11.5411 0.524859 -0.322955)
(10.8743 -0.498844 0.350806)
(10.9122 -0.380533 0.228077)
(11.4628 0.959647 -0.507687)
(10.312 -0.0319483 0.0082811)
(12.102 1.33983 -1.25245)
(12.7643 1.20809 -0.730206)
(12.8293 1.13849 -0.690044)
(12.181 1.4985 -1.83951)
(12.4355 1.65423 -1.85652)
(11.6985 1.34977 -1.36437)
(11.4418 2.32665 -1.36464)
(12.1489 0.217205 0.187094)
(11.8658 0.459163 -0.0699203)
(12.3438 -0.0269947 0.199158)
(12.2538 1.36605 -0.112557)
(12.2621 1.98225 -0.267708)
(12.8128 1.57862 -0.223773)
(10.4505 -0.0116103 -0.0314457)
(10.6154 0.160515 -0.0067322)
(10.6178 0.113223 -0.047134)
(10.6609 0.126443 -0.0470754)
(12.45 0.29408 0.0202578)
(12.3715 0.250275 0.165031)
(12.2463 -0.14009 0.253749)
(12.7034 -0.125601 0.0735936)
(12.5462 0.382478 0.0896843)
(10.7943 0.766369 -0.308493)
(10.6777 0.508049 -0.139172)
(10.6853 0.681779 -0.249299)
(11.1171 -0.220316 -0.152297)
(11.1261 -0.199863 -0.13873)
(11.3053 -0.311834 -0.459127)
(11.3684 -0.240784 -0.367515)
(11.0944 -0.260857 0.340334)
(10.8534 -0.316916 0.430093)
(11.2054 0.0673499 0.2199)
(10.8286 -0.267452 0.199682)
(10.7059 -0.484325 0.348667)
(10.9015 -0.207238 0.177074)
(10.8722 -0.100271 0.0269217)
(10.7563 -0.0156542 0.0204089)
(10.9934 -0.033726 0.017845)
(11.1307 -0.389141 0.00249209)
(11.3839 0.234356 0.0718034)
(11.297 0.379156 -0.0230043)
(11.2177 0.389128 0.00514398)
(11.1165 0.0974734 0.0190422)
(10.7426 -0.407109 -0.00708436)
(10.6043 -0.30111 0.0358749)
(11.0776 -0.0967509 0.392434)
(10.9263 0.171051 -0.0294657)
(10.5578 -0.224011 0.0513077)
(10.8155 -0.529077 -0.128593)
(10.8061 0.0843571 -0.0149703)
(10.8053 0.401379 -0.123794)
(12.8101 1.49317 -1.44774)
(11.8147 0.0434448 1.84419)
(11.8967 0.129024 0.656105)
(11.8303 1.02056 -1.23247)
(10.6663 -0.909355 0.289886)
(12.7075 1.3113 -1.11405)
(12.0237 0.128159 0.774412)
(12.2396 0.94574 0.417168)
(12.6337 0.893362 0.304355)
(11.6004 0.619671 -0.0623711)
(11.2386 0.514294 -0.0219504)
(10.7894 -0.895159 0.00595806)
(12.4149 1.17951 -0.0613251)
(11.6176 0.438114 0.00637455)
(11.4372 0.861908 -0.000526094)
(10.6653 -0.0959475 0.0348583)
(12.4635 0.732934 0.243631)
(11.2217 1.88872 -2.70226)
(11.2828 0.473439 -0.0464773)
(11.58 0.0921744 0.713615)
(12.1069 0.92271 -1.23437)
(11.5125 -0.00272134 0.808586)
(10.7473 -0.258888 0.287215)
(10.4827 -0.156596 0.0266839)
(10.9591 -0.467332 0.166524)
(10.9249 -0.151719 0.15002)
(10.8851 -0.319073 0.342137)
(13.3652 0.100033 -0.231695)
(10.9268 0.489456 0.528613)
(11.6675 0.55764 0.0653994)
(3.73915 -0.00953509 0.153433)