/*--------------------------------*- C++ -*----------------------------------*\
| =========                 |                                                 |
| \\      /  F ield         | OpenFOAM: The Open Source CFD Toolbox           |
|  \\    /   O peration     | Version:  2506                                  |
|   \\  /    A nd           | Website:  www.openfoam.com                      |
|    \\/     M anipulation  |                                                 |
\*---------------------------------------------------------------------------*/
FoamFile
{
    version     2.0;
    format      ascii;
    arch        "LSB;label=32;scalar=64";
    class       volScalarField;
    location    "0.0817324";
    object      k;
}
// * * * * * * * * * * * * * * * * * * * * * * * * * * * * * * * * * * * * * //

dimensions      [0 2 -2 0 0 0 0];

internalField   nonuniform List<scalar> 
3972
(
0.31715
0.30622
0.285843
0.28026
0.782
0.333749
0.294209
0.312163
0.300188
0.357786
0.31512
0.318185
0.365592
0.285133
0.287783
0.288648
0.285158
0.319593
0.28609
0.288701
1.01151
0.502417
0.326348
0.287329
0.937422
0.298912
0.28699
0.305873
0.412677
0.288029
0.690208
0.465637
0.291223
0.386442
0.289017
0.291574
0.344569
0.2858
0.296369
0.35349
0.318044
0.316307
0.315836
0.415244
0.281919
0.288077
0.325311
0.445803
0.298134
0.29701
0.284248
0.302534
0.35079
0.31011
0.339626
0.282272
0.370074
0.305948
0.36093
0.497704
0.298289
0.350211
0.286099
0.315096
0.291008
0.396334
0.403588
0.346011
0.340375
0.471902
0.325008
0.324649
0.472024
0.292003
0.377579
0.288938
0.329024
0.31305
0.293947
0.390969
0.338883
0.320641
0.28991
0.299102
0.30947
0.355192
0.347624
0.332566
0.365565
0.349331
0.343687
0.333716
0.361775
0.326356
0.292309
0.296241
0.287939
0.290677
0.28224
0.290335
0.290322
0.290597
0.29481
0.288711
0.305986
0.298775
0.319543
0.310374
0.383604
0.305532
0.33714
0.287193
0.290412
0.404394
0.31844
0.320869
0.292745
0.383946
0.344449
0.333904
0.41997
0.364198
0.321347
0.352927
0.281729
0.686316
0.330463
0.649143
0.675553
0.836292
0.658459
0.333494
0.55966
0.553286
0.37263
0.353434
0.345404
0.343096
0.37205
0.301353
0.348714
0.29176
0.328034
0.378591
0.371589
0.320991
0.363343
0.290426
0.341333
0.349507
0.308728
0.309603
0.289392
0.353577
0.368147
0.303049
0.283102
0.351384
0.34324
0.408698
0.292838
0.29574
0.321952
0.335356
0.297734
0.352431
0.338584
0.388617
0.311822
0.357783
0.372686
0.289601
0.289199
0.288728
0.288043
0.287875
0.296471
0.288919
0.288349
0.28888
0.342566
0.351636
0.327047
0.380172
0.2892
0.288768
0.289717
0.292728
0.288154
0.846025
0.286817
0.287064
0.394663
0.288378
0.290458
0.286955
0.292437
0.298114
0.447448
0.291831
0.290635
0.320887
0.348281
0.282776
0.285952
0.295617
0.287685
0.329407
0.402161
0.353216
0.366404
0.294088
0.616282
0.632926
0.291585
0.301443
0.405098
0.284553
0.327234
0.296379
0.28764
0.35835
0.322199
0.28772
0.481319
0.287554
0.831507
0.445395
0.882055
0.424643
0.901337
0.705766
0.453459
0.677951
0.309293
0.298531
0.314745
0.293725
0.339253
0.317967
0.316477
0.642821
0.426361
0.321295
0.336488
0.284474
0.304523
0.285213
0.321107
0.307563
0.301233
0.711942
0.366186
0.36684
0.28985
0.316555
0.482249
0.416368
0.287037
0.371708
0.484196
0.336714
0.357577
0.298084
0.41338
0.3348
0.287813
0.353575
0.323701
0.303406
0.317073
0.386008
0.681823
0.456615
0.369365
0.41717
0.343546
0.36392
0.29266
0.288225
0.31913
0.464992
0.29456
0.565004
0.732105
0.70231
0.300646
0.296128
0.315072
0.303931
0.292955
0.30859
0.322552
0.283957
0.457042
0.369578
0.308396
0.484509
0.301366
0.653685
0.286144
0.297763
0.337626
0.369987
0.302875
0.296673
0.327281
0.327298
0.288254
0.323891
0.319963
0.274084
0.405485
0.293578
0.946902
0.294947
0.300278
0.293144
0.29679
0.30537
0.622257
0.880268
0.340705
0.290849
0.293565
0.302534
0.288944
0.29467
0.302712
0.375202
0.277597
0.477211
0.332925
0.289555
0.291123
0.355661
0.284832
0.354331
0.288757
0.403524
0.365901
0.292739
0.40745
0.28954
0.308663
0.290258
0.30543
0.309912
0.298089
0.343682
0.299286
0.322471
0.298178
0.2822
0.869162
0.405091
0.76267
0.294825
0.301974
0.299129
0.295169
0.290614
0.299859
0.407619
0.291085
0.290814
0.294832
0.297983
0.299201
0.287381
0.292451
0.296145
0.28891
0.294687
0.295478
0.278617
0.279364
0.367364
0.28289
0.293579
0.289903
0.296885
0.286867
0.380438
0.296131
0.380469
0.296011
0.356149
0.297048
0.30937
0.62005
0.305668
0.548636
0.314404
0.498907
0.313922
0.304021
0.983755
0.287053
0.286887
0.344042
0.304235
0.290156
0.312091
0.336482
0.289775
0.285271
0.521816
0.291286
0.318365
0.288827
0.373716
0.347755
0.332604
0.305706
0.813031
0.28593
0.304777
0.314574
0.288775
0.311183
0.343648
0.298333
0.283698
0.288038
0.305535
0.313528
0.292994
0.347589
0.361033
0.306327
0.291029
0.328768
0.290795
0.286357
0.316038
0.310435
0.289036
0.291592
0.320047
0.290577
0.301354
0.287079
0.296298
0.298314
0.317914
0.307264
0.287859
0.284247
0.288214
0.294539
0.34223
0.325282
0.335789
0.307376
0.312078
0.575531
0.523141
0.451005
0.343591
0.393338
0.338668
0.292081
0.309274
0.327471
0.383279
0.290895
0.299232
0.285724
0.306224
0.36182
0.307163
0.320009
0.320481
0.293929
0.387502
0.413061
0.67776
0.335034
0.333292
0.398634
0.39202
0.439336
0.423094
0.459911
0.2877
0.30196
0.418651
0.29788
0.291521
0.307494
0.309018
0.622889
0.358625
0.631372
0.723135
0.395022
0.294753
0.300781
0.286437
0.289118
0.402139
0.284278
0.339787
0.322042
0.338109
0.299268
0.295355
0.298995
0.301783
0.424736
0.294916
0.44594
0.564996
0.310938
0.304653
0.287227
0.294731
0.416936
0.413749
0.377173
0.332777
0.280998
0.332994
0.552591
0.297179
0.310424
0.353025
0.408141
0.289765
0.394034
0.441557
0.304881
0.350346
0.370791
0.313684
0.29956
0.29836
0.300101
0.298489
0.299072
0.31516
0.319511
0.341124
0.298533
0.297939
0.377288
0.307333
0.304937
0.287697
0.299945
0.298487
0.313349
0.321358
0.294496
0.288595
0.292792
0.355428
0.286641
0.296753
0.320185
0.314527
0.301116
0.450324
0.298042
0.478038
0.477907
0.474278
0.302763
0.65885
0.298093
0.297409
0.540382
0.288191
0.332882
0.295814
0.304111
0.297819
0.296176
0.295181
0.296502
0.297932
0.306772
0.296755
0.307918
0.300675
0.291939
0.289481
0.292264
0.299236
0.342459
0.434062
0.795867
0.626521
0.367503
0.428451
0.279496
0.276353
0.297359
0.28941
0.278273
0.32975
0.350571
0.296409
0.559738
0.419966
0.490717
0.307602
0.687123
0.29215
0.307134
0.29402
0.34975
0.28262
0.323334
0.310304
0.299502
0.288453
0.289375
0.2873
0.289722
0.537817
0.43402
0.355981
0.390116
0.290957
0.294096
0.288188
0.288711
0.291124
0.297805
0.291947
0.284188
0.350653
0.379662
0.340618
0.334638
0.289333
0.291485
0.290859
0.292061
0.347617
0.337008
0.296901
0.291291
0.405891
0.372516
0.680141
0.423842
0.448087
0.352535
0.339208
0.755741
0.85961
0.328376
0.317338
0.29941
0.309485
0.32307
0.387507
0.438807
0.372949
0.286023
0.416547
0.279535
0.323235
0.318107
0.310438
0.334631
0.327299
0.281934
0.288146
0.288574
0.291326
0.292395
0.287942
0.288642
0.313676
0.304581
0.316206
0.327912
0.334953
0.334589
0.338164
0.324721
0.297191
0.289873
0.296838
0.293618
0.325986
0.318599
0.44833
0.306889
0.28533
0.285797
0.341053
0.288729
0.291494
0.287503
0.293651
0.293389
0.327117
0.288667
0.308367
0.297165
0.37389
0.317947
0.288423
0.284537
0.301015
0.31985
0.289093
0.303015
0.312125
0.733621
0.284516
0.302437
0.308053
0.317567
0.286505
0.360097
0.288645
0.310785
0.301077
0.283343
0.289313
0.33238
0.331822
0.30121
0.303072
0.286114
0.288221
0.287699
0.289316
0.298387
0.297993
0.284607
0.288822
0.288779
0.292397
0.287924
0.289114
0.316265
0.297123
0.319251
0.35702
0.285766
0.289731
0.289413
0.304784
0.285972
0.285326
0.286546
0.324095
0.356687
0.313654
0.317663
0.370295
0.724599
0.456177
0.565318
0.798418
0.305527
0.312036
0.300752
0.316875
0.372317
0.290937
0.287455
0.339041
0.279381
0.302905
0.285598
0.312401
0.296158
0.303786
0.331587
0.295802
0.290861
0.415498
0.275465
0.344292
0.293764
0.334482
0.387081
0.382162
0.342938
0.364264
0.28893
0.292737
0.286882
0.501068
0.317084
0.285712
0.281917
0.294229
0.282372
0.420572
0.280169
0.274063
0.286032
0.286142
0.298468
0.285208
0.290528
0.292578
0.592153
0.334609
0.652477
0.287298
0.295647
0.361661
0.28792
0.288968
0.289012
0.293757
0.28866
0.289625
0.286635
0.323411
0.297262
0.294749
0.285217
0.288223
0.385638
0.293503
0.314489
0.411869
0.361235
0.315973
0.302576
0.299667
0.287657
0.286737
0.28646
0.427792
0.354935
0.287265
0.476807
0.470062
0.868463
0.698158
0.299723
0.300917
0.285821
0.292999
0.291207
0.74081
0.33065
0.50063
0.449129
0.437879
0.325835
0.283589
0.311361
0.29371
0.285667
0.478031
0.360149
0.76767
0.293519
0.291079
0.286896
0.305505
0.329426
0.297268
0.311245
0.299331
0.310893
0.614026
0.317041
0.330835
0.303894
0.389405
0.39479
0.279316
0.618725
0.291406
0.308038
0.287913
0.301064
0.342144
0.318706
0.295886
0.34019
0.420435
0.728911
0.285766
0.276111
0.276985
0.311135
0.325201
0.313849
0.296586
0.336021
0.456958
0.467525
0.742285
0.688915
0.35878
0.401901
0.278134
0.277581
0.27708
0.276584
0.283714
0.280507
0.281454
0.300127
0.318604
0.296548
0.282762
0.392388
0.286253
0.293544
0.280516
0.286768
0.379664
0.294475
0.296713
0.316354
0.285846
0.279565
0.313067
0.30673
0.287652
0.290497
0.293423
0.288044
0.445261
0.353638
0.301792
0.291089
0.305813
0.302292
0.299924
0.313495
0.293377
0.31675
0.305608
0.286055
0.307326
0.289591
0.319451
0.41369
0.462135
0.803775
0.288343
0.302649
0.349882
0.282131
0.292586
0.310181
0.298717
0.285433
0.327016
0.318889
0.336326
0.338809
0.340302
0.373715
0.292629
0.292918
0.318901
0.32492
0.288258
0.342866
0.321631
0.3245
0.510687
0.341094
0.65842
0.291501
0.325769
0.83353
0.32128
0.326847
0.287734
0.806664
0.29802
0.294743
0.559359
0.356848
0.318756
0.298615
0.296611
0.331629
0.359906
0.293605
0.294077
0.289238
0.327058
0.331063
0.817231
0.779324
0.803337
0.344859
0.828039
0.3166
0.605321
0.882912
0.287723
0.289562
0.33655
0.305965
0.330608
0.326832
0.292095
0.647572
0.826047
0.330716
0.294033
0.36359
0.628577
0.315812
0.288446
0.289878
0.373922
0.377813
0.289336
0.809534
0.557136
0.980813
0.965318
0.28542
0.376965
0.354074
0.303523
0.305549
0.403762
0.333759
0.286478
0.303373
0.301699
0.322162
0.291623
0.308228
0.303484
0.293468
0.310452
0.277962
0.302691
0.297288
0.319765
0.306994
0.293602
0.305033
0.298147
0.34071
0.306833
0.297647
0.297944
0.317856
0.2835
0.299077
0.2923
0.317263
0.295857
0.31509
0.292541
0.301385
0.306301
0.317615
0.305279
0.356105
0.386411
0.297697
0.292542
0.312416
0.351332
0.363929
0.316359
0.292704
0.285926
0.284551
0.298439
0.314604
0.311621
0.30045
0.301856
0.320373
0.566553
0.318522
0.317439
0.329567
0.320433
0.310364
0.316086
0.339067
0.307957
0.318468
0.412836
0.287177
0.288582
0.311807
0.306108
0.320457
0.324203
0.302498
0.314398
0.329741
0.287911
0.283414
0.321393
0.798416
0.692909
0.290619
0.299465
0.292257
0.286311
0.311074
0.296623
0.512976
0.292445
0.458887
0.317626
0.320128
0.326823
0.3131
0.33198
0.315
0.312484
0.298066
0.278136
0.300614
0.29585
0.29029
0.292124
0.291602
0.290635
0.295107
0.28998
0.288045
0.462729
0.293944
0.626214
0.545195
0.369498
0.295615
0.302354
0.487024
0.290423
0.302927
0.286677
0.295727
0.289673
0.288877
0.327671
0.291533
0.558605
0.299762
0.352495
0.305166
0.345636
0.30687
0.351036
0.301824
0.349905
0.309093
0.290838
0.320671
0.288376
0.288411
0.296067
0.334584
0.343139
0.726954
0.300631
0.283407
0.323972
0.297134
0.349622
0.292316
0.283656
0.410828
0.290964
0.325004
0.544244
0.72635
0.333019
0.333298
0.350301
0.346635
0.357874
0.391204
0.327745
0.341276
0.288222
0.304627
0.343461
0.289052
0.298268
0.289482
0.355867
0.321072
0.701636
0.376405
0.730306
0.299415
0.521847
0.39038
0.53625
0.283661
0.286706
0.275475
0.726496
0.314615
0.290186
0.795342
0.307316
0.736756
0.7038
0.284643
0.288893
0.31251
0.302677
0.354982
0.384645
0.319135
0.312771
0.331879
0.358406
0.326986
0.329255
0.277657
0.304674
0.296913
0.293588
0.303552
0.305187
0.314956
0.311227
0.313232
0.290267
0.290553
0.287398
0.286311
0.286307
0.290229
0.285907
0.287124
0.301279
0.339041
0.290318
0.300608
0.284125
0.28604
0.28522
0.286816
0.311476
0.275107
0.284654
0.292191
0.286827
0.284259
0.288627
0.289213
0.289526
0.289115
0.285764
0.286045
0.288861
0.288923
0.29574
0.291786
0.292616
0.293879
0.302832
0.306404
0.303613
0.29675
0.304275
0.299699
0.30251
0.301886
0.427451
0.422713
0.304612
0.529886
0.311338
0.304096
0.390374
0.281322
0.314608
0.37415
0.471969
1.05023
0.298119
0.288503
0.299892
0.337773
0.288171
0.284453
0.301578
0.309222
0.286511
0.280894
0.27996
0.280684
0.280686
0.295458
0.29055
0.306637
0.276567
0.277244
0.294332
0.287343
0.296836
0.284005
0.287647
0.329236
0.296064
0.296625
0.279877
0.301342
0.314801
0.30652
0.39937
0.292674
0.322325
0.32096
0.360193
0.298574
0.326425
0.296056
0.326108
0.287235
0.285865
0.326704
0.28726
0.293134
0.307443
0.293398
0.296264
0.288364
0.287515
0.291421
0.294049
0.327005
0.423271
0.416713
0.341066
0.377625
0.4048
0.351603
0.332046
0.285866
0.402713
0.305056
0.438121
0.459316
0.297918
0.295507
0.330828
0.326919
0.298051
0.300946
0.292313
0.288035
0.285079
0.288418
0.33162
0.287275
0.299148
0.372583
0.294838
0.294082
0.30634
0.286893
0.285706
0.378702
0.316512
0.303589
0.299233
0.282753
0.307439
0.322662
0.303094
0.298944
0.297426
0.519713
0.375415
0.296421
0.29964
0.299249
0.297318
0.298722
0.497059
0.296649
0.521255
0.295389
0.809059
0.573785
0.284446
0.802703
0.77057
0.283078
0.677949
0.354291
0.285353
0.674727
0.402353
0.643525
0.640721
0.945053
0.336022
0.743956
0.683615
0.703168
0.308692
0.704752
0.299405
0.296597
0.360818
0.286365
0.358852
0.327666
0.30557
0.327092
0.505956
0.448516
0.280829
0.283087
0.443253
0.830362
0.576966
0.320181
0.286811
0.279024
0.291781
0.290116
0.324393
0.287513
0.289933
0.293506
0.291522
0.292837
0.292062
0.289405
0.857221
0.308399
0.350328
0.407171
0.386451
0.307905
0.295244
0.289054
0.301411
0.292639
0.287746
0.295381
0.291237
0.285933
0.363184
0.28868
0.291743
0.291568
0.280657
0.286877
0.29505
0.287594
0.329344
0.289671
0.298122
0.301044
0.297514
0.282276
0.309998
0.302116
0.318755
0.371908
0.319897
0.311847
0.442266
0.334324
0.313983
0.275848
0.310125
0.388245
0.309642
0.312437
0.306671
0.295221
0.29406
0.292254
0.286619
0.334037
0.286289
0.30382
0.297569
0.917616
0.2882
0.290954
0.285722
0.297292
0.298074
0.295627
0.314024
0.29022
0.299365
0.48702
0.285428
0.29386
0.299275
0.375519
0.314785
0.311304
0.907691
0.368802
0.324846
0.412421
0.320578
0.359798
0.346835
0.37674
0.300665
0.307391
0.288151
0.319768
0.8946
0.297909
0.310452
0.304967
0.315313
0.32687
0.318317
0.316329
0.323505
0.322183
0.288744
0.284899
0.284629
0.286728
0.315268
0.29371
0.297719
0.307807
0.311562
0.323588
0.312981
0.293363
0.293577
0.301388
0.292887
0.304115
0.303272
0.292549
0.289905
0.287981
0.288682
0.28989
0.288615
0.314539
0.322816
0.308848
0.319655
0.284495
0.300122
0.289012
0.291666
0.307192
0.288076
0.28095
1.14077
0.301141
0.63027
0.391678
0.320343
0.305642
0.290186
0.293974
0.321409
0.293254
0.282129
0.354754
0.896389
0.30994
0.454725
0.366091
0.301995
0.323852
0.425949
0.377498
0.563151
0.323248
0.785986
0.445947
0.713523
0.865449
0.375454
0.29728
0.277075
0.29643
0.307242
0.304794
0.309918
0.29193
0.310738
0.315953
0.403519
0.358939
0.273754
0.281762
0.499
0.304592
0.275003
0.314932
0.388705
0.309138
0.33498
0.377116
0.278549
0.281569
0.329729
0.278121
0.315044
0.289292
0.285877
0.307653
0.322535
0.278062
0.298264
0.305775
0.286569
0.285917
0.284347
0.307224
0.294917
0.355759
0.492063
0.318676
0.325665
0.832645
0.454667
1.15149
0.28804
0.323033
0.302324
0.291737
0.39364
0.426283
0.279767
0.311782
0.305354
0.31788
0.29799
0.313607
0.338205
0.373376
0.300243
0.299342
0.293802
0.279581
0.290436
0.346327
0.28697
0.305723
0.315916
0.286526
0.286167
0.293303
0.372693
0.342631
0.483371
0.322026
0.389862
0.462058
0.368371
0.331234
0.289792
0.288566
0.30495
0.292261
0.293515
0.294439
0.300073
0.339201
0.329812
0.700484
0.31749
0.288173
0.508691
0.328794
0.284883
0.34556
0.331203
0.319484
0.309343
0.600521
0.348227
0.334018
0.369919
0.370146
0.349581
0.280566
0.342882
0.375647
0.301643
0.312316
0.283635
0.329537
0.295283
0.314264
0.317699
0.29815
0.282865
0.312692
0.282086
0.337509
0.301063
0.360021
0.316852
0.444705
0.297835
0.29345
0.298497
0.352529
0.309119
0.312669
0.289062
0.290762
0.409775
0.397221
0.442608
0.380303
0.339124
0.379707
0.335145
0.334783
0.299512
0.313251
0.356637
0.307683
0.337265
0.311733
0.327723
0.288259
0.301379
0.286778
0.282757
0.282741
0.282249
0.28906
0.288988
0.302687
0.301006
0.276274
0.288307
0.283772
0.28405
0.341873
0.280397
0.303199
0.294384
0.293003
0.340747
0.288461
0.345178
0.341617
0.287246
0.287561
0.342584
0.288257
0.290366
0.290238
0.28899
0.312927
0.286627
0.297714
0.293448
0.299736
0.29441
0.298071
0.289048
0.311651
0.320224
0.294866
0.293291
0.302384
0.29598
0.313507
0.28661
0.278742
0.28627
0.301809
0.289134
0.286505
0.285371
0.287389
0.288505
0.290956
0.324812
0.302496
0.29229
0.290265
0.290565
0.302133
0.31097
0.293849
0.320988
0.369296
0.31047
0.294716
0.292995
0.303945
0.292943
0.299285
0.326281
0.337398
1.11461
0.298935
0.342897
0.777935
0.313844
0.302726
0.585745
0.537417
0.374518
0.326
0.318574
0.321082
0.285591
0.286382
0.300624
0.288111
0.310851
0.29056
0.325482
0.303383
0.343501
0.322095
0.375207
0.313575
0.365169
0.33769
0.323702
0.292287
0.294507
0.299217
0.619733
0.488165
0.504824
0.448309
0.509181
0.318035
0.290746
1.08526
0.284669
0.285742
0.283555
0.286537
0.284883
0.41241
0.35932
0.329466
0.300272
0.295894
0.309214
0.316183
0.323512
0.35774
0.336403
0.406864
0.289403
0.470028
0.531881
0.285945
0.30498
0.292898
0.487239
0.296788
0.321103
0.341297
0.308598
0.282052
0.29013
0.284752
0.354722
0.30296
0.300598
0.295723
0.29807
0.287188
0.287603
0.289752
0.288088
0.288821
0.315139
0.291454
0.292763
0.315208
0.293487
0.293352
0.308976
0.289336
0.37853
0.306535
0.293655
0.323092
0.281144
0.288021
0.287471
0.289908
0.293235
0.280014
0.340834
0.289424
0.301662
0.287246
0.303878
0.309481
0.323234
0.299612
0.312471
0.296527
0.290373
0.334582
0.310641
0.381097
0.296031
0.302045
0.285912
0.337554
0.27716
0.397119
0.733718
0.321235
0.726313
0.734809
0.692705
0.29183
0.29049
0.286875
0.931956
0.289467
0.285568
0.287678
0.283405
0.28467
0.336405
0.327579
0.317727
0.313837
0.321135
0.318176
0.311111
0.33679
0.513152
0.483612
0.3101
0.449721
0.336667
0.364568
0.360346
0.364739
0.321733
0.828175
0.93927
0.898393
0.59501
0.477192
0.919396
0.359986
0.343178
0.363962
0.7745
0.366155
0.858427
0.278097
0.277003
0.292848
0.290416
0.290448
0.304046
0.302638
0.299003
0.307638
0.328855
0.350364
0.311886
0.297183
0.30675
0.326595
0.32403
0.287086
0.288095
0.287826
0.290052
0.289709
0.289324
0.287593
0.368707
0.287583
0.287186
0.284339
0.287143
0.314618
0.379666
0.306134
0.328761
0.314224
0.308579
0.294043
0.32523
0.308998
0.290921
0.28176
0.305644
0.292207
0.308625
0.290829
0.290494
0.289349
0.296005
0.290069
0.286258
0.289713
0.278722
0.29558
0.307087
0.28631
0.290061
0.280696
0.282937
0.283323
0.296087
0.302981
0.279932
0.278813
0.287979
0.285814
0.335257
0.33177
0.285596
0.359098
0.556831
0.325599
0.309735
0.289245
0.281277
0.291335
0.308874
0.304616
0.328044
0.314913
0.289868
0.291178
0.30437
0.289278
0.305827
0.288556
0.289469
0.295412
0.290403
0.284784
0.286524
0.288357
0.296551
0.28708
0.297833
0.305579
0.291302
0.28779
0.324061
0.316017
0.306663
0.291338
0.283538
0.27942
0.288849
0.30195
0.291402
0.288366
0.298954
0.322936
0.283934
0.291315
0.316773
0.289038
0.299311
0.277112
0.296194
0.312151
0.29632
0.292741
0.302103
0.285153
0.292026
0.29039
0.360929
0.285136
0.30945
0.294389
0.342667
0.39109
0.304964
0.304705
0.285479
0.290429
0.286301
0.334548
0.303216
0.293109
0.302426
0.291857
0.288277
0.305589
0.324616
0.322656
0.289101
0.302862
0.294627
0.350181
0.323337
0.29164
0.325405
0.289668
0.289027
0.399821
0.291324
0.311987
0.292674
0.296082
0.291739
0.288379
0.278285
0.323738
0.349124
0.453912
0.688479
1.03899
0.287043
0.2912
0.29421
0.295705
0.288758
0.297541
0.359616
0.291485
0.371811
0.429175
0.401126
0.289971
0.281207
0.670858
0.752546
0.301198
0.729628
0.288222
0.285393
0.292019
0.900688
0.96922
0.872177
0.288844
0.290741
1.01197
0.846687
0.289869
0.289903
0.32179
0.361841
0.332075
0.291601
0.308765
0.30125
0.280271
0.296937
0.296681
0.716562
0.302096
0.341769
0.301812
0.28657
0.28801
0.289829
0.288075
0.287917
0.282629
0.338938
0.284575
0.331231
0.288173
0.290162
0.295202
0.290508
0.31292
0.298475
0.302921
0.306571
0.301983
0.379947
0.288803
0.343382
0.354101
0.347756
0.284917
0.28601
0.311929
0.839196
0.284316
0.378623
0.304339
0.277893
0.290888
0.303599
0.286335
0.284192
0.297208
0.302658
0.345144
0.29772
0.30279
0.294692
0.302816
0.335299
0.320564
0.298726
0.304729
0.292294
0.282006
0.284434
0.296766
0.515789
0.392005
0.315413
0.304725
0.295462
0.454129
0.298641
0.306969
0.30333
0.292633
0.301455
0.346833
0.303183
0.349307
0.37279
0.288839
0.306746
0.299085
0.349201
0.329942
0.303871
0.321216
0.604798
0.291095
0.349683
0.285456
0.305541
0.290272
0.280246
0.447857
0.385142
0.319933
0.315087
0.275555
0.33499
0.286127
0.291678
0.299969
0.297939
0.329316
0.283437
0.297374
0.458898
0.290738
0.319001
0.315497
0.279472
0.286628
0.281628
0.297839
0.308887
0.296846
0.298482
0.296332
0.307236
0.302925
0.314568
0.302545
0.282993
0.299893
0.297515
0.279834
0.62386
0.302093
0.299061
0.290763
0.290436
0.299971
0.620373
0.290586
0.607494
0.298019
0.298169
0.302075
0.345272
0.280714
0.390425
0.376352
0.293898
0.318639
0.359654
0.307439
0.294574
0.335896
0.287242
0.325415
0.288006
0.291455
0.307131
0.30489
0.31455
0.296469
0.298923
0.289503
0.28935
0.289077
0.291947
0.293325
0.298629
0.286417
0.288708
0.293728
0.30478
0.290814
0.289612
0.29495
0.291427
0.302728
0.321072
0.322122
0.398323
0.344476
0.327637
0.380983
0.287328
0.295061
0.371745
0.296411
0.299999
0.332439
0.287795
0.567226
0.284634
0.285902
0.277103
0.282248
0.467969
0.513833
0.44977
0.404682
0.282918
0.417005
0.287944
0.309154
0.40705
0.294495
0.513353
0.293509
0.301092
0.406521
0.286926
0.301115
0.293019
0.299429
0.304212
0.313942
0.292509
0.313902
0.293884
0.294504
0.289181
0.574178
0.314056
0.303885
0.288429
0.311158
0.289136
0.309803
0.291955
0.291581
0.288313
0.306722
0.507922
0.359352
0.34095
0.341903
0.693858
0.497886
0.304316
0.328918
0.33753
0.300889
0.348181
0.352585
0.293521
0.300236
0.309636
0.289096
0.290454
0.34763
0.294655
0.293319
0.299201
0.333303
0.329751
0.29992
0.352218
0.363177
0.384489
0.285962
0.290724
0.30225
0.300542
0.302481
0.306933
0.500973
0.69402
0.308419
0.339797
0.292046
0.338645
0.324818
0.326046
0.303571
0.467552
0.350879
0.397903
0.842715
0.347548
0.38028
0.708996
0.917668
0.523553
0.482152
0.374076
0.694936
0.291095
0.318013
0.289056
0.308798
0.289955
0.516975
0.301521
0.313982
0.323114
0.319089
0.315069
0.28596
0.298641
0.277458
0.299244
0.290329
0.35857
0.300781
0.620278
0.372622
0.630503
0.36852
0.324555
0.299341
0.39094
0.353099
0.84416
0.346125
0.385161
0.498456
0.789525
0.553978
0.606073
0.544363
0.34485
0.564831
0.309473
0.761353
0.451807
0.291055
0.296914
0.290629
0.296888
0.412799
0.299509
0.578725
0.317416
0.304203
0.297473
0.443463
0.383947
0.508453
0.392461
0.783456
0.697246
0.471839
0.378089
0.290727
0.33369
0.390422
0.332893
0.324006
0.305092
0.328614
0.342538
0.294987
0.392329
0.462198
0.401153
0.294767
0.373246
0.311868
0.3312
0.309115
0.332354
0.296345
0.288031
0.433174
0.62631
0.534589
0.380164
0.402663
0.538739
0.383205
0.511818
0.28461
0.28465
0.283967
0.292261
0.285506
0.308592
0.297925
0.314482
0.293996
0.291083
0.320099
0.283728
0.335332
0.349009
0.289118
0.295176
0.301197
0.289134
0.290486
0.28416
0.320735
0.285462
0.322461
0.306726
0.308424
0.30336
0.303407
0.285888
0.287645
0.308444
0.387854
0.326575
0.280583
0.282765
0.283653
0.352452
0.320147
0.351147
0.33484
0.38718
0.33042
0.290179
0.308817
0.296737
0.293999
0.288927
0.291834
0.301635
0.29136
0.296204
0.29766
0.305938
0.342639
0.280204
0.327879
0.289422
0.307177
0.358339
0.347788
0.28228
0.287412
0.314907
0.340348
0.29452
0.306432
0.285562
0.30872
0.305242
0.315613
0.285928
0.286415
0.286756
0.285618
0.286382
0.286994
0.316734
0.296629
0.317279
0.291545
0.284705
0.285584
0.294351
0.286191
0.285662
0.284837
0.276015
0.277507
0.280448
0.277003
0.326334
0.322084
0.285441
0.827312
0.704248
0.686488
0.669278
0.28969
0.307601
0.310405
0.290873
0.318802
0.309794
0.309032
0.292113
0.292384
0.323586
0.275645
0.281407
0.32305
0.302595
0.287911
0.283911
0.282853
0.288462
0.299927
0.287021
0.286586
0.302608
0.283692
0.28511
0.286138
0.286453
0.303039
0.288453
0.374519
0.285081
0.286934
0.295441
0.474377
0.393263
0.409842
0.705236
0.282661
0.366938
0.537265
0.783682
0.489004
0.490547
0.498905
0.893703
0.610697
0.703779
0.393872
0.339801
0.3061
0.292611
0.293515
0.871307
0.285713
0.284377
0.752751
0.285651
0.783974
0.298776
0.28663
0.289941
0.287816
0.284886
0.289018
0.28788
0.289453
0.287973
0.287572
0.288053
0.287853
0.287635
0.291926
0.286125
0.289709
0.287255
0.287534
0.286341
0.288691
0.31872
0.284385
0.300666
0.301804
0.306734
0.301078
0.293597
0.29949
0.287963
0.287753
0.342476
0.301402
0.290443
0.297468
0.286807
0.300057
0.287514
0.294485
0.311847
0.298344
0.283636
0.281983
0.291041
0.287844
0.289645
0.315001
0.297618
0.290108
0.287096
0.287042
0.288017
0.300669
0.300392
0.2975
0.302587
0.313319
0.309678
0.329904
0.318733
0.283797
0.291955
0.278759
0.28622
0.282153
0.292894
0.289268
0.323271
0.289028
0.287189
0.285032
0.699858
0.400977
0.285235
0.421093
0.287357
0.297988
0.288013
0.286335
0.294575
0.28638
0.286741
0.296632
0.291154
0.289639
0.289048
0.332635
0.314538
0.28138
0.303736
0.291817
0.289849
0.322612
0.322567
0.299215
0.425023
0.401347
0.429928
0.319767
0.297502
0.287066
0.72673
0.357191
0.321181
0.287447
0.282392
0.40346
0.390903
0.304592
0.786424
0.299352
0.288629
0.285168
0.286067
0.295933
0.287207
0.285998
0.287869
0.331264
0.844551
0.288679
0.69419
0.33997
0.302799
0.341578
0.364746
0.308534
0.335511
0.380036
0.330931
0.301383
1.06577
0.296901
0.289411
0.310502
0.296144
0.294359
0.279054
0.864529
0.658202
0.334921
0.526011
0.52064
0.73585
0.456791
0.320065
0.296253
0.686321
0.294942
0.301511
0.293068
0.286933
0.330234
0.319646
0.288791
0.285334
0.28692
0.289011
0.290717
0.28577
0.279471
0.284522
0.282721
0.296736
0.28144
0.303798
0.321287
0.291679
0.441569
0.358148
0.380072
0.293229
0.292605
0.297612
0.289653
0.288403
0.309784
0.290197
0.303218
0.322844
0.293364
0.288148
0.278833
0.305816
0.289072
0.40462
0.282627
0.299438
0.301819
0.281738
0.291314
0.290255
0.289732
0.28849
0.29462
0.776579
0.325238
0.285345
0.298411
0.289897
0.323279
0.297712
0.283869
0.285175
0.32024
0.315057
0.311652
0.348995
0.288453
0.288477
0.295297
0.375612
0.424394
0.615636
0.334189
0.324722
0.302375
0.306306
0.319381
0.330645
0.29151
0.288987
0.289602
0.473727
0.319139
0.314571
0.439397
0.314469
0.887912
0.777659
0.621787
0.3054
0.382501
0.349828
0.332506
0.315537
0.311865
0.32057
0.301514
0.30447
0.389964
0.342803
0.316932
0.40377
0.292238
0.315293
0.294262
0.310383
0.417214
0.754483
0.347312
0.314508
0.318355
0.358526
0.530546
0.33012
0.338095
0.388349
0.340886
0.300661
0.315785
0.568571
0.313875
0.316217
0.313397
0.29988
0.288476
0.318769
0.301173
0.313079
0.286904
0.420601
0.353928
0.3831
0.592254
0.396081
0.307685
0.317261
0.287045
0.284192
0.300706
0.285096
0.336868
0.287112
0.312096
0.275824
0.28733
0.330844
0.287349
0.29502
0.305376
0.287136
0.289131
0.285609
0.313498
0.345664
0.301833
0.295807
0.298993
0.298078
0.295386
0.294949
0.292173
0.311349
0.305773
0.300172
0.298908
0.327459
0.289935
0.285401
0.3067
0.288152
0.284756
0.309466
0.323105
0.285607
0.318303
0.293213
0.297337
0.290933
0.302675
0.285889
0.279165
0.278824
0.305269
0.301948
0.297098
0.306132
0.295235
0.317599
0.308683
0.295166
0.363182
0.287381
0.31128
0.309543
0.288226
0.349074
0.626782
0.306068
0.3427
0.29339
0.280697
0.279353
0.278849
0.296123
0.293483
0.327515
0.295454
0.294737
0.295408
0.307227
0.372108
1.16816
0.299965
0.287115
0.290639
0.288632
0.295257
0.297099
0.290231
0.289681
0.289736
0.297098
0.282936
0.283973
0.2874
0.288597
0.30959
0.318138
0.286857
0.302155
0.282253
0.284263
0.277486
0.283356
0.361828
0.307671
0.287446
0.279777
0.293021
0.288865
0.281247
0.329944
0.304229
0.292277
0.855605
0.315917
0.310455
0.875599
0.308007
0.334916
0.319594
0.531958
0.310694
0.30428
0.407484
0.410304
0.452841
0.329673
0.716047
0.380347
0.291733
0.286004
0.285118
0.289604
0.297616
0.480061
0.323868
0.318378
0.349784
0.341321
0.850057
0.349263
0.374995
0.321998
0.30209
0.58723
0.506946
0.467249
0.30076
0.84269
0.654293
0.541852
0.583917
0.502675
0.474831
0.316787
0.311241
0.322301
0.33121
0.302508
0.300633
0.297632
0.294801
0.59574
0.297691
0.348262
0.298913
0.294409
0.294927
0.316543
0.306572
0.301901
0.29151
0.316758
0.292286
0.280048
0.288463
0.291533
0.288545
0.292024
0.289498
0.296814
0.294329
0.295033
0.28787
0.30064
0.289392
0.283471
0.283471
0.299654
0.300135
0.316336
0.284085
0.383875
0.39672
0.297674
0.29564
0.297055
0.280705
0.286123
0.446235
0.278193
0.323946
0.366295
0.490229
0.720645
0.854547
0.63866
0.346137
0.315693
0.336142
0.286347
0.308104
0.290073
0.859762
0.525371
0.290146
0.297857
0.610775
0.29336
0.303041
0.311418
0.304208
0.302178
0.309068
0.318475
0.350289
0.334387
0.339574
0.35612
0.290792
0.285459
0.285772
0.28079
0.290589
0.291905
0.291253
0.29256
0.607265
0.29775
0.574304
0.316983
0.28715
0.300402
0.306768
0.308299
0.302792
0.288141
0.28754
0.288381
0.28763
0.285461
0.287262
0.289439
0.289857
0.289136
0.288852
0.289489
0.290138
0.290247
0.290305
0.276991
0.301383
0.29784
0.288009
0.340558
0.362128
0.377053
0.391486
0.288406
0.286323
0.364463
0.319314
0.301441
0.288102
0.286832
0.301528
0.303553
0.2902
0.284643
0.287328
0.285794
0.286414
0.287207
0.289634
0.291213
0.303487
0.299943
0.289108
0.28827
0.288642
0.313492
0.28759
0.301942
0.328635
0.285926
0.283661
0.27985
0.363851
0.284114
0.28456
0.311724
0.279392
0.277864
0.278804
0.278256
0.276498
0.321207
0.36497
0.282405
0.282684
0.282852
0.280884
0.280081
0.901808
0.710256
0.629276
0.745566
0.749619
0.27698
0.276634
0.278648
0.699277
0.280954
0.277698
0.293213
0.332917
0.291205