/*--------------------------------*- C++ -*----------------------------------*\
| =========                 |                                                 |
| \\      /  F ield         | OpenFOAM: The Open Source CFD Toolbox           |
|  \\    /   O peration     | Version:  2506                                  |
|   \\  /    A nd           | Website:  www.openfoam.com                      |
|    \\/     M anipulation  |                                                 |
\*---------------------------------------------------------------------------*/
FoamFile
{
    version     2.0;
    format      ascii;
    arch        "LSB;label=32;scalar=64";
    class       volScalarField;
    location    "0.0817324";
    object      nut;
}
// * * * * * * * * * * * * * * * * * * * * * * * * * * * * * * * * * * * * * //

dimensions      [0 2 -1 0 0 0 0];

internalField   nonuniform List<scalar> 
3972
(
0.00366688
0.0027696
0.00646681
0.00575743
0.000325313
0.00284435
0.00308383
0.00273759
0.00305118
0.00118376
0.00227547
0.00309405
0.00375251
0.00591028
0.0062591
0.00676078
0.00640062
0.00244076
0.0059953
0.00510031
0.000911955
0.00182127
0.00330097
0.00621143
0.000281521
0.00543506
0.00609631
0.00494336
0.00188196
0.00613929
0.001023
0.000526268
0.00628045
0.00131929
0.00636112
0.00618602
0.00210876
0.0049117
0.00494373
0.00220455
0.00453464
0.0070637
0.00195923
0.00305226
0.00493296
0.00542191
0.00526674
0.0022973
0.00297307
0.00497271
0.00488837
0.00342383
0.00216103
0.00393201
0.00147095
0.0051816
0.00287232
0.00286141
0.00280609
0.0019751
0.00339269
0.00299584
0.00558753
0.00294359
0.00523885
0.00221837
0.000966159
0.00295324
0.0023764
0.00272529
0.00279993
0.0027427
0.00182788
0.00650674
0.00145989
0.00664858
0.00168523
0.0031824
0.00474793
0.000769502
0.00165851
0.00460233
0.0068681
0.00440576
0.00326504
0.00419794
0.00496488
0.00160063
0.00349381
0.00360734
0.00103615
0.00224081
0.00139774
0.00114033
0.00534046
0.00603472
0.00658408
0.0054498
0.00458526
0.00631917
0.0064088
0.00667657
0.00519738
0.00593123
0.00318757
0.00368025
0.00230063
0.0059248
0.0017773
0.00618219
0.00154293
0.00664065
0.00682074
0.000845439
0.0023338
0.00461952
0.00627041
0.00298104
0.00305783
0.00130972
0.000709057
0.00293588
0.0034306
0.00421049
0.00522255
0.000587204
0.00287186
0.00114978
0.00102521
0.000914935
0.00125002
0.00170904
0.00111922
0.000608753
0.00360634
0.00356711
0.00290011
0.00302532
0.00284899
0.00388949
0.00119712
0.00669283
0.001639
0.00115115
0.00277659
0.00537053
0.00202549
0.0067172
0.00291871
0.00109273
0.00493343
0.00325218
0.00581571
0.00440834
0.00244574
0.0031224
0.00519439
0.00153412
0.00183457
0.000785029
0.00691665
0.00653771
0.00382527
0.0031381
0.00557074
0.00103927
0.00333329
0.00244198
0.0029989
0.00161972
0.00145446
0.00549232
0.00679281
0.00681555
0.00616049
0.00600999
0.00472441
0.00684278
0.00672541
0.00682176
0.004773
0.00314175
0.00369309
0.00197384
0.00650998
0.0065852
0.00607242
0.00529332
0.00625316
0.000164637
0.00631788
0.0064978
0.00108058
0.00654285
0.00570727
0.00629066
0.00663671
0.00405207
0.00320464
0.00499582
0.00606799
0.00348237
0.00236413
0.00480135
0.00648378
0.00418735
0.00608484
0.00210486
0.00290107
0.00346301
0.00258434
0.00427289
0.00129136
0.00127863
0.00594032
0.0041238
0.00187353
0.00431515
0.00264257
0.00431982
0.00599232
0.00120357
0.00334767
0.00576099
0.000681771
0.00571021
0.00024784
0.0020777
0.000342305
0.00103713
0.000309197
0.000935265
0.000721987
0.000661898
0.00325838
0.00545151
0.00313375
0.00623491
0.00172624
0.00184992
0.0018444
0.00116292
0.000740835
0.00156891
0.00229508
0.00636911
0.00331755
0.00637292
0.00695615
0.00223325
0.00553613
0.000232462
0.00104623
0.00235011
0.0067911
0.00245192
0.000603828
0.00137284
0.00625061
0.00310215
0.00133828
0.00284993
0.00389103
0.00695779
0.000618712
0.00154171
0.00671229
0.000870406
0.00200495
0.00659159
0.00293354
0.00142422
0.000731482
0.000934608
0.00110408
0.000795047
0.00465291
0.00274206
0.00690652
0.0067098
0.00347874
0.00126907
0.00591275
0.000604933
0.000428698
0.000281852
0.006309
0.00405771
0.00717443
0.00500407
0.00682478
0.0038267
0.00201807
0.0058052
0.0005818
0.000788395
0.00492153
0.00066853
0.00317962
0.000241475
0.00629225
0.00502324
0.00264422
0.00266355
0.00332791
0.00305224
0.00222677
0.00224244
0.00411871
0.00283919
0.00214898
0.00505779
0.000669907
0.003206
0.000661811
0.00524018
0.00628027
0.00660053
0.00408005
0.00472826
0.000706349
0.000324305
0.0027789
0.00665048
0.00690679
0.0027898
0.00581852
0.00533342
0.00719523
0.00271493
0.00503411
0.000744223
0.00127305
0.0067702
0.00669669
0.00278546
0.00584021
0.00157965
0.00643213
0.0026114
0.00113816
0.00672886
0.000968259
0.00634426
0.00520927
0.00661392
0.00299193
0.00220834
0.00533778
0.00316141
0.00559665
0.0027798
0.00417535
0.00474823
0.000357991
0.000773139
0.000543944
0.00418103
0.0033499
0.00616888
0.00651636
0.00674975
0.00686466
0.00160762
0.00568141
0.00611985
0.00384801
0.00422703
0.00451987
0.00566266
0.00683988
0.00553132
0.00616526
0.00691449
0.00331902
0.00496018
0.005338
0.00347121
0.00380353
0.00293253
0.00612395
0.00324099
0.0063279
0.00117626
0.00529752
0.00114754
0.0052766
0.000929757
0.00413666
0.00371713
0.00137087
0.00688902
0.00155682
0.00724844
0.0019155
0.00342285
0.000313472
0.000421495
0.00606978
0.00612835
0.00107309
0.00512826
0.00691825
0.00366956
0.00113936
0.00684618
0.00337139
0.00106717
0.0057688
0.00419159
0.00671632
0.00184325
0.00510929
0.00557687
0.00337461
0.000306597
0.00512957
0.00686278
0.00727125
0.00603236
0.00568277
0.002738
0.0058603
0.0062523
0.00424436
0.00639436
0.00255772
0.00692287
0.00124435
0.00423232
0.00682454
0.00367463
0.00371757
0.00568468
0.00581434
0.0021748
0.00227985
0.00342409
0.00574566
0.00391613
0.00583363
0.00313754
0.00570699
0.0052878
0.00629435
0.00731721
0.00377574
0.00597621
0.00432381
0.00568869
0.00631656
0.00181736
0.00198282
0.00179837
0.00619844
0.0031853
0.000494841
0.000427782
0.00121526
0.00282953
0.00116316
0.00145322
0.00557091
0.00233406
0.0020185
0.00120959
0.00672278
0.00501825
0.00655079
0.00336891
0.00344491
0.0032598
0.00176238
0.00200383
0.00607992
0.00102433
0.0019688
0.000699951
0.00423999
0.0031663
0.00248017
0.00193352
0.00236376
0.00226087
0.00243979
0.00592177
0.00507462
0.00209711
0.00486737
0.0046324
0.00352596
0.00380391
0.000703781
0.0016178
0.00119799
0.000741664
0.00209567
0.00438163
0.00311241
0.00466778
0.00464335
0.00192843
0.00587133
0.00216718
0.00347636
0.00153479
0.00496836
0.00592895
0.00521798
0.00320251
0.00176071
0.00362956
0.00182275
0.00146263
0.0033419
0.00369128
0.00595869
0.00657659
0.000579822
0.00061881
0.000648409
0.00162528
0.00338656
0.00159792
0.000409627
0.00645256
0.00334664
0.0010804
0.00141307
0.00647969
0.00161487
0.00137522
0.00695739
0.00162481
0.00169261
0.00292974
0.00443225
0.00460686
0.00489803
0.00431013
0.00459074
0.00241324
0.00222612
0.00258967
0.00613769
0.00647192
0.000778369
0.00268238
0.00442239
0.0062903
0.00667277
0.00663775
0.00271607
0.0021541
0.00652879
0.0065912
0.00670605
0.00214715
0.00601368
0.00632985
0.00427372
0.00361468
0.00615961
0.00178297
0.00690063
0.00202234
0.00202484
0.00111085
0.00405827
0.000355962
0.00590517
0.00692171
0.00041609
0.00534543
0.00588223
0.00650115
0.00425966
0.00407244
0.00452953
0.00577543
0.00692432
0.00695798
0.00467122
0.00392121
0.00574423
0.00548198
0.00690316
0.00681845
0.00668
0.00497437
0.00137104
0.00243131
0.000895462
0.00132427
0.000913512
0.0013766
0.005045
0.00477594
0.00697863
0.0064836
0.00501998
0.00318096
0.00500265
0.00445109
0.00037284
0.00063947
0.000483947
0.00409917
0.000222939
0.00555631
0.00685181
0.00643539
0.00184048
0.00587557
0.00269487
0.00357785
0.00404858
0.00631972
0.00606851
0.00632897
0.00590651
0.000569968
0.000579764
0.000987297
0.000556419
0.00540106
0.00286727
0.00665906
0.0066532
0.00622947
0.00495329
0.00662138
0.00507516
0.00288198
0.00298255
0.00120661
0.00183053
0.00678102
0.00685436
0.00678157
0.00682649
0.00123686
0.00144039
0.00548008
0.00640348
0.00103415
0.000957717
0.00120521
0.000830008
0.000604963
0.00116848
0.00258858
0.00120914
0.00113493
0.00228734
0.00312624
0.00494304
0.00371197
0.00221254
0.00099483
0.000602626
0.000526817
0.0065938
0.000580014
0.00479967
0.00289473
0.00306392
0.00406526
0.00211405
0.00262507
0.00584054
0.00668269
0.00664891
0.00669811
0.00607942
0.00662518
0.006608
0.00244885
0.00345944
0.00196853
0.00164818
0.0013386
0.00341059
0.00179081
0.00223735
0.00460919
0.00569547
0.00454742
0.00692793
0.00297272
0.00293884
0.00131821
0.00353808
0.00618349
0.0063502
0.0017267
0.00634678
0.00382186
0.00624629
0.00469915
0.00616542
0.00207025
0.00641974
0.00430048
0.00474263
0.00137353
0.00262605
0.00637539
0.00564989
0.00490025
0.00721181
0.00656553
0.00361785
0.00377654
0.00048473
0.00478103
0.00450447
0.00425016
0.00360128
0.00470929
0.00303783
0.00612411
0.00294704
0.00688691
0.00491396
0.00676533
0.00169847
0.00235378
0.00396906
0.0045727
0.00615171
0.00637607
0.0055523
0.00522648
0.00436515
0.00428226
0.00614235
0.00543553
0.00600572
0.00585515
0.00435319
0.00630675
0.00705648
0.00690733
0.00279961
0.00106222
0.00574976
0.0067691
0.00627383
0.00639082
0.00607771
0.00491061
0.0055821
0.00335305
0.000902786
0.0051715
0.00400949
0.00190222
0.000893966
0.00168751
0.000562902
0.00112357
0.00376069
0.00290149
0.00711759
0.0020412
0.00296844
0.0065124
0.00668841
0.00249539
0.00526317
0.00713704
0.00638532
0.00381517
0.00459668
0.00341316
0.00374976
0.0031921
0.00308378
0.0007265
0.00481869
0.00327792
0.00655852
0.00526496
0.00206991
0.00190782
0.00385658
0.00206977
0.00602085
0.00595721
0.00577233
0.00117611
0.0036677
0.00553534
0.00588389
0.00653775
0.00577579
0.000785867
0.00417551
0.00478653
0.00555997
0.00390981
0.00293618
0.00534061
0.0051485
0.00522193
0.00038708
0.0012751
0.00123247
0.0067508
0.00597996
0.00245569
0.00531018
0.00540188
0.00661945
0.00613015
0.006628
0.00675257
0.00581511
0.00174839
0.00538505
0.00527093
0.00634261
0.00601502
0.00213738
0.00657136
0.00357836
0.00148378
0.00257956
0.00342259
0.0036017
0.00333312
0.00626275
0.00659055
0.00577526
0.00256632
0.00192267
0.00606365
0.00242365
0.00102418
0.000942443
0.000197072
0.00651533
0.00660297
0.0060361
0.00602938
0.00426781
0.000127254
0.00449881
0.00223423
0.00193605
0.00112732
0.00242157
0.00489462
0.00294612
0.00373375
0.00624885
0.000555352
0.000744619
0.000262359
0.00695424
0.00674359
0.00616582
0.00422043
0.00244
0.00408223
0.00459413
0.00576948
0.00194905
0.00135731
0.00699522
0.00205741
0.00630833
0.000720494
0.000954476
0.00484577
0.000395383
0.00552872
0.00431302
0.00629189
0.00461454
0.00147083
0.0028248
0.00402088
0.00295261
0.0018888
0.000608248
0.00630298
0.00471452
0.00427378
0.00310989
0.00464999
0.00292179
0.00423311
0.00452118
0.00260608
0.000432732
0.00107503
0.000278916
0.00259036
0.00217732
0.00444926
0.00444306
0.00472478
0.00460251
0.0052055
0.00478158
0.0059366
0.00469187
0.00313296
0.00614161
0.0058895
0.00162548
0.00513458
0.00516426
0.00578233
0.00640776
0.0028114
0.0049414
0.0065382
0.00318501
0.00617175
0.00535221
0.00278419
0.00404918
0.0062237
0.0052115
0.00677423
0.00603549
0.000470585
0.00142734
0.00560382
0.00695325
0.00365737
0.00373324
0.00418506
0.00434579
0.00630206
0.00302353
0.00428237
0.00639032
0.00359135
0.00689724
0.00258868
0.00089916
0.000554863
0.000847199
0.00655605
0.00491903
0.00313215
0.00594214
0.00627089
0.00275026
0.00459593
0.00578127
0.002608
0.00298172
0.00125694
0.00194276
0.00312948
0.00130262
0.00343194
0.00536015
0.00398654
0.0032332
0.00675447
0.00170281
0.00307206
0.00730102
0.000498434
0.00210112
0.00101027
0.00465885
0.00210055
0.000243197
0.00157195
0.00123948
0.00638934
0.000343786
0.0049434
0.00669278
0.000617704
0.000901298
0.00411708
0.00586272
0.00455178
0.00173359
0.00222738
0.00399506
0.00693624
0.00413533
0.000294053
0.0014129
0.000215842
0.000343676
0.000657036
0.00183881
0.00022094
0.00319154
0.00136679
0.000346335
0.00446178
0.0060979
0.00160894
0.00297001
0.00162655
0.00401301
0.00346986
0.000343992
0.000254575
0.00372597
0.00568424
0.000800318
0.00128703
0.00476742
0.00645623
0.00681367
0.00122448
0.000907619
0.006479
0.000148316
0.000340176
0.000577249
0.000347825
0.005055
0.00147871
0.00411489
0.00375292
0.00366888
0.00296192
0.00279899
0.00299984
0.00582831
0.00714187
0.0068553
0.00587057
0.00333473
0.00654442
0.00446321
0.00351262
0.00538832
0.00317284
0.00690649
0.00412199
0.00724634
0.00456079
0.00711162
0.00674613
0.00252988
0.00330864
0.00476739
0.00458067
0.00732008
0.00383628
0.0061582
0.00667486
0.00655811
0.00489782
0.00726857
0.0066505
0.00318929
0.00376282
0.00535114
0.0072221
0.00272287
0.002469
0.00501324
0.00684693
0.00393685
0.00324723
0.00267381
0.00225005
0.00557742
0.00529336
0.00505083
0.00704717
0.0037614
0.00724576
0.00702426
0.00686436
0.00468579
0.00141162
0.00591127
0.00561481
0.00332748
0.00415491
0.00655425
0.0059854
0.00105243
0.00380305
0.00215674
0.00116532
0.00623861
0.0060158
0.00231861
0.0039822
0.0015301
0.00334446
0.00445139
0.00438448
0.00164703
0.00587145
0.00476186
0.00294756
0.000130378
0.000619387
0.00638459
0.00313047
0.00314829
0.00585861
0.00333378
0.00449282
0.00157033
0.00652346
0.000577129
0.00215139
0.00182889
0.00196718
0.00270121
0.00179105
0.00239284
0.00269847
0.00704383
0.00520883
0.00714388
0.00650938
0.0068449
0.00676533
0.00690489
0.006946
0.006944
0.00683738
0.0059039
0.000993013
0.00553965
0.000410724
0.000340291
0.00111382
0.0069795
0.00359053
0.000268853
0.00550588
0.00351845
0.00532955
0.00697306
0.00612686
0.0059166
0.00163725
0.00613078
0.000609362
0.00657383
0.00181122
0.00643835
0.00130462
0.0048828
0.00134529
0.00387871
0.00101687
0.00340976
0.00683864
0.00550044
0.00667728
0.00497606
0.00558083
0.00110496
0.00388738
0.000237207
0.00441793
0.00617056
0.00285434
0.0063157
0.00127362
0.00686118
0.0053817
0.000874432
0.00681596
0.00172586
0.000585503
0.000221562
0.00167482
0.00132348
0.00191851
0.00498011
0.00290388
0.00126714
0.0041968
0.00219015
0.00654265
0.00363227
0.00328878
0.00641608
0.00566025
0.00662321
0.00121114
0.00194484
0.000166715
0.00134366
0.000867578
0.00704418
0.00144662
0.00101163
0.00150396
0.00599456
0.00657446
0.00324649
0.000524077
0.00246881
0.00635607
0.000258648
0.00385186
0.000183834
0.000439817
0.00610273
0.0066327
0.0021794
0.00417709
0.0013502
0.000691944
0.00265185
0.0029214
0.00179547
0.00287335
0.00706201
0.00638313
0.00326867
0.0051029
0.0047527
0.0069549
0.00457427
0.00470077
0.00325502
0.0065071
0.00649921
0.00569968
0.00588778
0.00633207
0.00568613
0.0057525
0.00576106
0.00483851
0.0060282
0.00496748
0.00130165
0.00540292
0.00416817
0.00604786
0.00583921
0.00640985
0.00666668
0.00300387
0.00500059
0.00612417
0.00689094
0.00664782
0.00626454
0.006799
0.00684874
0.00684432
0.00684347
0.00634821
0.00645698
0.00682472
0.00684593
0.00483655
0.00683155
0.00596996
0.00675628
0.00339939
0.00298972
0.00416456
0.00348345
0.00321972
0.00356741
0.00288374
0.00315359
0.00156267
0.00240354
0.00716463
0.000624152
0.00246904
0.00430467
0.00231422
0.00501322
0.00711361
0.00114432
0.0020055
0.000849773
0.00634754
0.00633692
0.00354503
0.00270675
0.00596145
0.00599389
0.00573818
0.00470218
0.00488823
0.00509478
0.00514193
0.00539272
0.00545172
0.00313465
0.00328457
0.00304984
0.00475964
0.00493488
0.00501471
0.00669175
0.00461728
0.00612945
0.00665762
0.0044212
0.00468943
0.00671117
0.00334032
0.00701261
0.00684186
0.0041487
0.000409695
0.00654634
0.00461501
0.00368916
0.00270205
0.00503532
0.00317702
0.00493397
0.00462553
0.00658606
0.00532292
0.00281349
0.00612333
0.00437867
0.00400736
0.0059075
0.00687249
0.00665239
0.00621247
0.00687283
0.00687655
0.00153431
0.000514374
0.000683371
0.00127295
0.000997769
0.00103704
0.00330255
0.00357481
0.00619015
0.00120195
0.00520262
0.00067407
0.000633417
0.00388764
0.00539413
0.0032048
0.00386502
0.00577013
0.00576662
0.00584813
0.00672396
0.00594732
0.00608336
0.00402442
0.00548955
0.00563688
0.00293656
0.00681471
0.00668925
0.00445979
0.00593152
0.00643875
0.00248058
0.00353359
0.00360875
0.00307169
0.00571198
0.00309369
0.00341101
0.00329922
0.00491833
0.0050503
0.00177991
0.00268242
0.00699162
0.00357328
0.00623836
0.00701683
0.00596918
0.00158793
0.0065301
0.00206019
0.00590426
0.000404327
0.00148808
0.00632949
0.000196651
0.000157865
0.00575858
0.000780983
0.00133131
0.00645711
0.000784725
0.0014195
0.000356124
0.000374823
0.000282869
0.00235925
0.000512285
0.00062764
0.000205803
0.00488805
0.00054065
0.00432765
0.00324539
0.00313986
0.00520209
0.0044282
0.00376009
0.00342647
0.00248584
0.000378114
0.000593815
0.0032538
0.00423797
0.000639496
0.000337689
0.000364165
0.00412376
0.0053533
0.00515337
0.00589536
0.00571791
0.00323056
0.00664527
0.00637067
0.00651191
0.00680268
0.00693514
0.00488593
0.0061264
0.00031539
0.0035687
0.000980792
0.000832648
0.000974058
0.00310844
0.00454318
0.00524904
0.00573126
0.0053729
0.00675386
0.00381703
0.00665774
0.00600023
0.00356032
0.00495797
0.00695186
0.00681612
0.00469711
0.00630058
0.00415504
0.00661853
0.00322011
0.0063973
0.00497239
0.00394224
0.00653692
0.00546738
0.00478592
0.00588281
0.00192688
0.00097904
0.00218019
0.00192167
0.000682908
0.00157334
0.00462183
0.00495637
0.00721727
0.00143652
0.00446559
0.00541789
0.00712569
0.00421106
0.00404678
0.00552046
0.00425427
0.0040779
0.00662231
0.00629261
0.0070692
0.000188352
0.00618557
0.00665906
0.00603194
0.00522013
0.00394282
0.00481492
0.00221757
0.0068092
0.0039654
0.000933036
0.00638999
0.00476781
0.00658272
0.000801389
0.00201146
0.00232248
0.000790611
0.000698792
0.00166142
0.00176823
0.00249443
0.00178931
0.00125665
0.00109077
0.00685863
0.00235012
0.00654187
0.00451154
0.000140217
0.0061781
0.00270445
0.00250806
0.0028626
0.00267137
0.00399787
0.00395767
0.00400231
0.00275
0.00309788
0.0033023
0.00446844
0.00420573
0.00292344
0.00588322
0.0066978
0.00493604
0.00421318
0.00305603
0.00256273
0.00694523
0.00691057
0.00567575
0.005777
0.00372738
0.0037172
0.0067373
0.0056656
0.00575962
0.0053337
0.00526395
0.00587082
0.00347677
0.0039706
0.0046745
0.00459583
0.00637196
0.00415928
0.00581394
0.00593495
0.0040005
0.00637003
0.00544972
0.000755337
0.00445308
0.000329902
0.000611493
0.00185334
0.00521286
0.00603362
0.00552897
0.00431629
0.00666581
0.00515822
0.00343448
0.000453482
0.00284066
0.00206153
0.000913882
0.00325731
0.00349076
0.000683021
0.00086823
0.00066486
0.0020169
0.000266888
0.00062059
0.000845818
0.00074448
0.000693215
0.00707122
0.00368962
0.00612231
0.00380669
0.00390303
0.00298201
0.00603712
0.00276941
0.00297346
0.00138907
0.00139073
0.00479474
0.00560515
0.00222803
0.00353632
0.00475654
0.00265914
0.00103685
0.00319167
0.00169575
0.000915294
0.00520911
0.0045456
0.00281092
0.00411349
0.00339241
0.00676856
0.00602929
0.00267224
0.00328141
0.00523316
0.00326121
0.00607046
0.0064742
0.00634182
0.00345081
0.0029407
0.00699474
0.000310728
0.00133614
0.00717559
0.00381805
0.000231159
0.00233931
0.00104347
0.00665151
0.00288988
0.00304351
0.00644082
0.00240249
0.000784196
0.0048071
0.00453196
0.00422946
0.00646284
0.0043849
0.00284737
0.00144517
0.00151784
0.00324735
0.00670448
0.0069549
0.00555332
0.006158
0.0052927
0.00539352
0.00290766
0.00322152
0.00624314
0.00631308
0.00421494
0.000904992
0.00127895
0.000410877
0.00369241
0.00106502
0.000468478
0.000868083
0.00139123
0.00636693
0.00546757
0.00391574
0.00675758
0.00653069
0.004767
0.00371053
0.00176086
0.00125076
0.00114387
0.00273102
0.00665343
0.00147546
0.00193337
0.00493346
0.00240204
0.00249735
0.00319226
0.00329604
0.00145165
0.00323107
0.00193344
0.0032224
0.00307993
0.0031561
0.00324568
0.00248385
0.00306697
0.00711843
0.00487453
0.00561894
0.00648164
0.0067806
0.00711652
0.00444816
0.00629091
0.00398847
0.00241575
0.00524493
0.00238535
0.00714932
0.00471716
0.00643023
0.00204348
0.00660733
0.00693598
0.00668572
0.00223929
0.00380152
0.00336977
0.00440924
0.00566589
0.00165004
0.00183555
0.00240123
0.00230239
0.00122326
0.00338658
0.0042406
0.00449301
0.00409274
0.00188095
0.00107566
0.00468862
0.00236362
0.00399507
0.00308621
0.00664966
0.00697792
0.00587179
0.00547297
0.00591955
0.00585626
0.00610559
0.00669957
0.00395562
0.00703479
0.00309709
0.00312864
0.00433731
0.00444944
0.00114074
0.00439559
0.00531215
0.00697938
0.00623965
0.00367377
0.00424324
0.002849
0.00281089
0.00589295
0.00596803
0.0037031
0.00655635
0.00685325
0.00684051
0.00555353
0.00274332
0.00414873
0.00396697
0.00592853
0.00488223
0.00696619
0.00464001
0.00603876
0.00575581
0.00421265
0.0049648
0.00390356
0.00638173
0.00664686
0.00311434
0.00510129
0.00484943
0.00642932
0.0053703
0.00641665
0.00622956
0.00437037
0.00661028
0.00635519
0.0047423
0.00321682
0.00385583
0.00611706
0.00416862
0.00675994
0.00293124
0.00212571
0.00673881
0.00233537
0.00154398
0.00721426
0.00628308
0.00623162
0.00490047
0.00562123
0.00565164
0.00152382
0.00140653
0.000450989
0.00367517
0.00130851
0.00107605
0.00384943
0.00344227
0.000305229
0.000489837
0.00141454
0.00385955
0.00402048
0.00191685
0.0061633
0.00623287
0.00471329
0.00523567
0.00319674
0.00684882
0.00185551
0.00423213
0.00218693
0.00247618
0.00187981
0.00271141
0.00137919
0.0019297
0.00195216
0.00692134
0.00532699
0.00341178
0.00143534
0.00132613
0.00149772
0.00156514
0.0020615
0.0017083
0.00686459
0.000323535
0.00442306
0.00454562
0.00455542
0.00638527
0.00404474
0.000506341
0.000975403
0.00136186
0.0069511
0.00628598
0.00306295
0.00276639
0.0032146
0.00357741
0.00261303
0.00163072
0.00634729
0.00106645
0.000597933
0.00635527
0.00498367
0.00518719
0.00141364
0.00701707
0.00738488
0.00356526
0.00356501
0.00592764
0.00628512
0.0055398
0.00503648
0.00392646
0.00336917
0.00630323
0.00474403
0.00578819
0.00636658
0.00679964
0.00650247
0.00639233
0.00367009
0.004927
0.00501456
0.00293456
0.00695136
0.00663782
0.00355156
0.00412742
0.00290497
0.00318458
0.00426517
0.00219602
0.00501777
0.00356038
0.00603145
0.00504496
0.00572472
0.00497387
0.000969978
0.00673546
0.00644183
0.00662056
0.00464524
0.00362344
0.00277817
0.00402905
0.00286107
0.00547489
0.0059112
0.00290404
0.00495983
0.00239538
0.00392987
0.00348042
0.00605348
0.00574987
0.00473667
0.000824749
0.000770862
0.00205045
0.00015386
0.000681275
0.000631467
0.00679518
0.00654528
0.00646572
0.000767792
0.00677499
0.00629409
0.00481058
0.00574169
0.00633228
0.00153001
0.00214317
0.00300683
0.00228877
0.00212886
0.00156998
0.00236364
0.00109447
0.000419472
0.000399151
0.00231251
0.000819341
0.00173971
0.000944818
0.00117899
0.00105027
0.00155168
0.000263774
0.000762393
0.000235534
0.000471466
0.000628804
0.00026321
0.000978669
0.00114239
0.000926394
0.000182305
0.000869046
0.000200692
0.00467238
0.00434786
0.00691185
0.00682098
0.00680368
0.00511908
0.00509512
0.00577653
0.00326702
0.00225194
0.00163525
0.00345666
0.00691814
0.00309903
0.00206517
0.00174132
0.00670306
0.00666822
0.00661697
0.0067549
0.00513251
0.00684659
0.00671826
0.00298902
0.00673207
0.00669713
0.00634465
0.0067663
0.00213676
0.00101371
0.00352027
0.00436536
0.00299149
0.00526687
0.00688104
0.00271695
0.00415976
0.00546619
0.00553916
0.00324259
0.00663172
0.00515288
0.00646835
0.00581275
0.00666899
0.00514954
0.00653288
0.00503062
0.00464184
0.0053415
0.00309522
0.00710376
0.00574953
0.00657654
0.00332904
0.00416609
0.00570297
0.00696972
0.00691356
0.00547652
0.00531455
0.00540772
0.00492946
0.00211627
0.0038416
0.00459989
0.0010155
0.000931368
0.00144826
0.00239447
0.00682099
0.00533341
0.00630688
0.00382913
0.00530997
0.00149089
0.00543016
0.00682217
0.00688951
0.00389145
0.00641911
0.00220765
0.00568576
0.00507672
0.00668755
0.00672907
0.0062526
0.0054613
0.00667793
0.00439444
0.00664196
0.00295957
0.00386593
0.00592992
0.00659263
0.00452748
0.00476024
0.00638581
0.00687041
0.0053365
0.00516616
0.00682676
0.00398216
0.00421411
0.0042355
0.00383661
0.00295754
0.00367853
0.00683889
0.00264122
0.00661953
0.00489124
0.00335918
0.00638549
0.00251634
0.0064504
0.00692515
0.00704617
0.00621621
0.00687237
0.00581008
0.00270478
0.00514302
0.00573158
0.00698304
0.00198255
0.00122001
0.0071796
0.00274447
0.00483565
0.0067294
0.00587406
0.00376611
0.00317141
0.006132
0.00517125
0.0068841
0.00637753
0.00437886
0.00169132
0.00371285
0.00555832
0.00520845
0.00520754
0.00143338
0.00158877
0.00685661
0.00178487
0.00682153
0.00680083
0.000689357
0.00630825
0.00722655
0.0057185
0.00701205
0.00674048
0.00596231
0.00372384
0.0021684
0.000900863
0.000683639
0.00029472
0.000845192
0.00603586
0.00685507
0.00675745
0.00494275
0.00582668
0.00358229
0.00152329
0.00566264
0.000944623
0.000551651
0.000616831
0.00677181
0.00480583
0.000309091
0.000669201
0.00454796
0.000574746
0.00485523
0.00497024
0.00606553
0.000302226
0.000359657
0.000628166
0.00683245
0.00572872
0.00040724
0.000623156
0.00687785
0.00682183
0.00265684
0.00209244
0.00155359
0.00611769
0.0030516
0.00463859
0.00497046
0.00415965
0.00452101
0.000610402
0.00707023
0.00212235
0.00296006
0.0058963
0.00656391
0.00646934
0.00635672
0.00654544
0.00581478
0.00352286
0.00607264
0.00289646
0.00446618
0.00547583
0.00510588
0.00652051
0.00234313
0.00483548
0.00392832
0.00429791
0.00359712
0.000951602
0.00652158
0.00126771
0.00141119
0.0024418
0.00575626
0.00514341
0.00474849
0.000156829
0.00637067
0.000937536
0.00503813
0.00491078
0.00361383
0.004164
0.00663859
0.00557229
0.00469792
0.00546264
0.00240351
0.00482944
0.00373507
0.00475638
0.00428791
0.00143892
0.00294714
0.00388068
0.00347699
0.00688101
0.00596424
0.00636886
0.00579769
0.000952658
0.000844446
0.00419822
0.00494348
0.00406274
0.00138985
0.00397236
0.00404046
0.00392966
0.00606551
0.00345208
0.00180416
0.00329008
0.00134824
0.000911001
0.00587248
0.00382665
0.00525876
0.000971278
0.00228418
0.00398334
0.00296765
0.000941268
0.00542645
0.00201252
0.00492842
0.00719096
0.00662854
0.00492472
0.00227615
0.00156968
0.00672398
0.00692837
0.00471265
0.0070853
0.00572547
0.00512609
0.00708071
0.00692278
0.00383637
0.00568603
0.00512595
0.00206953
0.00525902
0.00356927
0.00662249
0.00535029
0.00629829
0.00576755
0.00671363
0.00708804
0.00687473
0.00709322
0.00702661
0.00668745
0.00626568
0.00732793
0.00709753
0.00574254
0.00687676
0.00693161
0.00351007
0.000335006
0.00638723
0.00663015
0.00523426
0.00636359
0.00695347
0.000380007
0.00540469
0.000591154
0.00694331
0.00679272
0.00442935
0.00497028
0.00493579
0.000982337
0.00110638
0.00419955
0.00422397
0.00212499
0.0072194
0.00654154
0.00334892
0.00434849
0.00288594
0.00597204
0.0042138
0.00328569
0.00357306
0.00306616
0.00368633
0.00701791
0.00632777
0.00623147
0.00644465
0.0067618
0.00672722
0.00710548
0.00524953
0.00659228
0.0069506
0.0028728
0.00665903
0.00653612
0.00699253
0.00653517
0.00370167
0.00201781
0.00442978
0.00262356
0.00488095
0.00315135
0.00227092
0.0062348
0.00696533
0.0022441
0.0043682
0.00468429
0.00243858
0.00598088
0.00143843
0.00520038
0.00518247
0.0049285
0.00581781
0.00183533
0.000449272
0.00251146
0.00326286
0.00534536
0.00242369
0.00570883
0.00308091
0.00114611
0.00538379
0.000449355
0.00606158
0.00508304
0.000882288
0.00527158
0.0034829
0.00422625
0.00501602
0.00482091
0.00324181
0.00558734
0.00262357
0.00631052
0.00582202
0.0066341
0.00145141
0.00256862
0.00573844
0.00677889
0.00270113
0.0067956
0.00290567
0.00585721
0.00686792
0.00568214
0.00434985
0.000790628
0.000923575
0.00226932
0.001255
0.000177193
0.00113189
0.00348803
0.00386555
0.00237239
0.00638835
0.00203014
0.00147983
0.00574273
0.00471245
0.00232475
0.00534379
0.00527752
0.00188235
0.00424436
0.00597845
0.00464748
0.00137864
0.00121973
0.00353813
0.000825665
0.000776806
0.000863256
0.0063339
0.0066609
0.00353949
0.00360726
0.00482574
0.00308694
0.000725636
0.000111425
0.00279255
0.00210931
0.00694377
0.000896428
0.00233113
0.00147738
0.00397796
0.000545801
0.00152004
0.00119339
0.000213281
0.00179379
0.00104448
0.000697291
0.000174561
0.000319098
0.000495388
0.00119896
0.000796855
0.00678981
0.00424425
0.0067957
0.00405332
0.00662061
0.00054731
0.0043746
0.00282447
0.00229566
0.00246605
0.00222139
0.00633484
0.00701788
0.00471532
0.0070759
0.00679799
0.00244828
0.00595556
0.00113978
0.000814845
0.00113774
0.00104495
0.00218343
0.00560625
0.00166302
0.00171712
0.000142821
0.00215968
0.00135662
0.000776948
0.000619799
0.000525798
0.000921226
0.001482
0.00164496
0.000663178
0.00396327
0.000316405
0.000481855
0.0046654
0.00481042
0.00530173
0.00465689
0.000460109
0.00579354
0.000414101
0.00326316
0.00422421
0.00526075
0.00258773
0.00116127
0.0010303
0.00205948
0.000239216
0.00114009
0.000637607
0.000589093
0.00564769
0.00120601
0.000558619
0.00131889
0.00193982
0.0023333
0.00167203
0.00172995
0.0053033
0.000740756
0.000706723
0.000988052
0.00436678
0.00126581
0.00324063
0.00171226
0.00347273
0.00126052
0.00504537
0.00545686
0.00214482
0.00117797
0.000435316
0.000842813
0.000738495
0.000402522
0.000825121
0.000701715
0.00629789
0.00502498
0.0063219
0.00302017
0.00315216
0.00287866
0.00583242
0.00228526
0.00642722
0.0057684
0.00452402
0.00562359
0.00394634
0.00264043
0.00677018
0.00476813
0.00696598
0.00554073
0.00585136
0.00424657
0.00242663
0.00388162
0.00277221
0.00242283
0.00265447
0.00307184
0.00405501
0.00490018
0.00646745
0.00726496
0.00135236
0.0055508
0.00524738
0.00575682
0.00566731
0.00259176
0.0028871
0.00385887
0.00282496
0.00248048
0.00269242
0.00359978
0.00451802
0.00674798
0.00673652
0.00543294
0.00533769
0.00403927
0.00625417
0.00665692
0.00397489
0.00489303
0.00294594
0.00496339
0.00320705
0.00411125
0.00391586
0.00294504
0.00304722
0.00545682
0.00582562
0.00418497
0.00357933
0.00397168
0.00426146
0.00462848
0.00528101
0.00400928
0.00454684
0.00644097
0.00544693
0.00583338
0.00605065
0.0063503
0.00463886
0.00374289
0.00461394
0.00345587
0.0067161
0.00530405
0.00436117
0.00460381
0.00491413
0.00503785
0.00320349
0.00479049
0.00490655
0.00553346
0.00469722
0.00311144
0.00249725
0.00638235
0.000284831
0.000979491
0.000612753
0.000322161
0.00667292
0.00316882
0.00333606
0.00542607
0.00333553
0.00340848
0.00326701
0.00417637
0.00567696
0.00144888
0.00524557
0.00334355
0.00138301
0.00304584
0.00512713
0.00586754
0.00495538
0.00473073
0.00309138
0.00490089
0.00585407
0.00357455
0.00531669
0.00549928
0.00510514