/*--------------------------------*- C++ -*----------------------------------*\
| =========                 |                                                 |
| \\      /  F ield         | OpenFOAM: The Open Source CFD Toolbox           |
|  \\    /   O peration     | Version:  2506                                  |
|   \\  /    A nd           | Website:  www.openfoam.com                      |
|    \\/     M anipulation  |                                                 |
\*---------------------------------------------------------------------------*/
FoamFile
{
    version     2.0;
    format      ascii;
    arch        "LSB;label=32;scalar=64";
    class       volVectorField;
    location    "0.0817324";
    object      U;
}
// * * * * * * * * * * * * * * * * * * * * * * * * * * * * * * * * * * * * * //

dimensions      [0 1 -1 0 0 0 0];

internalField   nonuniform List<vector> 
3972
(
(10.0954 -0.216979 0.00265159)
(9.02165 -1.18938 -0.1013)
(10.8355 -0.38988 -0.0241372)
(11.0389 -0.188576 -0.0296861)
(1.78531 -4.13937 -5.94471)
(10.4087 -0.557352 0.0242482)
(11.1717 -0.0641712 -0.0623238)
(8.9513 -1.18194 -0.772332)
(9.43068 -0.992486 -0.674863)
(9.27693 -3.05594 -1.42622)
(10.3258 -1.47919 -0.99328)
(8.6771 -1.29795 -0.697005)
(12.0349 -0.135454 -0.317877)
(10.1866 -0.165759 -0.0216836)
(10.2037 -0.714453 0.0843485)
(10.0411 -0.639122 -0.0774325)
(10.426 -0.474804 -0.0949518)
(11.1866 -1.41395 -0.263107)
(10.3635 -0.444929 -0.0191031)
(10.513 -0.552006 -0.000318963)
(6.00973 -1.42759 -0.915308)
(12.5948 -0.533901 -0.322928)
(10.1637 -0.0939508 0.0320996)
(11.0661 0.13439 -0.025288)
(11.0538 -5.22428 -2.59586)
(9.26174 -1.00498 0.051755)
(10.2216 -0.584478 0.0520908)
(10.0641 -0.231981 -0.0256367)
(12.6945 -1.23675 -0.807542)
(9.63455 -0.413114 0.14586)
(11.1721 -1.26046 -0.530463)
(8.03596 -5.76058 -0.0396305)
(10.0088 -0.239936 -0.0278796)
(11.7479 -2.66865 -1.10331)
(9.59916 -0.538708 0.158377)
(10.1089 -0.969258 0.182112)
(11.9404 -0.999925 -0.604776)
(10.8832 -0.644145 0.0949818)
(9.71733 -1.07864 0.474522)
(12.0397 -1.12526 -0.770252)
(11.609 -0.745053 -0.58185)
(11.5189 -0.120556 -0.0332883)
(9.15543 -1.78447 0.0158288)
(12.6611 -0.921819 -0.514615)
(10.6181 -0.2128 0.00189105)
(10.2592 -0.557761 0.0432082)
(10.0035 -0.137142 0.00060399)
(12.7512 -1.39399 -1.16448)
(10.8325 -0.0031865 0.00659085)
(9.79592 -0.986332 -0.522465)
(11.2441 -0.229587 -0.0580171)
(10.17 -1.35282 0.47516)
(12.1171 -1.00447 -0.463256)
(10.1858 -0.0376327 0.0201112)
(10.4663 -2.59826 0.0511411)
(10.5893 -0.204004 -0.0316627)
(10.768 -0.0772492 0.0366686)
(9.49126 -1.37349 0.442174)
(10.1023 -0.0634699 -0.0336497)
(13.0015 -1.65463 -1.32952)
(10.2523 -0.055583 0.0217883)
(10.0207 -0.0175984 -0.00646667)
(9.91565 -0.197451 -0.01268)
(10.7584 -0.0310828 -0.0277416)
(11.1301 -0.485662 -0.173395)
(12.4812 -1.43162 -1.03766)
(11.441 -2.55492 -2.2559)
(10.1038 -0.281637 -0.0117733)
(11.6417 -1.54356 -0.675436)
(13.0183 -0.508149 -0.418657)
(10.8672 0.0175087 -0.0348125)
(11.2005 -1.6421 -0.332066)
(12.7656 -2.64682 -0.265497)
(10.1999 -0.993944 0.211065)
(12.1977 -1.46604 -0.376375)
(9.90207 -0.656701 -0.148434)
(10.5745 -1.73988 -1.34401)
(10.707 -0.0434178 0.00162657)
(10.6432 -0.754618 -0.359302)
(11.0468 -2.87963 -2.30638)
(10.6455 -1.95678 -1.53373)
(11.6418 -0.496077 -0.0924796)
(9.6984 -0.669312 -0.0933209)
(10.6817 -0.805976 -0.59237)
(9.50898 -1.67027 -0.400315)
(10.4088 -0.0811567 0.0183891)
(10.3535 -0.090891 -0.0161025)
(10.3261 -1.79334 -1.46429)
(10.1513 -0.0793143 -0.02172)
(10.2204 -0.0579108 -0.0128833)
(9.93928 -2.37546 -1.66564)
(11.2875 -1.82818 -0.35963)
(9.34871 -3.14016 -1.48812)
(10.2294 -1.53926 -1.50528)
(10.0107 -0.854193 -0.611347)
(10.3538 -1.08437 0.214101)
(10.127 -0.246182 -0.067669)
(11.3635 -0.408778 -0.0432061)
(10.6619 -0.148203 -0.0546954)
(10.0247 -0.250727 -0.0427498)
(9.93582 -0.911147 0.233079)
(10.9302 -0.551083 -0.119347)
(9.85779 -1.06538 0.370392)
(10.0921 -0.744255 -0.514849)
(10.77 -0.0286736 0.00524508)
(10.1181 -1.16806 -0.451408)
(8.6781 -1.75704 0.0673783)
(11.2115 -1.20495 0.0828202)
(12.5423 -1.08835 -0.726177)
(11.2616 -0.713134 0.00687392)
(8.97763 -2.63503 -0.601424)
(10.5515 -0.611301 -0.0903612)
(10.1113 -0.804151 -0.0961332)
(9.59781 -3.93742 -2.3717)
(10.4981 -1.53849 -1.07444)
(11.6057 -0.60666 -0.0251869)
(9.50515 -0.701465 0.501547)
(10.7429 -0.0194859 0.0111468)
(10.812 -0.00391085 0.00251712)
(10.2323 -2.16716 -1.27162)
(6.42597 -3.22956 -1.77163)
(10.5862 -0.0863485 0.0421002)
(10.0185 -0.270253 -0.0119745)
(10.5386 -0.10492 -0.00152789)
(9.97398 -0.271642 -0.037863)
(11.5322 -1.99276 -1.54225)
(9.97431 -0.207742 -0.00457136)
(12.0209 -2.52466 -2.02645)
(12.5934 -2.29376 -1.66045)
(10.6394 -3.68986 -2.66888)
(12.1027 -3.12299 -1.66576)
(9.0092 -2.42777 -0.530957)
(12.7023 -3.5238 -1.40266)
(11.8464 -4.58997 -2.50324)
(10.333 -0.0964583 -0.00159853)
(10.4141 -0.0841264 0.00245853)
(10.2036 -0.103596 -0.00391693)
(10.1861 -0.025148 -0.000637721)
(10.1325 -0.071323 -0.0123876)
(10.2129 -0.0763833 0.017247)
(10.8426 -2.28527 -1.40738)
(9.95381 -0.205985 -0.0102588)
(8.17367 -1.68111 0.614538)
(10.8367 -2.78256 -2.18863)
(10.717 -0.0712544 0.0216635)
(10.0045 -0.116456 -0.00378757)
(12.2925 -0.954519 -0.504247)
(10.1021 -0.181848 -0.0555673)
(9.96676 -0.226874 -0.000705442)
(10.449 -2.56984 -1.25629)
(10.0454 -0.223903 -0.0140279)
(9.88618 -1.5578 -0.721919)
(9.88065 -0.73508 -0.382098)
(10.538 -0.0958277 0.00834476)
(10.5686 -0.0648308 -0.0258951)
(10.0429 -1.16907 -0.731067)
(10.518 -0.204488 -0.0239739)
(11.1919 -2.04411 -1.50214)
(11.0048 -1.8816 -1.42063)
(11.7524 -2.1118 -2.30348)
(9.59652 -0.851838 -0.147021)
(9.45394 -0.91265 0.329903)
(11.5892 -0.787006 -0.232131)
(11.8845 -0.824928 -0.346776)
(9.37967 -0.970557 0.424344)
(8.9532 -1.99356 -2.19351)
(12.0034 -0.677987 -0.187097)
(12.3816 -1.57131 -0.648143)
(9.5478 -1.55096 -0.788186)
(11.8502 -1.35535 -0.596459)
(12.2202 -1.55463 -0.664692)
(10.785 -0.572494 -0.180314)
(9.96889 -0.343895 -0.0138788)
(9.89245 -0.515295 -0.0617735)
(10.7188 -0.611671 -0.182391)
(10.6369 -0.634718 -0.191168)
(10.2251 -0.328498 -0.0779663)
(9.89808 -0.428013 -0.0214043)
(9.95212 -0.544584 -0.0728646)
(9.92633 -0.395323 -0.0198093)
(10.0295 -0.0250195 0.0039547)
(10.0228 -0.020292 0.0158835)
(11.695 -0.665528 -0.154273)
(12.3826 -1.30583 -0.786747)
(9.91535 -0.791869 0.113766)
(10.0883 -0.362109 -0.0454014)
(10.1383 -0.334229 -0.0242301)
(10.215 -0.276008 -0.0512042)
(10.1473 -0.423284 -0.012059)
(7.88168 -0.790893 -0.361712)
(10.0445 -0.586286 -0.193758)
(10.1115 -0.518197 -0.108268)
(11.7041 -2.88995 -0.893479)
(10.0654 -0.431154 -0.0226302)
(10.9061 -0.870532 0.2235)
(10.0555 -0.542737 -0.160232)
(10.6318 -0.85717 -0.190645)
(10.4717 -0.192897 -0.0264488)
(12.7586 -0.423357 -0.341835)
(10.4306 -1.04378 0.353922)
(10.1863 -0.999388 0.411939)
(10.2365 -0.413179 -0.0697064)
(11.9054 -1.28647 -0.711368)
(10.5926 -0.173743 -0.0439354)
(9.75251 -0.347749 -0.0467956)
(10.7936 -0.170521 -0.0284847)
(9.69136 -0.372115 0.0903914)
(10.6946 -2.04642 -0.512268)
(12.5097 -0.438781 -0.351256)
(10.8589 -0.00175505 -0.000187365)
(10.8062 0.0118638 -0.0079321)
(10.8172 -0.550229 -0.11121)
(12.2667 -0.61101 -0.58499)
(12.0986 -1.09122 -1.01386)
(10.6138 -0.786352 -0.311249)
(10.6058 -0.247625 -0.0159556)
(12.5887 -1.52043 -0.929521)
(11.1883 -0.448037 -0.00534522)
(11.6688 -1.01266 -0.812075)
(10.4594 -0.771353 -0.480336)
(10.2526 -0.436382 -0.0303531)
(7.57372 -2.30233 -0.212548)
(11.5446 -1.1278 -0.504857)
(10.3119 -0.888218 0.23975)
(9.62678 -5.62569 -1.732)
(10.0183 -0.859121 0.386353)
(9.08954 -8.7445 -3.15243)
(12.9357 -1.06113 -1.05388)
(12.1998 -8.17017 -1.63809)
(12.2458 -2.01321 -2.15329)
(8.6227 -12.3622 -2.40044)
(10.3591 -0.9876 -0.46477)
(6.42055 -4.0922 -2.09144)
(1.1796 -5.5891 -2.66267)
(10.6837 -1.33985 -0.725599)
(11.1294 -0.703413 -0.300364)
(11.5279 -0.769012 -0.406692)
(9.77491 -0.916399 0.00796794)
(9.30905 -2.02936 -2.15036)
(10.2758 -1.37113 -1.58652)
(9.31089 -1.68506 -0.801662)
(11.2911 -1.08124 -0.198115)
(5.73824 -3.45331 -1.24609)
(8.39626 -1.45237 -0.419173)
(11.3293 -1.84454 0.0941394)
(10.6405 -0.379044 -0.0929379)
(9.99193 -1.46672 -0.13696)
(10.8034 -0.394845 -0.0878001)
(11.665 -0.519674 -0.0621274)
(11.0219 -0.66221 -0.109545)
(11.038 -0.88787 -0.269274)
(5.78251 -3.63139 -7.22179)
(10.4635 -2.62169 -2.13257)
(10.5496 -0.0348755 0.00308797)
(10.9992 -0.380351 -0.0647721)
(11.4685 -0.90147 -0.561919)
(6.09909 -3.24731 -3.21729)
(6.42722 -3.25227 -0.712719)
(11.0544 0.144522 -0.046311)
(10.7491 0.0210291 -0.0361618)
(12.4422 -3.43541 -1.20337)
(10.8311 0.0189491 -0.034728)
(10.133 -0.01439 -0.00104643)
(11.1942 0.152277 -0.0148445)
(10.5833 -2.58367 -3.27663)
(11.0049 -1.90838 -0.760722)
(10.7872 -0.482943 -0.0365592)
(8.55369 -2.16617 -1.86602)
(8.77801 -2.11854 0.0758335)
(11.3216 0.145262 -0.167397)
(9.98707 -2.00537 0.122012)
(12.203 -1.70406 -1.22249)
(3.20275 -4.55852 -3.54218)
(12.2111 -3.44934 -1.08089)
(11.4828 -2.33395 -1.4655)
(8.24872 -4.89609 -0.272191)
(11.8487 -0.359437 -0.22138)
(10.7145 0.00402147 -0.00900991)
(10.9482 -0.55041 -0.02521)
(9.95415 -0.511207 -0.0618926)
(10.2565 -0.284746 -0.0267806)
(12.4939 -3.01577 -0.650905)
(10.5232 -0.92874 -0.227588)
(4.50296 -4.94108 -0.122037)
(3.22706 -1.41912 -0.0890873)
(6.45352 -6.61318 -4.17259)
(11.3505 -0.271183 -0.106385)
(10.9035 -0.07718 -0.0164009)
(11.5094 -0.257489 -0.078048)
(10.0517 -0.239043 -0.0297306)
(11.0365 -0.467463 -0.0953861)
(8.93411 -1.11806 -0.612688)
(10.5535 -1.41004 -1.68448)
(11.0322 -0.244561 -0.0714605)
(8.69235 -5.53116 -1.402)
(10.0079 -3.27974 -0.835613)
(11.3798 -0.810246 -0.748972)
(9.49717 -4.83981 -2.68874)
(9.42915 -1.2316 0.393526)
(4.9551 -6.48131 -2.0579)
(10.2783 -0.400288 -0.0506568)
(10.6525 -0.889845 -0.758332)
(11.2062 -1.53571 -1.5693)
(12.1023 -0.0911164 -0.182359)
(11.1529 -0.163273 -0.0136794)
(11.1968 -0.296969 -0.0500058)
(8.7867 -2.15926 -0.617535)
(10.6219 -1.91408 -0.8863)
(10.9712 -0.0234756 -0.0183165)
(10.6967 -1.74754 -0.940169)
(10.6633 -1.73961 -0.61642)
(11.0068 0.0352161 -0.0718044)
(9.05507 -2.99455 -3.32096)
(11.2668 -0.304016 -0.0688074)
(5.58639 -0.422062 -2.67722)
(9.83286 -0.906363 -0.595221)
(11.3494 -0.366675 -0.119916)
(11.1457 0.178033 -0.10402)
(11.4878 -0.48535 -0.15202)
(10.9636 -1.07221 -0.22553)
(12.6087 -3.25456 -2.64103)
(2.33419 -6.79754 -3.34022)
(11.8913 -1.08474 -0.539884)
(10.0516 -0.879569 -0.195498)
(9.98283 -0.982283 -0.19941)
(10.8929 -0.00216078 -0.0288077)
(10.24 -0.706422 -0.344989)
(9.59896 -0.95104 0.238383)
(11.3022 -0.0555401 -0.0856122)
(10.6443 -0.0397909 -0.0242404)
(11.0372 0.0784011 -0.030144)
(10.2848 -5.31349 -0.855276)
(10.4919 -1.66207 -1.71769)
(10.5926 -0.713446 -0.0245076)
(9.90285 -0.810054 -0.205871)
(10.188 -0.114227 -0.0152204)
(11.1687 -0.158771 -0.0583907)
(11.5964 -1.79715 -1.02598)
(9.62943 -0.646311 -0.31903)
(12.5145 -0.530532 -0.198174)
(10.8539 -3.03697 -0.824854)
(9.84232 -0.895004 -0.270227)
(10.6565 -2.99826 -3.28586)
(11.1722 0.11569 -0.119367)
(11.4066 -0.594284 -0.220246)
(10.0489 -0.81232 -0.212524)
(9.47592 -1.10998 -0.972605)
(9.26921 -1.34606 -0.530125)
(11.0791 -0.746345 -0.381146)
(11.7976 -1.15708 -0.576792)
(11.2026 -0.720976 -0.336661)
(10.787 -0.0329509 -0.0226977)
(10.7241 -0.175152 -0.0261989)
(10.6981 -0.213717 -0.0249943)
(3.17141 0.481446 -0.772948)
(8.56741 -3.82993 -2.34925)
(2.63719 -5.53871 -3.71474)
(10.6619 -0.305147 -0.0576557)
(9.92519 -1.35012 -0.182558)
(9.9509 -1.24717 -0.170003)
(9.83071 -1.08627 0.187637)
(10.066 -0.854292 0.0271881)
(11.2931 -0.1476 -0.0566296)
(12.6279 -1.36946 -0.885012)
(11.2416 0.0498165 0.015147)
(11.1998 0.0749019 0.00264076)
(11.055 0.15046 0.0152066)
(10.2296 -1.20915 0.195809)
(9.96262 -0.364574 0.0483475)
(10.0776 -0.502842 -0.130256)
(10.6085 -0.853265 0.020383)
(10.2322 -1.09333 0.0325526)
(10.1525 -0.382574 -0.0315092)
(10.5329 -1.00335 -0.0101836)
(11.2654 -0.41596 -0.0793659)
(11.1745 -0.0293566 -0.0449813)
(11.1507 0.0672573 -0.0977387)
(10.8295 -0.0166654 -0.031283)
(11.0318 0.0109415 -0.0302857)
(10.9408 -0.0128383 -0.0476774)
(10.8011 -0.709394 0.0734658)
(11.2098 -0.435711 -0.0860902)
(10.7902 -0.559478 0.0148431)
(11.6812 -2.25348 -1.65046)
(10.8302 -0.835399 -0.467717)
(11.3751 -2.55111 -1.8905)
(10.2541 -1.07703 -0.223293)
(8.02062 -2.72964 -0.593046)
(11.0092 -0.0180134 -0.0121164)
(11.0526 -1.1353 -0.686719)
(12.1974 -1.68847 -1.46291)
(11.349 0.0860622 0.0301287)
(12.5807 -0.546681 -0.505932)
(11.4343 -0.0691439 -0.0835289)
(13.0648 -1.35925 -1.01999)
(11.1858 -1.23256 -0.348882)
(0.626282 -1.26288 0.393257)
(8.45492 -3.61051 -2.91901)
(9.88909 -0.665607 -0.282621)
(10.2679 -0.649674 0.065676)
(9.36558 -2.53775 -1.32816)
(11.1199 -0.846085 -0.20103)
(9.73628 -0.661227 -0.0407419)
(11.2955 -0.996338 -0.686317)
(8.40236 -1.91534 -0.750315)
(9.83238 -0.274788 0.0160374)
(11.228 -0.193734 -0.0664352)
(11.0529 -5.59012 -1.32601)
(11.2237 -0.574713 0.0261336)
(11.3588 -1.18766 -0.289986)
(9.92335 -0.64483 0.0127292)
(11.817 -2.44118 -0.161674)
(11.8177 0.030807 -0.227173)
(11.7238 -0.227984 -0.174957)
(10.2279 -0.0508419 0.010672)
(1.52262 -7.78869 -2.37462)
(10.3708 -0.76485 0.175013)
(11.3727 0.00763125 0.00562685)
(11.4019 0.0381244 -0.0528618)
(10.6699 -0.736301 0.104366)
(11.4709 -0.292258 -0.0783776)
(10.1622 -0.0928291 -0.0277075)
(9.6827 -1.11225 0.0592304)
(10.4614 -0.364606 -0.0653659)
(11.2473 -0.0126848 0.0116194)
(11.4318 -0.189549 -0.0680646)
(9.16089 -1.74596 0.393941)
(10.9735 -0.565395 -0.0314055)
(9.74993 -2.03333 -2.01981)
(10.4707 -0.0792778 0.00504998)
(11.3806 -0.029783 -0.00514611)
(11.1701 -0.0582769 0.0101541)
(9.98738 -0.255412 0.0107501)
(10.4706 -0.818283 -0.355293)
(10.2467 -0.58955 -0.222051)
(8.83407 -1.64196 0.0153443)
(10.5085 -1.45382 -0.0499469)
(10.8682 -0.0553129 -0.00364869)
(10.1718 -0.311082 -0.0319672)
(10.1425 -0.333149 0.000308909)
(10.6576 -0.875001 0.201436)
(10.7542 -0.329365 0.00434837)
(10.1054 -0.55994 -0.154641)
(10.9611 -0.739739 -0.37028)
(11.3265 -0.595424 0.00262745)
(11.5072 -0.0721403 -0.0724094)
(9.39698 -1.33971 0.720408)
(10.4915 -0.663459 -0.241138)
(11.1383 -0.0987589 0.00714406)
(9.91522 -0.767056 0.404858)
(10.3306 -1.15391 0.446448)
(11.0415 -2.33934 -0.151769)
(10.2619 -2.25589 0.0783307)
(11.1254 -2.06219 -0.371395)
(11.2755 -0.787039 -0.0247778)
(9.9814 -0.586603 0.166012)
(5.78922 -6.92406 -0.573417)
(9.22502 -6.10261 -1.35369)
(12.4185 -3.12551 -0.875414)
(11.7473 -1.33041 -0.385483)
(7.71784 -3.8106 -1.27539)
(10.4754 -2.4096 -0.74761)
(11.3145 -0.112452 -0.0530065)
(10.1004 -1.67697 0.353381)
(11.1533 -1.61949 -0.915263)
(11.8857 -2.22496 -0.530469)
(9.61994 -0.729118 0.109109)
(9.2401 -1.03402 -0.145259)
(10.5906 -0.415819 -0.0220846)
(9.22307 -1.29199 0.199304)
(10.8203 -0.021341 -0.0273126)
(10.4116 -1.52928 -0.238962)
(9.19117 -1.94615 -0.296668)
(10.5387 -1.74749 -0.929089)
(10.4625 -0.987025 -0.0320635)
(8.1036 -3.96696 -0.562636)
(12.7043 -1.16458 -0.605068)
(1.10195 -5.33083 -0.698724)
(11.8103 -0.834453 -0.236632)
(11.7168 -0.938172 -0.257171)
(12.4418 -0.247667 -0.307417)
(12.4205 -0.655446 -0.419339)
(12.9166 -0.795476 -0.513209)
(12.8302 -0.96014 -0.610206)
(12.9815 -0.921502 -0.688709)
(10.115 -0.25166 -0.0501043)
(10.1899 -0.218003 -0.00494408)
(12.6636 -1.41865 -0.671173)
(10.1407 -0.210145 0.00885009)
(10.2445 -0.70061 -0.450289)
(10.3669 -0.534052 -0.238011)
(10.4585 -0.575251 -0.172137)
(12.6269 -3.86278 -3.07531)
(11.9475 -1.42886 -0.706604)
(12.3426 -1.15829 -0.44509)
(10.783 -1.56228 -0.637471)
(12.6425 -1.05795 -0.733485)
(10.3774 -0.0933658 0.0102819)
(10.5059 -0.063164 -0.00560643)
(10.4768 -0.157173 -0.0100206)
(10.4026 -0.161228 -0.00429053)
(12.5802 -1.11291 -0.877325)
(11.0825 -0.187305 -0.0592868)
(11.716 -1.18332 -0.811818)
(11.7806 -0.789119 -0.44339)
(9.43584 -2.21939 -1.79637)
(10.3726 -1.18119 -0.270076)
(10.4569 -0.977628 -0.302628)
(10.3192 -1.19693 -0.512312)
(10.3852 -1.24706 -0.555397)
(12.4225 -2.43622 -0.715208)
(10.4661 -0.0988723 0.00563502)
(12.79 -2.00632 -0.619793)
(12.3512 -0.603089 -0.481251)
(9.36477 -1.59408 0.338846)
(9.52864 -1.27095 0.687075)
(10.1101 -0.861897 0.259618)
(11.3 -0.167603 -0.0793737)
(10.4234 -4.03175 -2.42405)
(11.1796 -3.26225 -1.69888)
(10.2592 -3.29232 -1.39568)
(10.7361 -1.61741 -1.8188)
(11.0547 -0.189387 -0.00509959)
(11.0114 -1.54051 -1.30432)
(8.49437 -3.60108 -4.85527)
(11.353 -0.162452 -0.099275)
(9.45557 -1.60216 0.192037)
(10.084 -2.01192 -2.14062)
(12.515 -1.69841 -1.38366)
(10.0975 -0.853478 0.114225)
(12.3454 -1.53996 -1.15071)
(12.7766 -1.40979 -1.23597)
(11.2125 -0.787872 -0.150171)
(11.9232 -1.38413 -1.06623)
(12.1596 -1.52778 -1.4484)
(9.27642 -1.71467 0.327115)
(10.7697 -0.884461 -0.686968)
(11.0972 -0.751979 -0.429317)
(11.1748 -0.754401 -0.462873)
(11.1117 -0.668968 -0.331942)
(11.228 -0.700065 -0.371454)
(9.32488 -1.77872 0.1656)
(9.04248 -1.95473 0.0601493)
(9.99439 -0.373988 0.0134251)
(11.2602 -0.490079 -0.166998)
(11.1704 -0.567811 -0.166973)
(8.18384 -3.82007 -0.208919)
(9.48729 -1.51179 0.162777)
(10.097 -0.301277 0.000284896)
(10.3344 -0.782498 0.137721)
(11.1333 -0.707697 -0.213392)
(11.0676 -0.735637 -0.2122)
(9.95501 -1.79992 0.0883351)
(10.3618 -2.01816 -0.0329087)
(10.9756 -0.672336 -0.187498)
(10.4887 -0.694253 -0.154166)
(10.8537 -0.674475 -0.128966)
(12.0133 -1.26585 -0.115865)
(10.1622 -0.506775 0.0216897)
(10.805 -0.89709 -0.0429914)
(11.407 -1.14539 -0.212084)
(8.65774 -1.35627 0.535747)
(10.9537 -0.907378 -0.158547)
(12.842 -1.35119 -0.99538)
(10.8153 -0.929601 -0.110591)
(13.0228 -1.5536 -1.17735)
(12.8105 -1.57537 -1.40553)
(13.1848 -1.24187 -0.885882)
(11.1759 -0.715284 -0.417052)
(4.51229 -6.80139 -0.607061)
(9.47792 -1.0259 0.0889421)
(10.4034 -1.15429 0.224957)
(7.52863 -7.00874 -0.662226)
(11.242 -0.0669527 -0.0345975)
(11.7599 -0.709033 -0.16303)
(11.2706 -0.428232 -0.0224233)
(10.3583 -0.359504 0.0036911)
(11.3279 -0.595301 -0.223489)
(11.2343 -0.575304 -0.225052)
(10.1385 -1.07845 -0.0546127)
(11.1374 -0.520477 -0.107984)
(11.1849 -0.471809 -0.0956225)
(11.1159 -1.11849 -0.0275905)
(11.3273 -0.534529 -0.166757)
(11.5419 -0.318606 -0.0131701)
(11.4651 -0.21915 -0.00484368)
(10.6983 -0.771987 -0.0545148)
(10.6484 -0.688132 -0.0688912)
(10.7643 -0.701709 -0.150561)
(10.6524 -1.07703 -0.137871)
(8.10375 -2.38703 -0.218268)
(12.7179 -0.711444 -0.234192)
(10.8773 -0.844 -0.846389)
(13.0338 -2.39498 -2.08109)
(8.43624 -2.97592 -1.37536)
(12.6055 -2.06781 -1.81972)
(11.048 0.0846935 -0.00523056)
(11.0205 0.0402577 -0.0158003)
(10.9261 -0.871583 0.00639914)
(9.6052 -0.750431 0.308431)
(11.0367 0.0856647 -0.00689409)
(10.7668 0.0327109 -0.00904669)
(10.8074 0.0132724 0.00372624)
(10.9536 0.0500492 -0.00522739)
(6.0095 -5.84379 -3.089)
(6.96114 -4.02362 -1.94747)
(6.33227 -4.6114 -2.30413)
(10.1094 -1.19669 -1.11194)
(1.27617 -3.65806 -6.09567)
(11.2863 -0.192602 -0.0622532)
(11.3604 -0.610259 -0.035833)
(10.1558 -1.03862 -0.163915)
(11.2569 -2.47187 -0.179)
(10.4922 -0.357955 -0.0886226)
(10.5604 -0.226977 -0.0130794)
(10.5024 -0.247355 0.0107459)
(10.5684 -0.336539 -0.0353764)
(10.1189 -0.20408 -0.0540814)
(10.0996 -0.185859 -0.0274761)
(10.1243 -0.233045 -0.0659452)
(10.0894 -0.195035 -0.0428177)
(8.87233 -3.76457 -4.60992)
(9.24448 -3.07262 -3.92986)
(9.80787 -2.34737 -2.18454)
(9.8919 -2.73644 -2.82939)
(11.1767 -0.354219 -0.130145)
(10.9931 -0.470055 0.0162992)
(10.4661 -0.710728 -0.0345223)
(10.4222 -0.693355 -0.136617)
(10.122 -0.875845 -0.374723)
(9.32455 -0.834634 -0.411444)
(9.4498 -0.74076 -0.347704)
(10.005 -0.52966 -0.262877)
(11.8644 -1.46171 -0.0708375)
(12.4595 -0.899278 -0.535408)
(9.86557 -2.67433 -0.00180625)
(10.2855 -2.5378 0.0553257)
(9.9238 -0.672114 -0.0769998)
(9.86353 -0.848575 -0.109798)
(9.86457 -0.75069 -0.119566)
(9.8246 -0.844316 -0.144378)
(8.22787 -2.70168 -0.200901)
(8.60618 -2.48809 -0.0475883)
(9.88074 -1.02127 -0.486412)
(9.91351 -0.797975 -0.328837)
(10.9222 -3.91536 -0.201517)
(9.96575 -3.5447 -0.220652)
(11.5465 -1.29755 -0.995389)
(10.5742 -4.45601 -0.153585)
(11.2202 -3.96355 -0.748287)
(10.5055 -2.76962 -0.45408)
(11.8577 -0.797464 -0.190741)
(11.5325 -1.78512 -0.789388)
(10.9007 -2.33802 -0.807894)
(10.8222 -1.9594 -0.3634)
(11.0129 -1.6404 -0.496989)
(10.9032 -0.901729 -0.0467358)
(10.8405 -1.29393 -0.378355)
(10.6355 -1.93985 -0.302631)
(7.77244 -3.57297 -1.21039)
(6.67937 -4.03037 -0.802963)
(7.69638 -3.17316 -0.674892)
(10.533 -0.460791 -0.0341862)
(6.83153 -3.61594 -0.511998)
(10.832 -0.166032 -0.0315063)
(10.9986 -1.71219 -0.0309372)
(11.3352 -1.16465 -0.34189)
(11.1612 -1.11162 -0.150258)
(11.4769 -1.63054 -0.223541)
(11.4831 -1.28383 -0.316744)
(10.6347 -0.369312 -0.00961572)
(10.2085 -0.688096 -0.144888)
(10.2026 -0.744228 -0.188236)
(10.2909 -0.879983 -0.270596)
(10.1825 -0.933357 -0.241474)
(10.3829 -0.63716 -0.136517)
(10.3038 -0.747307 -0.207387)
(9.77785 -1.71072 -0.703238)
(10.6615 -0.46041 -0.0530021)
(9.76163 -1.77033 -0.844523)
(9.50893 -2.22541 -1.03654)
(9.15496 -2.4264 -0.630982)
(11.6413 -1.39404 -0.369066)
(11.523 -1.49331 -0.431317)
(10.8619 -1.70683 -0.542534)
(11.0105 -0.748688 -0.401392)
(9.93194 -0.167679 -0.00618404)
(10.8829 -0.702154 -0.36727)
(9.80706 -0.97204 -0.0774507)
(9.91377 -0.265651 -0.00262807)
(9.86718 -0.226659 -0.0385478)
(12.7193 -2.17565 -1.06257)
(9.87341 -0.188973 -0.026741)
(9.8492 -0.252936 -0.0455829)
(9.81262 -0.33593 -0.0257033)
(11.1336 -2.01423 -0.900567)
(9.5693 -0.572165 0.195655)
(10.5797 -0.110254 0.0100187)
(9.71513 -0.544733 0.116866)
(9.93525 -0.676064 0.357521)
(10.113 -0.0852744 0.0208913)
(11.1267 -0.502118 -0.0268606)
(9.84677 -0.67221 0.113277)
(10.371 -0.312005 -0.0222875)
(9.82084 -0.435693 0.0906652)
(11.6676 -2.18066 -1.43974)
(10.4285 -0.0236596 -0.00820858)
(9.68416 -0.47954 0.0850557)
(9.91087 -0.235177 -0.0244397)
(10.1026 -0.170356 0.0110712)
(11.4832 0.0710751 -0.188306)
(11.1495 -0.278555 -0.026122)
(10.9178 -0.661753 -0.406228)
(10.2562 -0.0464765 0.0318959)
(10.362 -0.868882 -0.177416)
(10.6464 -0.24446 -0.0553339)
(10.2103 -0.356098 -0.00563192)
(10.3171 -0.368428 -0.0107166)
(10.1998 -0.427407 0.00827753)
(10.5742 -0.218735 -0.0638502)
(10.0344 -0.0130953 -0.00937631)
(9.81765 -0.369449 0.0569903)
(10.7083 -0.46857 0.0453454)
(11.2568 0.134008 -0.102394)
(10.5638 -0.208794 0.000224057)
(10.1962 -0.783323 0.0362805)
(9.34926 -2.37908 0.0867531)
(10.6069 -0.061158 0.016646)
(10.925 -0.801869 -0.443732)
(11.1345 -0.751653 -0.572393)
(10.3341 -0.613226 -0.223516)
(10.2841 -0.761881 -0.232928)
(10.3498 -0.611904 -0.218237)
(10.3193 -0.58107 -0.205117)
(10.4963 -0.380268 -0.0700462)
(10.5441 -0.410582 -0.0902747)
(10.3703 -0.518393 -0.131089)
(10.5152 -0.507658 -0.142365)
(10.0984 -0.228834 -0.0565511)
(10.0285 -0.274715 -0.0555367)
(10.8511 -0.27987 0.00992671)
(11.1845 -0.0643606 -0.0222495)
(11.4484 0.0329565 0.0130321)
(11.2467 -0.0121222 -0.0463548)
(10.763 -0.0306226 0.00618404)
(9.09494 -2.05472 -2.32227)
(10.209 -0.248773 -0.0558522)
(10.8858 -0.474149 -0.0488957)
(10.1448 -0.125665 -0.0110589)
(11.2918 -0.68805 -0.26591)
(10.1691 -0.238835 -0.0550314)
(11.0779 -0.251336 -0.114926)
(10.1943 -0.206824 -0.0335173)
(9.16034 -2.15428 0.454809)
(8.84417 -2.91731 -1.2225)
(9.977 -0.135965 -0.010064)
(11.2735 -1.26863 -0.304979)
(12.0509 -1.67738 -0.364153)
(12.5732 -2.7289 -2.59706)
(12.5616 -2.85717 -0.911459)
(5.11936 -4.98041 -3.23001)
(11.507 -2.8497 -0.968122)
(9.28512 -1.30564 0.309179)
(8.98537 -1.33141 0.647801)
(11.2198 -0.539183 -0.0513832)
(9.92298 -2.00448 0.0945891)
(10.6567 -0.0851042 0.0154414)
(9.93322 -0.924501 0.191022)
(10.2422 -0.541743 -0.0539856)
(11.4806 -1.77493 0.0795637)
(11.0417 -0.0201039 -0.0393357)
(11.267 0.0734188 -0.0317429)
(9.77665 -0.433633 -0.111733)
(10.3981 -0.518852 -0.0953379)
(10.2771 -0.378843 -0.0717476)
(9.99977 -0.575399 0.18416)
(10.35 -0.0433055 0.0412819)
(10.8167 -0.323677 0.0201817)
(10.8707 0.0472293 -0.0396183)
(11.7775 -2.82357 -1.40226)
(10.9924 0.0819777 -0.0587763)
(10.7582 0.0244589 -0.0051408)
(11.2893 -0.219203 -0.0622545)
(11.6675 0.0242784 -0.0969123)
(12.3552 -1.29241 -0.336314)
(12.2127 -1.72118 -0.25354)
(10.3417 -0.0231022 0.008141)
(12.2387 -1.23558 -0.960187)
(10.2106 -0.952871 0.285797)
(10.8587 -0.919471 0.229956)
(9.88654 -0.688489 0.239532)
(12.5302 -2.95918 -1.14048)
(10.418 -0.403436 -0.00959416)
(9.99412 -0.713205 0.232726)
(10.6865 -0.373125 -0.00404293)
(10.6001 -1.02186 0.248762)
(10.5757 -0.342203 -0.0141858)
(12.2034 -2.22625 -1.79346)
(10.9959 -0.0454993 -0.0167417)
(11.0242 0.0197566 -0.0271785)
(10.0188 -0.770187 0.289312)
(10.9842 -0.0595743 -0.0368895)
(10.9177 -0.0239829 -0.0350928)
(10.0597 -0.663338 0.160267)
(9.84973 -0.608008 0.226498)
(10.0782 -0.363082 0.00777625)
(6.65758 -6.75044 0.0810106)
(10.763 -2.11192 -0.951735)
(11.9601 -6.17265 -0.556562)
(10.217 -0.471451 -0.0722019)
(9.64587 -0.885089 -0.671177)
(10.6491 0.00160472 -0.0206905)
(10.2301 -0.221477 -0.0464065)
(10.2362 -0.534732 0.0208132)
(9.77286 -0.695613 0.08855)
(9.55191 -0.738186 0.565397)
(9.92337 -0.60761 -0.117283)
(9.96262 -0.307507 0.00448398)
(10.1933 -0.390722 -0.0891969)
(8.4708 -1.89359 0.0523868)
(9.5815 -1.07866 0.372712)
(9.78281 -0.950549 0.598839)
(10.3875 -0.488101 -0.125136)
(10.0898 -0.906573 0.326033)
(12.5134 -1.3491 -1.22666)
(10.5436 -0.92374 -0.307847)
(11.3803 -1.04196 0.0253287)
(12.2774 -2.50385 -0.275423)
(11.9872 -1.42644 -0.0509336)
(9.51222 -1.39463 -1.34622)
(10.2243 -1.40003 0.0756342)
(11.1787 -0.109442 0.000449485)
(10.3128 -0.786161 0.110096)
(10.7918 -0.425695 -0.0373843)
(11.1468 0.125738 0.0108642)
(12.6573 -0.377038 -0.22585)
(12.0766 -0.712432 -0.324202)
(10.2715 -0.505126 -0.0466203)
(12.9378 -1.83744 -0.641411)
(11.7306 -3.88968 -0.83707)
(10.4332 -3.0228 -2.37429)
(1.52586 -6.70047 -0.184909)
(11.2628 -0.690252 0.0919475)
(11.1929 -0.798497 0.071015)
(10.4127 -0.492367 0.029207)
(10.5373 -1.06175 0.376952)
(10.8549 -0.137228 -0.0140475)
(0.255484 -9.15332 -3.58861)
(11.694 -0.358894 -0.12961)
(12.8807 -0.895999 -0.577007)
(12.824 -1.70503 -0.932722)
(12.1446 -2.22184 -2.46196)
(11.3968 -1.30989 -0.90295)
(11.2614 -0.166946 -0.0606092)
(8.90521 -1.43744 0.157152)
(9.9428 -0.317082 -0.0900399)
(10.1892 -0.277958 -0.0585815)
(11.7909 -4.48737 -1.94409)
(9.3268 -3.29563 -0.172843)
(1.42677 -5.90728 -5.40875)
(9.63879 -0.851966 0.0705248)
(9.67409 -0.821167 0.119402)
(10.167 -0.535832 0.0208791)
(9.79971 -1.5388 0.20013)
(9.33261 -2.38412 -0.233793)
(10.812 -0.61129 -0.234219)
(11.295 -1.20332 0.0749746)
(10.9415 -0.8947 -0.277379)
(10.3974 -1.47409 -0.764866)
(12.6825 -1.19191 -0.830061)
(11.5216 -0.186521 -0.0767712)
(11.3645 -1.52389 -0.878083)
(10.9454 -1.10466 -0.127806)
(10.6472 -3.58074 -0.123391)
(9.9312 -4.1156 -0.590634)
(10.7699 -0.194006 -0.00160442)
(6.16968 -7.21267 -1.60886)
(10.3231 -0.784092 -0.492569)
(10.3285 -0.150517 -0.0080617)
(10.1656 -0.161186 -0.00596518)
(10.1507 -0.0970964 0.00344114)
(10.247 -2.74395 -0.676967)
(10.3345 -0.0420254 0.0346187)
(10.336 -0.0861702 0.00643675)
(10.0871 0.00391396 0.00844842)
(12.6955 -1.59247 -1.13253)
(11.2521 -1.4874 -1.45532)
(9.89392 -0.371 -0.0577867)
(11.079 0.00547682 -0.0600737)
(10.9963 0.0621511 -0.0425193)
(11.0034 -0.140885 -0.0194975)
(10.0997 -0.0468779 0.00465724)
(10.7101 -0.0393058 -0.0100123)
(10.3018 -0.159338 0.015198)
(10.0783 -0.106519 0.00270351)
(12.9375 -1.25984 -0.42006)
(8.65156 -4.79577 -2.51746)
(11.391 -2.36668 -1.66067)
(1.50695 -4.23612 -4.79575)
(10.6751 -0.0734097 0.0207625)
(12.5613 -0.790802 -0.425109)
(11.0389 -0.0481238 -0.0274995)
(11.0643 -0.0486252 -0.0495392)
(11.0588 -0.0379722 -0.0363983)
(11.0734 -0.0265679 -0.0499744)
(11.1489 -0.31245 -0.014548)
(11.1004 -0.19289 -0.0164254)
(10.9826 -0.28199 -0.0134796)
(9.84648 -0.387933 0.0719653)
(10.9205 -0.374837 0.0246168)
(10.9851 -0.756975 0.0063609)
(11.118 -0.155079 -0.0428115)
(12.3609 -1.5742 -0.219106)
(9.93648 -0.170336 -0.0116894)
(10.1353 -0.964077 -0.349295)
(11.0081 -0.228227 -0.0252913)
(11.0547 -0.285406 -0.0161597)
(12.2798 -1.31064 -0.217139)
(10.1522 -1.02817 -0.439117)
(10.5743 -1.09192 0.0091302)
(9.91039 -0.529422 0.113437)
(9.9404 -0.30639 -0.0747671)
(9.92686 -0.315461 -0.0946447)
(8.70277 -1.27742 -0.404332)
(10.7498 -1.27206 -0.287916)
(9.91063 -0.418353 0.0310403)
(11.0493 -0.565648 -0.190679)
(10.6231 -0.825358 -0.251566)
(10.12 -0.712227 -0.276103)
(7.08836 -5.00315 -1.94343)
(10.7739 -1.75262 -2.29913)
(9.96532 -1.34017 -0.136484)
(9.71204 -0.73546 -0.0776782)
(10.1964 -0.484819 0.032001)
(10.0816 -0.430146 0.0114949)
(9.84859 -1.26089 -0.128331)
(8.81026 -1.52851 0.15469)
(9.83122 -0.858044 -0.533675)
(10.5592 -0.471887 -0.0257593)
(11.2164 -0.856742 -0.723978)
(9.82036 -0.376104 -0.041658)
(10.924 -1.1204 -0.668247)
(9.80565 -0.592365 -0.0127288)
(9.93846 -0.502885 0.0603958)
(10.13 -3.11823 -3.68815)
(6.63673 -4.57148 -0.87011)
(9.05104 -0.545099 0.210345)
(9.96952 -0.412253 -0.00869754)
(10.1145 -0.297733 -0.039405)
(10.4193 -0.0420878 0.0129297)
(10.8016 -0.433537 0.0139548)
(10.146 -0.951954 -0.453341)
(9.88566 -1.69137 0.0734218)
(11.3119 -0.683759 -0.351281)
(10.0227 -0.562703 -0.228763)
(11.5726 -1.1447 -0.270217)
(10.52 -0.0392808 0.0257816)
(9.82909 -2.16838 -1.45714)
(9.41013 -2.03266 -1.92893)
(10.1853 -0.368352 -0.023417)
(11.5464 -2.61896 -0.730713)
(11.2303 -0.248912 -0.0480732)
(9.67844 -0.811087 -0.523837)
(10.1942 -0.0305244 0.0211489)
(9.88247 -0.155378 0.00367844)
(10.6237 -0.618289 -0.0691043)
(11.0778 -2.17178 -1.02237)
(11.0473 -0.283776 -0.047113)
(11.4814 0.122692 -0.166873)
(7.56279 -3.91741 -4.17353)
(11.4545 -1.74785 -0.358943)
(11.4438 -1.20178 -0.35104)
(11.1932 -0.424854 -0.131338)
(10.508 -2.16496 -0.142031)
(4.87142 -9.68165 -1.39178)
(10.02 -1.98413 -0.900338)
(8.84419 -2.1928 0.162093)
(10.053 -0.429864 -0.0901591)
(9.20354 -7.97144 -5.15545)
(11.4366 -0.45372 -0.198428)
(10.0247 -0.168066 -0.000189665)
(4.78127 -4.23324 -3.79267)
(9.42605 -2.83569 -1.70273)
(11.5399 -0.934736 -0.298343)
(11.2112 -0.649419 -0.292795)
(10.5879 -0.749559 -0.311707)
(10.9275 -1.82313 -0.950329)