/*--------------------------------*- C++ -*----------------------------------*\
| =========                 |                                                 |
| \\      /  F ield         | OpenFOAM: The Open Source CFD Toolbox           |
|  \\    /   O peration     | Version:  2506                                  |
|   \\  /    A nd           | Website:  www.openfoam.com                      |
|    \\/     M anipulation  |                                                 |
\*---------------------------------------------------------------------------*/
FoamFile
{
    version     2.0;
    format      ascii;
    arch        "LSB;label=32;scalar=64";
    class       volScalarField;
    location    "0.0501868";
    object      k;
}
// * * * * * * * * * * * * * * * * * * * * * * * * * * * * * * * * * * * * * //

dimensions      [0 2 -2 0 0 0 0];

internalField   nonuniform List<scalar> 
3972
(
0.342969
0.34271
0.325174
0.31985
0.852296
0.360018
0.322647
0.350914
0.338566
0.398746
0.353745
0.357221
0.402438
0.31918
0.32016
0.323249
0.32527
0.360764
0.319197
0.319967
1.03836
0.545127
0.348509
0.325374
1.03496
0.334076
0.318863
0.333961
0.460072
0.322901
0.745251
0.525657
0.324747
0.432816
0.323215
0.325214
0.386803
0.318661
0.331442
0.395995
0.357524
0.353147
0.35263
0.462422
0.31527
0.318338
0.347857
0.492554
0.321834
0.333316
0.318678
0.338059
0.394862
0.336893
0.381106
0.317732
0.381051
0.341297
0.381434
0.544871
0.325192
0.368806
0.320216
0.343842
0.327736
0.442876
0.450442
0.373628
0.383688
0.521433
0.350158
0.365802
0.522717
0.32583
0.422276
0.325031
0.368751
0.333321
0.326215
0.43526
0.379173
0.357302
0.325591
0.330726
0.34548
0.369813
0.362706
0.371815
0.380598
0.364902
0.38399
0.375519
0.40359
0.364595
0.329307
0.330791
0.322404
0.326029
0.316846
0.324015
0.323747
0.331915
0.329227
0.325564
0.326397
0.336647
0.357187
0.348116
0.426632
0.342858
0.377416
0.327598
0.325341
0.450807
0.357768
0.358701
0.328106
0.393465
0.358428
0.374437
0.468181
0.377132
0.352088
0.366547
0.318352
0.72178
0.362247
0.705912
0.730904
0.907142
0.714505
0.372867
0.624241
0.614039
0.392702
0.373578
0.365733
0.364317
0.392854
0.328818
0.391528
0.326559
0.368553
0.422206
0.384981
0.341133
0.405336
0.323361
0.374455
0.391643
0.336579
0.346762
0.32687
0.372068
0.384855
0.339947
0.317602
0.393867
0.385203
0.454494
0.328221
0.330484
0.363905
0.377906
0.333017
0.392359
0.378665
0.433422
0.348773
0.403339
0.418208
0.328843
0.323835
0.324068
0.329531
0.328845
0.329032
0.324004
0.323336
0.32411
0.356636
0.365507
0.368693
0.426275
0.322214
0.322268
0.320986
0.32588
0.320248
0.874111
0.323202
0.323392
0.443385
0.32157
0.325139
0.323087
0.333265
0.330894
0.491384
0.326633
0.325833
0.346715
0.392231
0.316813
0.323809
0.32455
0.322467
0.370272
0.442138
0.366885
0.380374
0.328855
0.661545
0.674269
0.330223
0.332091
0.450308
0.31656
0.366698
0.328624
0.319381
0.401006
0.365209
0.321417
0.53725
0.32261
0.932261
0.495004
0.973652
0.472141
0.986212
0.766229
0.506136
0.736767
0.349693
0.337861
0.354414
0.326987
0.378449
0.355744
0.353378
0.702667
0.477365
0.360609
0.37621
0.325152
0.340808
0.326593
0.358355
0.331037
0.343002
0.782366
0.408399
0.385184
0.328849
0.356024
0.538065
0.466949
0.324767
0.381238
0.541321
0.362385
0.375544
0.334926
0.457968
0.377077
0.327201
0.393873
0.361749
0.341135
0.355142
0.431386
0.757957
0.508759
0.413172
0.468466
0.380941
0.37512
0.331675
0.323755
0.34989
0.520875
0.334559
0.638775
0.814442
0.780413
0.336671
0.322039
0.352572
0.332311
0.332988
0.347184
0.360618
0.322929
0.512153
0.412547
0.342553
0.537001
0.336641
0.726227
0.320961
0.332024
0.377949
0.407217
0.330473
0.324651
0.365881
0.368728
0.315131
0.364873
0.361411
0.314029
0.449893
0.31891
1.0603
0.332176
0.337312
0.33046
0.324246
0.34618
0.684033
0.977837
0.383944
0.327142
0.328515
0.332141
0.324695
0.328885
0.340372
0.387481
0.31589
0.535314
0.371603
0.327956
0.326692
0.384474
0.322295
0.398143
0.32775
0.443014
0.410206
0.328363
0.4532
0.327662
0.348341
0.326452
0.343888
0.346717
0.33511
0.387225
0.337714
0.35162
0.32754
0.318479
0.934539
0.451075
0.847045
0.329435
0.337952
0.334495
0.32853
0.323738
0.337195
0.451487
0.325197
0.327375
0.322573
0.332428
0.32481
0.322063
0.329489
0.331027
0.32064
0.331462
0.320063
0.31341
0.316049
0.377403
0.312147
0.318111
0.324616
0.321396
0.323426
0.424931
0.331866
0.424667
0.33333
0.397903
0.323965
0.348949
0.675472
0.341136
0.589988
0.35092
0.545121
0.356013
0.422248
1.08233
0.324964
0.319247
0.383389
0.345427
0.325186
0.351314
0.376362
0.324917
0.315741
0.586699
0.326281
0.359425
0.322404
0.418422
0.383887
0.369003
0.332694
0.877945
0.318231
0.340679
0.350493
0.32288
0.348862
0.37176
0.332097
0.323631
0.316896
0.340947
0.35
0.33162
0.387112
0.375669
0.341608
0.318172
0.353977
0.327532
0.322343
0.353184
0.347599
0.319396
0.321208
0.344592
0.324508
0.332499
0.321936
0.333139
0.334427
0.35468
0.343879
0.326542
0.313725
0.323204
0.32987
0.384646
0.364801
0.377616
0.345546
0.338015
0.649614
0.58798
0.501979
0.386838
0.439164
0.380009
0.326053
0.345777
0.36972
0.429728
0.324651
0.335026
0.324955
0.341849
0.372188
0.345088
0.357775
0.360904
0.330422
0.433678
0.459665
0.731735
0.376731
0.374968
0.438025
0.432291
0.485173
0.470277
0.504921
0.320869
0.32743
0.464175
0.323667
0.325605
0.335719
0.335616
0.680958
0.403253
0.69162
0.784154
0.438756
0.323063
0.329941
0.317662
0.319485
0.44648
0.32301
0.381532
0.361301
0.377191
0.337908
0.335159
0.337968
0.341088
0.474567
0.323852
0.499678
0.605118
0.34672
0.341095
0.320846
0.332758
0.464966
0.46346
0.421617
0.37139
0.308632
0.373414
0.609261
0.335126
0.346159
0.392722
0.456177
0.323023
0.440295
0.489417
0.345867
0.39225
0.412815
0.349888
0.332743
0.329411
0.33268
0.328403
0.330256
0.351792
0.356911
0.366461
0.336571
0.337722
0.422215
0.342486
0.328917
0.320801
0.340976
0.339828
0.350529
0.36036
0.335816
0.328789
0.33471
0.396576
0.318031
0.335334
0.361443
0.352681
0.342048
0.496995
0.338088
0.52912
0.528547
0.52569
0.330353
0.743286
0.332633
0.332165
0.607348
0.321772
0.372108
0.332721
0.33011
0.326175
0.32874
0.329977
0.335996
0.337018
0.344784
0.324704
0.343644
0.333833
0.331358
0.329086
0.334267
0.339063
0.383143
0.473134
0.786854
0.688124
0.41026
0.476631
0.316877
0.314165
0.335233
0.324242
0.316343
0.344343
0.36453
0.324067
0.627514
0.46901
0.545753
0.344781
0.7459
0.326662
0.344381
0.329184
0.392777
0.322662
0.357369
0.343431
0.333762
0.321036
0.319764
0.321004
0.320453
0.592407
0.481641
0.3968
0.43356
0.327509
0.320831
0.325387
0.328004
0.327907
0.335896
0.330524
0.321988
0.391833
0.423628
0.381134
0.375214
0.324255
0.326404
0.326076
0.32712
0.388998
0.37683
0.332884
0.327351
0.455495
0.418045
0.70331
0.477142
0.5008
0.394921
0.379194
0.739148
0.815804
0.369336
0.359087
0.338181
0.350811
0.362885
0.432304
0.492181
0.41724
0.324961
0.466718
0.316952
0.362533
0.360075
0.350086
0.375986
0.369693
0.320354
0.3247
0.325662
0.330015
0.329927
0.32694
0.326885
0.351027
0.337322
0.353743
0.366197
0.374104
0.376697
0.379881
0.366442
0.328311
0.321494
0.327806
0.327804
0.36105
0.348789
0.497482
0.336889
0.322752
0.32343
0.384268
0.322957
0.315517
0.320688
0.324417
0.322601
0.350419
0.321659
0.341038
0.325515
0.418593
0.347547
0.322196
0.320292
0.326619
0.356513
0.327616
0.328825
0.336856
0.798625
0.320656
0.327775
0.333797
0.34169
0.321812
0.379304
0.320963
0.338711
0.339141
0.315931
0.323267
0.371981
0.355976
0.33205
0.334003
0.323972
0.326267
0.323528
0.323577
0.333445
0.332301
0.323715
0.327657
0.320973
0.325179
0.319586
0.327475
0.351773
0.334926
0.349065
0.397314
0.320447
0.329188
0.32156
0.344978
0.320683
0.319767
0.319905
0.361822
0.397862
0.339148
0.358749
0.41451
0.788815
0.508251
0.633135
0.778964
0.341448
0.349387
0.339212
0.354866
0.385447
0.324403
0.32371
0.378882
0.318309
0.339948
0.324116
0.339652
0.328659
0.32945
0.355797
0.32612
0.313473
0.461553
0.312989
0.356699
0.331671
0.370751
0.431441
0.42648
0.359293
0.407032
0.323042
0.327095
0.320533
0.556346
0.344662
0.318811
0.320834
0.328967
0.320045
0.462561
0.309542
0.31128
0.320145
0.312305
0.323046
0.316701
0.32128
0.320166
0.677117
0.376802
0.720495
0.323712
0.334072
0.376642
0.32023
0.318802
0.32258
0.329088
0.32454
0.323881
0.321895
0.361566
0.332039
0.331585
0.324999
0.32242
0.428549
0.333399
0.352337
0.459341
0.402583
0.35396
0.338271
0.326404
0.32051
0.326012
0.322804
0.469856
0.399314
0.319341
0.524024
0.527526
0.921421
0.781136
0.335777
0.337099
0.319345
0.328221
0.320947
0.81801
0.367327
0.544048
0.490827
0.485696
0.366204
0.318282
0.347925
0.328218
0.321447
0.5314
0.403523
0.831527
0.327551
0.324945
0.318748
0.341369
0.368214
0.327552
0.349086
0.341113
0.350575
0.649463
0.354111
0.373425
0.34311
0.436046
0.44347
0.314054
0.691873
0.326925
0.33894
0.321038
0.324497
0.383612
0.347759
0.320318
0.365212
0.463464
0.75247
0.324057
0.31077
0.312336
0.339836
0.345228
0.342346
0.323304
0.358303
0.508038
0.5208
0.790109
0.751918
0.373878
0.446101
0.310126
0.309809
0.311784
0.310394
0.318538
0.313893
0.320675
0.328504
0.346646
0.33453
0.321501
0.435592
0.31857
0.331096
0.319915
0.325753
0.421764
0.332359
0.333493
0.342899
0.323553
0.318821
0.351437
0.34645
0.319614
0.327723
0.333959
0.323819
0.497143
0.39332
0.337364
0.325796
0.330039
0.326638
0.335084
0.350619
0.3307
0.349502
0.338524
0.324004
0.346642
0.324557
0.345205
0.459447
0.518487
0.814053
0.32159
0.330643
0.372349
0.320655
0.329525
0.346677
0.32977
0.322593
0.368171
0.343466
0.376021
0.378222
0.365934
0.418791
0.321219
0.331324
0.346388
0.356439
0.328326
0.385436
0.351175
0.360737
0.565085
0.383425
0.718952
0.32532
0.365283
0.937103
0.360096
0.365191
0.323141
0.889918
0.331481
0.32499
0.62424
0.398167
0.360799
0.337452
0.327771
0.373772
0.404435
0.326411
0.334099
0.322619
0.459918
0.369677
0.907172
0.847096
0.824773
0.384451
0.904356
0.346471
0.657588
0.981818
0.319691
0.325326
0.378763
0.34778
0.368832
0.358651
0.318804
0.711851
0.901586
0.361865
0.33387
0.40449
0.689829
0.355178
0.327241
0.323959
0.416804
0.423257
0.327788
0.876949
0.612768
1.02884
1.07175
0.319085
0.422564
0.397263
0.329522
0.331393
0.443865
0.358305
0.315831
0.339608
0.33868
0.358588
0.328343
0.33327
0.341276
0.329655
0.339658
0.31701
0.34068
0.335981
0.357892
0.341917
0.329283
0.3426
0.333982
0.38291
0.333221
0.333829
0.332206
0.353015
0.31668
0.336598
0.332391
0.354661
0.332406
0.350511
0.331461
0.320887
0.347163
0.354802
0.341891
0.398737
0.429933
0.323029
0.325702
0.34255
0.364644
0.376673
0.348389
0.321011
0.316673
0.317924
0.337899
0.353592
0.348418
0.338323
0.339907
0.344841
0.617303
0.34494
0.357356
0.368836
0.358473
0.349043
0.354356
0.379221
0.347007
0.357616
0.456797
0.319605
0.322918
0.349989
0.343965
0.358707
0.362804
0.333263
0.353032
0.368631
0.322381
0.314489
0.350656
0.861769
0.757703
0.322316
0.328641
0.321406
0.31852
0.35251
0.327084
0.563698
0.328446
0.513933
0.355249
0.35806
0.364946
0.350518
0.370603
0.352276
0.349917
0.336052
0.317073
0.33847
0.330792
0.324229
0.326049
0.326937
0.325536
0.329966
0.324301
0.324942
0.518861
0.328341
0.702027
0.613594
0.414387
0.33384
0.341694
0.547956
0.325611
0.327783
0.320631
0.328928
0.323828
0.319261
0.367745
0.32582
0.630258
0.33909
0.393655
0.345992
0.386393
0.344162
0.394493
0.337692
0.391257
0.345014
0.326378
0.34559
0.321738
0.322325
0.329457
0.374322
0.361507
0.81029
0.331751
0.324077
0.348843
0.332111
0.390187
0.327769
0.322539
0.461387
0.329367
0.36533
0.610536
0.796331
0.372518
0.372691
0.394316
0.387209
0.400025
0.434571
0.369617
0.382922
0.330148
0.34022
0.385304
0.326162
0.333509
0.325395
0.397205
0.359354
0.768261
0.421669
0.793822
0.337925
0.587958
0.438698
0.593986
0.323821
0.323151
0.305707
0.805662
0.351379
0.328754
0.892223
0.345783
0.81687
0.764177
0.323162
0.322631
0.351709
0.338499
0.39752
0.429094
0.357934
0.352414
0.371858
0.398842
0.362684
0.364932
0.306859
0.342907
0.336295
0.332339
0.344147
0.346686
0.356821
0.348467
0.349989
0.324911
0.325195
0.319838
0.319075
0.318623
0.322907
0.318809
0.320505
0.336875
0.378488
0.32868
0.327804
0.324178
0.321891
0.323096
0.323872
0.341539
0.314215
0.320462
0.326368
0.322961
0.322301
0.324781
0.324499
0.324497
0.324829
0.324461
0.324234
0.324634
0.32465
0.329987
0.325066
0.32648
0.32737
0.341182
0.342154
0.339137
0.333521
0.339903
0.336338
0.339746
0.327843
0.477058
0.468043
0.342408
0.593015
0.338076
0.342392
0.433257
0.315605
0.349838
0.418737
0.515399
1.10859
0.32341
0.320788
0.329514
0.363432
0.319624
0.321903
0.33084
0.337271
0.3168
0.317648
0.317506
0.318075
0.318658
0.32464
0.319635
0.330808
0.314433
0.31438
0.323324
0.32639
0.328509
0.320558
0.327649
0.352955
0.324334
0.334957
0.306459
0.339505
0.351537
0.334199
0.444057
0.32337
0.344983
0.345636
0.371222
0.33579
0.349093
0.321579
0.347639
0.3223
0.319582
0.353332
0.320457
0.322123
0.334183
0.32279
0.326526
0.321772
0.320349
0.325533
0.326258
0.365805
0.470386
0.463744
0.3821
0.423698
0.452825
0.371498
0.359102
0.324755
0.450304
0.335119
0.488677
0.513445
0.32652
0.327904
0.357282
0.35387
0.324557
0.325904
0.321271
0.322247
0.321434
0.323209
0.358996
0.319566
0.339702
0.383228
0.335823
0.335291
0.334223
0.325013
0.322543
0.393924
0.349989
0.340005
0.334786
0.321253
0.342871
0.35226
0.337634
0.334551
0.332678
0.555253
0.418235
0.33402
0.337511
0.337253
0.335131
0.335665
0.546467
0.333674
0.569391
0.331581
0.900198
0.622817
0.323178
0.878546
0.832905
0.320711
0.720789
0.39841
0.32405
0.739208
0.449438
0.697403
0.688717
1.03517
0.362801
0.809381
0.745407
0.784895
0.330814
0.772145
0.327896
0.327508
0.382785
0.320564
0.378671
0.350101
0.342574
0.365796
0.563131
0.501953
0.310195
0.31288
0.494999
0.927648
0.639805
0.347438
0.321197
0.31568
0.325861
0.322464
0.354621
0.32394
0.323631
0.327916
0.327792
0.327096
0.325968
0.322933
0.924977
0.335193
0.391928
0.45699
0.432918
0.343403
0.333193
0.32352
0.337589
0.330935
0.323159
0.318934
0.327551
0.320804
0.383819
0.320528
0.326297
0.324825
0.316513
0.325979
0.326214
0.326626
0.355879
0.321622
0.334826
0.337002
0.334239
0.319325
0.349605
0.339632
0.343254
0.414725
0.357225
0.349159
0.493304
0.375779
0.353545
0.31455
0.34783
0.435953
0.34788
0.349822
0.344209
0.322453
0.31924
0.32853
0.316819
0.362132
0.325541
0.337145
0.33572
1.00077
0.321382
0.326381
0.322107
0.33546
0.326071
0.331768
0.351688
0.330651
0.337589
0.546739
0.326501
0.326325
0.334175
0.420516
0.353146
0.349327
0.933336
0.411101
0.36513
0.459811
0.362654
0.403211
0.388958
0.421407
0.338794
0.334414
0.327019
0.361001
0.989468
0.333425
0.335551
0.328141
0.343961
0.355453
0.344119
0.343233
0.350243
0.346375
0.319825
0.316729
0.318188
0.321675
0.349461
0.329202
0.334046
0.344924
0.348987
0.350691
0.351289
0.331601
0.327799
0.336722
0.327162
0.343326
0.339634
0.326411
0.319501
0.31807
0.317197
0.318264
0.319135
0.340846
0.349544
0.33398
0.344
0.323618
0.328657
0.319855
0.319617
0.340487
0.323324
0.319072
1.13695
0.324865
0.682902
0.520532
0.35814
0.333364
0.324198
0.325601
0.347625
0.326368
0.318743
0.368938
0.914172
0.341664
0.50191
0.406909
0.338542
0.35598
0.475729
0.419627
0.630311
0.361648
0.843262
0.49743
0.783497
0.933305
0.419091
0.335317
0.306086
0.332942
0.333452
0.339601
0.347712
0.329022
0.345214
0.344101
0.449484
0.402591
0.311112
0.319113
0.555728
0.341794
0.310763
0.357584
0.434288
0.33574
0.374969
0.422499
0.317155
0.318131
0.359248
0.313377
0.348001
0.328526
0.324241
0.337057
0.365578
0.317068
0.326786
0.342137
0.326785
0.324927
0.315448
0.331953
0.334086
0.479808
0.542232
0.355284
0.368139
0.907276
0.504421
1.06862
0.327993
0.351775
0.332164
0.333379
0.438704
0.475353
0.316714
0.350116
0.333865
0.354351
0.329848
0.344771
0.363899
0.418565
0.325068
0.337119
0.33253
0.319453
0.325176
0.382121
0.317822
0.341029
0.342161
0.320374
0.321144
0.326714
0.416285
0.382743
0.536164
0.347804
0.433455
0.516089
0.411859
0.372667
0.326022
0.324383
0.344944
0.325455
0.331942
0.326747
0.337364
0.380933
0.368491
0.740441
0.355953
0.32192
0.557675
0.368809
0.318807
0.370857
0.355248
0.337456
0.328941
0.653998
0.362513
0.372858
0.383136
0.389382
0.367878
0.31247
0.384568
0.39814
0.339315
0.340456
0.32074
0.367468
0.331306
0.348932
0.356997
0.336122
0.316541
0.349746
0.317863
0.378903
0.338713
0.399795
0.354884
0.494028
0.333773
0.331773
0.337058
0.396647
0.347189
0.353805
0.318689
0.322456
0.455622
0.440342
0.486998
0.422732
0.380272
0.419369
0.375582
0.374689
0.335409
0.350133
0.398456
0.332506
0.362732
0.337612
0.353572
0.322022
0.338675
0.318765
0.318434
0.321547
0.32018
0.322674
0.322182
0.338725
0.3385
0.306978
0.317585
0.316224
0.315295
0.383317
0.314045
0.338486
0.332843
0.327717
0.382682
0.318362
0.385056
0.366613
0.317981
0.321023
0.381674
0.327543
0.329436
0.32929
0.328317
0.349708
0.31488
0.332767
0.330919
0.333634
0.328876
0.332771
0.323571
0.351288
0.36055
0.327695
0.319962
0.338852
0.330694
0.350394
0.315636
0.316672
0.32799
0.338077
0.323552
0.320463
0.315938
0.322619
0.322828
0.324366
0.347285
0.337764
0.326181
0.322327
0.327365
0.332478
0.34756
0.335638
0.360072
0.413433
0.347229
0.334537
0.328018
0.340569
0.328124
0.335577
0.365387
0.3775
1.18195
0.334068
0.383698
0.79827
0.345862
0.337779
0.654048
0.600456
0.417926
0.354693
0.34695
0.359697
0.323179
0.325436
0.335894
0.31944
0.338113
0.324945
0.365277
0.338868
0.387033
0.362923
0.420157
0.351932
0.409776
0.37962
0.363286
0.326207
0.32922
0.334505
0.668704
0.546615
0.558415
0.50106
0.555073
0.355666
0.326885
1.14323
0.315698
0.318022
0.315464
0.324144
0.315978
0.462792
0.402142
0.368158
0.337628
0.333998
0.336753
0.353669
0.363055
0.399495
0.379757
0.454731
0.327268
0.519097
0.597221
0.320732
0.329635
0.323958
0.536667
0.334879
0.356623
0.377565
0.335854
0.321276
0.325645
0.319273
0.370541
0.3381
0.335516
0.329565
0.331679
0.317569
0.320172
0.323547
0.321222
0.32285
0.340805
0.321939
0.322298
0.345485
0.332272
0.329497
0.338999
0.320064
0.389565
0.337226
0.321349
0.347573
0.315719
0.316595
0.320732
0.31984
0.322681
0.31769
0.381014
0.323282
0.325516
0.323627
0.328114
0.339657
0.350279
0.324585
0.337006
0.327617
0.32095
0.362565
0.335486
0.397527
0.323523
0.332866
0.324242
0.374268
0.314199
0.443771
0.802139
0.360116
0.791823
0.793682
0.747054
0.331306
0.331021
0.328899
1.01847
0.32986
0.326784
0.323665
0.323664
0.326167
0.377378
0.366166
0.354979
0.350806
0.358639
0.355274
0.34772
0.375524
0.578618
0.54533
0.34719
0.504148
0.379648
0.408628
0.404453
0.406865
0.359488
0.898411
1.01706
0.978753
0.66831
0.533007
1.00444
0.401863
0.383505
0.406777
0.835585
0.410058
0.907041
0.313769
0.312912
0.331277
0.329302
0.329302
0.341223
0.340106
0.335973
0.344947
0.368437
0.392518
0.351004
0.334012
0.342516
0.364753
0.36227
0.323372
0.325195
0.324527
0.326715
0.318825
0.327721
0.32691
0.389745
0.326812
0.325883
0.322239
0.324192
0.351415
0.426106
0.33865
0.356286
0.351491
0.331075
0.327382
0.352244
0.335959
0.319115
0.318807
0.324618
0.326203
0.33601
0.324657
0.320058
0.323146
0.327957
0.329258
0.317184
0.315038
0.317755
0.317037
0.344481
0.322423
0.328228
0.310551
0.312095
0.323727
0.334194
0.340333
0.318022
0.31683
0.322791
0.318006
0.37567
0.371929
0.317203
0.402918
0.618072
0.363992
0.347579
0.324597
0.318537
0.324325
0.347191
0.343353
0.366896
0.354038
0.328966
0.32943
0.342562
0.32855
0.328272
0.323027
0.319749
0.324862
0.323583
0.325431
0.316624
0.322077
0.327392
0.323345
0.327913
0.337637
0.324354
0.323992
0.351513
0.347427
0.344998
0.328871
0.318932
0.315837
0.326896
0.337554
0.32058
0.317589
0.325435
0.345305
0.314202
0.331358
0.347024
0.33083
0.335241
0.309481
0.334499
0.342269
0.333854
0.332001
0.339504
0.323417
0.326073
0.324558
0.401975
0.318855
0.346127
0.332864
0.384127
0.43744
0.343009
0.341581
0.319048
0.324149
0.321785
0.360504
0.340301
0.327182
0.336779
0.325778
0.321138
0.342331
0.362762
0.347352
0.317896
0.332936
0.322312
0.391864
0.364032
0.3301
0.365175
0.325255
0.325014
0.446045
0.327992
0.348234
0.328898
0.334256
0.330312
0.322729
0.312643
0.351699
0.390375
0.5085
0.78259
1.0949
0.318863
0.325059
0.327972
0.330729
0.319018
0.323042
0.40314
0.324397
0.415112
0.478805
0.447751
0.323301
0.314533
0.722852
0.834077
0.337432
0.816603
0.318036
0.317393
0.328602
0.995447
1.07084
0.929849
0.32489
0.323011
1.11094
0.977082
0.325125
0.326447
0.36113
0.404261
0.37091
0.328875
0.345553
0.331318
0.316044
0.33179
0.327646
0.7899
0.339896
0.384109
0.336575
0.319263
0.325156
0.327062
0.322666
0.325665
0.321442
0.370914
0.322617
0.359792
0.318674
0.328423
0.334195
0.330022
0.354203
0.335384
0.342662
0.348443
0.326991
0.423831
0.325743
0.382809
0.397477
0.36057
0.322064
0.318634
0.351505
0.91055
0.324237
0.421452
0.337132
0.316308
0.318693
0.331431
0.32547
0.319117
0.328559
0.344355
0.386754
0.338213
0.328324
0.326991
0.333958
0.361988
0.359924
0.327508
0.331673
0.330741
0.321456
0.323667
0.330252
0.581951
0.439714
0.35562
0.346664
0.328385
0.507954
0.328557
0.347016
0.340248
0.329926
0.335714
0.38836
0.342011
0.390237
0.416
0.327578
0.339505
0.335386
0.389678
0.368327
0.335404
0.350064
0.656331
0.328151
0.391729
0.321812
0.343237
0.329358
0.31828
0.493705
0.427593
0.356862
0.352064
0.313236
0.372354
0.322413
0.325935
0.337486
0.335433
0.3684
0.321021
0.332073
0.503391
0.323734
0.358729
0.351727
0.31851
0.326626
0.322104
0.337513
0.347692
0.334387
0.336299
0.334399
0.345906
0.335939
0.351219
0.33982
0.321222
0.336846
0.334888
0.309019
0.671421
0.338593
0.336111
0.324508
0.328503
0.337598
0.662006
0.325636
0.645459
0.336234
0.334895
0.327274
0.358923
0.316852
0.437939
0.418808
0.321692
0.358342
0.402224
0.342808
0.324005
0.358696
0.317668
0.364397
0.321036
0.32249
0.342679
0.344469
0.341011
0.332412
0.336835
0.326468
0.325213
0.326961
0.330438
0.330805
0.336178
0.320442
0.328444
0.332074
0.340557
0.329324
0.322726
0.328807
0.326473
0.337999
0.360425
0.361489
0.440332
0.387249
0.367312
0.423129
0.320278
0.329351
0.414869
0.330508
0.334801
0.372212
0.321756
0.620074
0.319907
0.318503
0.315143
0.32255
0.517702
0.568315
0.491506
0.45014
0.319108
0.462811
0.321628
0.346072
0.456023
0.330557
0.575809
0.331902
0.340633
0.456346
0.322114
0.33948
0.323728
0.33458
0.342562
0.34076
0.325583
0.35323
0.325498
0.331818
0.327709
0.623955
0.353828
0.341398
0.3258
0.350171
0.328401
0.335928
0.328453
0.330174
0.32219
0.344104
0.567283
0.402468
0.381758
0.381542
0.762679
0.543117
0.341183
0.37074
0.380731
0.33797
0.391749
0.394321
0.332815
0.335063
0.346326
0.323184
0.328488
0.387955
0.326961
0.332698
0.340047
0.372717
0.369917
0.335448
0.393775
0.405956
0.430571
0.325032
0.328019
0.336753
0.334765
0.339136
0.344201
0.557726
0.738084
0.344687
0.383301
0.327483
0.379079
0.364329
0.363948
0.339161
0.52262
0.393751
0.445814
0.920973
0.390903
0.425947
0.770826
1.02447
0.588589
0.54487
0.418961
0.772703
0.325975
0.357332
0.323803
0.345022
0.32644
0.579121
0.336839
0.354309
0.36277
0.357213
0.35295
0.321087
0.337477
0.316114
0.338215
0.330492
0.402327
0.34223
0.672853
0.415383
0.68313
0.410356
0.35619
0.337607
0.438826
0.398013
0.916444
0.390025
0.432481
0.557684
0.858243
0.620017
0.668962
0.608036
0.386549
0.633061
0.348968
0.868553
0.508317
0.324108
0.330701
0.328617
0.330513
0.461997
0.337805
0.634992
0.358799
0.335344
0.330606
0.487425
0.428391
0.569839
0.437963
0.860408
0.733502
0.526935
0.421683
0.324914
0.373326
0.435395
0.372693
0.361754
0.340087
0.367543
0.383504
0.331221
0.436926
0.513327
0.449209
0.331696
0.415059
0.348433
0.370818
0.346083
0.371219
0.332348
0.322272
0.478813
0.677319
0.592517
0.424848
0.449093
0.607681
0.428244
0.565226
0.326144
0.320199
0.323645
0.322532
0.314532
0.345801
0.335431
0.35157
0.330592
0.321594
0.34754
0.319532
0.376647
0.392494
0.323026
0.32348
0.339696
0.323725
0.325026
0.315608
0.349321
0.315542
0.351347
0.342947
0.33598
0.330647
0.332004
0.317961
0.32057
0.345668
0.431295
0.352027
0.318278
0.321541
0.321207
0.363732
0.348731
0.36886
0.363456
0.396006
0.355842
0.316839
0.334264
0.325256
0.324029
0.319173
0.321009
0.328623
0.322212
0.332303
0.325776
0.33092
0.37209
0.316765
0.346175
0.317546
0.331525
0.370109
0.370452
0.315947
0.318966
0.340567
0.365803
0.322436
0.332348
0.315034
0.335413
0.330373
0.339361
0.324428
0.321548
0.322343
0.32209
0.323322
0.316169
0.342131
0.320655
0.342737
0.323936
0.31905
0.316894
0.322898
0.319137
0.317807
0.314812
0.313435
0.31547
0.319368
0.314475
0.36641
0.359742
0.325857
0.923497
0.788313
0.731043
0.721386
0.328336
0.334599
0.335952
0.327751
0.350984
0.342029
0.335624
0.325103
0.324484
0.361421
0.315421
0.313378
0.360559
0.330216
0.319528
0.319195
0.316725
0.319478
0.32398
0.318855
0.320694
0.329893
0.319547
0.31633
0.317769
0.317485
0.338577
0.325139
0.387498
0.324334
0.326867
0.323957
0.528745
0.437285
0.452784
0.73473
0.319023
0.410903
0.602539
0.852041
0.548457
0.548304
0.560114
0.99855
0.677789
0.794783
0.440882
0.379802
0.342378
0.3275
0.32884
0.927223
0.32397
0.323151
0.848755
0.324342
0.83953
0.323084
0.319561
0.324875
0.324034
0.323024
0.321279
0.323652
0.322809
0.322936
0.322891
0.32034
0.322538
0.322901
0.324098
0.322241
0.323533
0.318203
0.317683
0.320927
0.322627
0.357872
0.321134
0.329221
0.328818
0.348409
0.339775
0.333229
0.340784
0.318582
0.320551
0.367815
0.337827
0.32374
0.332289
0.316796
0.32656
0.319677
0.322037
0.337489
0.321992
0.319066
0.316886
0.3251
0.325223
0.32337
0.355789
0.333673
0.323543
0.31878
0.319146
0.321189
0.335811
0.336501
0.334504
0.338842
0.34982
0.346339
0.368829
0.356255
0.321985
0.330939
0.317278
0.325161
0.321111
0.326151
0.324319
0.34886
0.324361
0.319781
0.318162
0.73663
0.4487
0.318085
0.464357
0.322111
0.326041
0.321949
0.3179
0.328874
0.32003
0.322544
0.331022
0.319889
0.327737
0.323338
0.358502
0.352044
0.320772
0.342111
0.325978
0.323489
0.360113
0.359387
0.324977
0.464236
0.4485
0.478321
0.362598
0.331752
0.321292
0.770572
0.370267
0.360463
0.326584
0.320563
0.452747
0.437176
0.340094
0.85464
0.329045
0.321578
0.325561
0.324083
0.327256
0.32387
0.323223
0.318553
0.356511
0.91788
0.327998
0.761223
0.379502
0.337732
0.383544
0.405688
0.344747
0.375233
0.425667
0.369739
0.336814
1.1399
0.333242
0.325477
0.34619
0.330243
0.330274
0.306461
0.915453
0.713666
0.451489
0.587429
0.583037
0.971746
0.51145
0.356314
0.334613
0.753949
0.33479
0.333556
0.327115
0.321599
0.363012
0.352915
0.325222
0.323776
0.326068
0.327661
0.322134
0.318334
0.308712
0.319568
0.318662
0.331396
0.320535
0.333912
0.360019
0.332223
0.489708
0.398742
0.426091
0.331716
0.328792
0.334774
0.324105
0.321299
0.347099
0.324537
0.334829
0.349167
0.327565
0.321515
0.314286
0.335313
0.317867
0.450382
0.32175
0.335268
0.340055
0.320787
0.3297
0.324211
0.31796
0.322561
0.329085
0.830643
0.364118
0.320925
0.328265
0.324908
0.350793
0.328834
0.32116
0.325328
0.357894
0.352239
0.349155
0.393152
0.323901
0.327463
0.332133
0.41922
0.471597
0.676509
0.375104
0.362805
0.339856
0.331853
0.355402
0.367531
0.330852
0.316821
0.32897
0.521924
0.362239
0.356718
0.490407
0.342627
0.976046
0.827959
0.667124
0.341397
0.428343
0.392546
0.373781
0.35737
0.353941
0.35599
0.336473
0.3372
0.435409
0.386235
0.356984
0.45119
0.324694
0.354345
0.325131
0.344026
0.463966
0.809816
0.389326
0.354942
0.355965
0.400536
0.589842
0.371002
0.381239
0.43609
0.380166
0.33699
0.358404
0.631846
0.351581
0.355505
0.351292
0.338128
0.33008
0.355879
0.338433
0.348685
0.323178
0.464025
0.397709
0.425763
0.637645
0.436881
0.343247
0.355866
0.323216
0.318481
0.338114
0.324754
0.374207
0.324056
0.348244
0.311297
0.326188
0.357717
0.32639
0.333242
0.342015
0.325768
0.327701
0.324767
0.351006
0.385153
0.339076
0.326419
0.333331
0.333202
0.33209
0.331298
0.328546
0.348813
0.342643
0.338147
0.336004
0.366418
0.324604
0.321559
0.332828
0.321965
0.319195
0.346626
0.34825
0.319448
0.35501
0.327451
0.332376
0.320484
0.329784
0.325143
0.314207
0.316148
0.341111
0.340317
0.332777
0.343255
0.329841
0.355252
0.335979
0.330971
0.400189
0.324062
0.34901
0.345901
0.321586
0.39049
0.707011
0.343718
0.384745
0.331773
0.317553
0.317814
0.313406
0.329863
0.327111
0.366321
0.332167
0.331194
0.331448
0.348565
0.417206
1.16371
0.335252
0.320097
0.324894
0.322362
0.329434
0.3331
0.32448
0.322992
0.323948
0.326851
0.322447
0.325137
0.320504
0.327211
0.345395
0.355077
0.32539
0.332581
0.316485
0.31921
0.31505
0.321341
0.403433
0.343974
0.32641
0.319107
0.332905
0.327579
0.314536
0.368842
0.340652
0.328314
0.952465
0.35567
0.34993
0.954813
0.344887
0.373797
0.356956
0.600937
0.3479
0.340323
0.456463
0.459605
0.505225
0.370147
0.815481
0.501006
0.326596
0.322123
0.322522
0.324554
0.334542
0.540417
0.362731
0.356496
0.392703
0.382739
0.886031
0.389909
0.416714
0.359728
0.339947
0.643332
0.564591
0.524968
0.337725
0.946046
0.740708
0.600095
0.631413
0.541922
0.519294
0.354574
0.348777
0.358431
0.368895
0.342859
0.340663
0.337477
0.334717
0.643781
0.335587
0.389496
0.33769
0.332609
0.329468
0.353888
0.346985
0.339242
0.332021
0.357143
0.331075
0.31914
0.321796
0.325079
0.322396
0.330274
0.32808
0.333361
0.328889
0.331199
0.323336
0.331469
0.324505
0.319415
0.315293
0.329057
0.33678
0.346088
0.316005
0.42816
0.44186
0.33484
0.33297
0.335622
0.315746
0.318261
0.49422
0.310199
0.360067
0.407509
0.547962
0.745856
0.780752
0.69226
0.38896
0.356317
0.374549
0.325392
0.34401
0.328948
0.958179
0.587985
0.328632
0.335462
0.655339
0.331229
0.324734
0.348973
0.341663
0.339786
0.346204
0.355067
0.391347
0.374182
0.380345
0.39759
0.328477
0.326368
0.326539
0.317602
0.32613
0.328138
0.32752
0.323882
0.68613
0.321735
0.647393
0.354661
0.322127
0.336618
0.343409
0.344978
0.339991
0.323427
0.3244
0.325023
0.322661
0.324316
0.325192
0.325237
0.324718
0.324015
0.323898
0.324045
0.324235
0.329458
0.327311
0.315287
0.328714
0.324068
0.321964
0.358145
0.373941
0.386998
0.399663
0.318371
0.317477
0.386907
0.342906
0.327929
0.320859
0.319022
0.328415
0.329894
0.320656
0.316913
0.319144
0.318792
0.31892
0.319165
0.318546
0.321025
0.330048
0.321182
0.319911
0.316854
0.322419
0.339192
0.319241
0.32761
0.354128
0.31849
0.31493
0.314336
0.377954
0.317395
0.317774
0.341797
0.317335
0.317956
0.317201
0.317095
0.314933
0.350557
0.374234
0.319286
0.319675
0.314997
0.314903
0.315507
0.981366
0.793271
0.701926
0.827598
0.812832
0.315886
0.315769
0.316445
0.76899
0.319158
0.316312
0.324378
0.371748
0.323329
0.324838
0.317668