/*--------------------------------*- C++ -*----------------------------------*\
| =========                 |                                                 |
| \\      /  F ield         | OpenFOAM: The Open Source CFD Toolbox           |
|  \\    /   O peration     | Version:  2506                                  |
|   \\  /    A nd           | Website:  www.openfoam.com                      |
|    \\/     M anipulation  |                                                 |
\*---------------------------------------------------------------------------*/
FoamFile
{
    version     2.0;
    format      ascii;
    arch        "LSB;label=32;scalar=64";
    class       volVectorField;
    location    "0.0501868";
    object      U;
}
// * * * * * * * * * * * * * * * * * * * * * * * * * * * * * * * * * * * * * //

dimensions      [0 1 -1 0 0 0 0];

internalField   nonuniform List<vector> 
3972
(
(10.0719 -0.195097 -0.0352548)
(9.15995 -1.1364 -0.0222848)
(10.7792 -0.281373 0.0313194)
(10.8549 -0.0683819 -0.0173763)
(1.77214 -4.29337 -5.70742)
(10.3405 -0.408317 0.0452105)
(11.0298 0.113001 -0.0344262)
(9.02235 -1.15279 -0.687819)
(9.48113 -0.9642 -0.610902)
(9.29088 -3.05073 -1.23528)
(10.2 -1.5075 -0.850122)
(8.77194 -1.26245 -0.599129)
(11.8497 0.382543 -0.256844)
(10.1804 -0.136089 -0.000931086)
(10.2259 -0.633714 0.177717)
(10.0661 -0.60954 0.0317887)
(10.4038 -0.431354 -0.0313615)
(11.2085 -1.24771 -0.0716894)
(10.3632 -0.378264 0.0661912)
(10.517 -0.44054 0.0717263)
(7.12554 -1.01789 -0.0768299)
(12.6182 -0.444642 0.522764)
(10.1695 -0.0942451 0.0278753)
(10.7868 0.194622 0.0559652)
(12.0379 -5.4444 -1.97469)
(9.40654 -0.952996 0.105438)
(10.2282 -0.512347 0.136946)
(10.0387 -0.214421 0.0220414)
(12.5207 -1.34946 -0.382565)
(9.74162 -0.426854 0.189938)
(11.3212 -1.80267 0.754366)
(8.23403 -5.83434 0.190059)
(10.0068 -0.245809 0.00632115)
(11.8239 -2.52246 -0.760686)
(9.68637 -0.547612 0.180666)
(10.162 -0.877128 0.271128)
(11.7529 -1.02227 -0.342011)
(10.8913 -0.456552 0.142653)
(9.81389 -1.00147 0.537973)
(11.8314 -1.18766 -0.498764)
(11.4408 -0.747904 -0.382692)
(11.3881 0.0272744 0.160557)
(9.26791 -1.7109 0.137101)
(12.5615 -0.796775 0.121779)
(10.5723 -0.161782 0.0183711)
(10.2282 -0.470412 0.1203)
(10.0619 -0.0745116 0.0266951)
(12.5114 -1.57719 -0.843575)
(10.746 -0.0282295 0.0254487)
(9.76792 -0.98345 -0.443229)
(11.1235 0.0219254 -0.0161906)
(10.2629 -1.22171 0.559003)
(12.0173 -0.882992 -0.0917982)
(10.1942 -0.0303264 0.0237045)
(10.6225 -2.42462 0.222166)
(10.5312 -0.171015 -0.0165832)
(10.6394 -0.027344 0.0186334)
(9.61978 -1.28202 0.53391)
(10.116 -0.0252207 -0.0253359)
(12.9958 -1.61451 -0.689202)
(10.2322 -0.0475627 0.00777654)
(10.0701 -0.0386457 0.0088349)
(9.9217 -0.205628 -0.00489753)
(10.6458 -0.0229971 -0.000588306)
(11.0702 -0.417378 -0.0774378)
(12.322 -1.50034 -0.642274)
(11.3969 -2.63395 -1.93113)
(10.0031 -0.272883 0.010164)
(11.5953 -1.4438 -0.374349)
(13.0707 0.152403 0.222495)
(10.668 0.0418906 0.0138493)
(11.2291 -1.49634 -0.120517)
(13.079 -1.96954 0.0332765)
(10.2555 -0.885505 0.303137)
(12.2565 -1.05791 -0.0820949)
(9.93368 -0.627028 -0.0736506)
(10.4433 -1.7714 -1.17155)
(10.5933 -0.0619959 0.00344229)
(10.5331 -0.775945 -0.303717)
(11.0257 -2.90682 -1.999)
(10.5211 -1.98776 -1.3372)
(11.554 -0.141197 -0.024819)
(9.78791 -0.640772 -0.0618203)
(10.5636 -0.842978 -0.526375)
(9.55714 -1.61007 -0.267342)
(10.4262 -0.0811919 0.0224721)
(10.388 -0.0820196 -0.00972916)
(10.2091 -1.82228 -1.29805)
(10.2233 -0.0541313 -0.00974572)
(10.2874 -0.0343135 -0.00817955)
(9.87926 -2.3874 -1.47241)
(11.3323 -1.6501 -0.131216)
(9.36308 -3.14175 -1.28927)
(10.1072 -1.57486 -1.3562)
(9.95993 -0.877114 -0.551265)
(10.4001 -0.977264 0.317376)
(10.1019 -0.265158 -0.0359391)
(11.2951 -0.102714 -0.0105866)
(10.5776 -0.142221 -0.0361945)
(10.0321 -0.254242 -0.011467)
(9.99274 -0.826613 0.299154)
(10.8916 -0.460985 -0.0350299)
(9.93759 -0.974671 0.444657)
(10.0357 -0.771327 -0.461295)
(10.6674 -0.0560754 0.00581998)
(10.036 -1.16646 -0.316891)
(8.81877 -1.69308 0.187853)
(11.2564 -0.953852 0.170414)
(12.2684 -1.19666 -0.446335)
(11.241 -0.461649 0.095961)
(9.0381 -2.60401 -0.448387)
(10.5337 -0.547233 -0.0114338)
(10.1174 -0.76971 0.0295778)
(9.61408 -3.97964 -2.12746)
(10.3648 -1.56931 -0.919464)
(11.5559 -0.208738 0.0139804)
(9.59576 -0.680893 0.559534)
(10.6553 -0.0435433 0.00603549)
(10.7252 -0.0250914 -0.00159024)
(10.157 -2.179 -1.0694)
(6.51618 -3.23513 -1.57193)
(10.5546 -0.0845626 0.0274512)
(9.98696 -0.261839 0.0101826)
(10.5233 -0.106461 -0.0021529)
(9.97788 -0.264669 -0.0254477)
(12.1018 -2.36998 -0.521649)
(9.96176 -0.174379 0.0149616)
(12.3732 -2.739 -1.22427)
(12.4703 -2.75752 -1.29883)
(11.2356 -3.61732 -2.22488)
(12.5071 -2.95436 -1.10683)
(9.06379 -2.39942 -0.383843)
(12.9662 -3.38562 -0.87236)
(12.0608 -4.588 -2.08685)
(10.2735 -0.0364239 0.0128219)
(10.3323 -0.0356791 0.0204545)
(10.1912 -0.050721 -0.00131431)
(10.2045 -0.029012 -0.0284753)
(10.1279 -0.0160048 -0.0072438)
(10.2226 -0.065363 0.0207457)
(10.777 -2.28825 -1.16034)
(9.89433 -0.227759 0.0130052)
(8.35734 -1.62885 0.745515)
(10.7896 -2.83887 -1.91586)
(10.5748 -0.099387 0.00763901)
(10.0672 -0.0553159 0.0110491)
(12.0331 -1.0253 -0.218903)
(10.0564 -0.213259 -0.0687772)
(9.93401 -0.212461 0.0114114)
(10.4378 -2.55914 -1.02268)
(10.0317 -0.203426 0.0218134)
(9.81594 -1.55558 -0.583397)
(9.88686 -0.741057 -0.349234)
(10.4217 -0.072275 0.0180172)
(10.4307 -0.0602785 -0.0214502)
(9.94811 -1.18419 -0.619116)
(10.4765 -0.165542 -0.0131919)
(11.0725 -2.08501 -1.24915)
(10.8886 -1.90164 -1.1933)
(11.5884 -2.23647 -2.02545)
(9.6896 -0.806137 -0.0904524)
(9.57216 -0.862256 0.37257)
(11.504 -0.67568 0.00698911)
(11.7506 -0.750267 -0.0385364)
(9.50499 -0.917735 0.478497)
(8.91938 -2.00303 -2.02976)
(11.8305 -0.59896 0.109588)
(12.4053 -1.29497 -0.22614)
(9.51801 -1.54219 -0.662801)
(11.8584 -1.12174 -0.264986)
(12.2451 -1.31793 -0.304302)
(10.7516 -0.520969 -0.108656)
(9.97788 -0.344463 -0.0021276)
(9.94785 -0.491762 -0.021026)
(10.6834 -0.557422 -0.110957)
(10.5991 -0.597261 -0.123327)
(10.1781 -0.316342 -0.0498137)
(9.94069 -0.41923 0.00119934)
(9.99605 -0.522516 0.00905633)
(9.95527 -0.393997 -0.00947878)
(10.0224 -0.0582669 0.018401)
(10.021 -0.0511729 0.0320459)
(11.5911 -0.54174 0.104018)
(12.2408 -1.31539 -0.375861)
(9.96467 -0.721367 0.175604)
(10.0802 -0.360807 0.00124211)
(10.1062 -0.319667 -0.0115118)
(10.1904 -0.256356 -0.030122)
(10.1379 -0.393942 0.0500422)
(9.32594 -0.946663 0.849769)
(10.0238 -0.5819 -0.0928236)
(10.1013 -0.521053 -0.00234824)
(11.8509 -2.70729 -0.552579)
(10.0713 -0.416166 0.0362392)
(10.9373 -0.66004 0.266195)
(10.0484 -0.539039 -0.0664843)
(10.5742 -0.822996 -0.0748607)
(10.4565 -0.143067 -0.00445861)
(12.6549 0.178633 0.198846)
(10.4836 -0.900766 0.422905)
(10.2466 -0.888363 0.478037)
(10.1189 -0.430359 -0.0493936)
(11.7693 -1.2497 -0.388348)
(10.5191 -0.154512 -0.0188564)
(9.76495 -0.366252 -0.0326627)
(10.6969 -0.178543 -0.0109463)
(9.78823 -0.386525 0.124245)
(10.7132 -1.96017 -0.309525)
(12.3169 -0.110752 0.160428)
(10.6308 0.0190312 0.00758071)
(10.5779 0.0179004 0.00289726)
(10.775 -0.514299 -0.0536325)
(12.6687 -0.324456 0.522773)
(12.5341 -0.706547 0.0211066)
(10.523 -0.783795 -0.212402)
(10.604 -0.190526 0.0148137)
(12.5592 -1.37591 -0.3786)
(11.1507 -0.201201 0.0236859)
(11.4563 -1.07266 -0.625209)
(10.3778 -0.8102 -0.439876)
(10.2364 -0.393599 0.0415961)
(7.71156 -2.25387 -0.0502917)
(11.4625 -1.04477 -0.250854)
(10.3422 -0.764903 0.320334)
(9.81405 -5.6514 -1.48932)
(10.071 -0.767403 0.435162)
(9.41458 -9.00507 -2.80854)
(12.7581 -1.29543 -0.534447)
(12.5869 -8.24856 -1.26209)
(12.0669 -2.1424 -1.87163)
(8.80673 -12.7858 -2.11118)
(10.041 -1.91342 -0.0323257)
(6.47895 -4.14322 -1.86107)
(1.22921 -5.74252 -2.42221)
(10.5673 -1.34705 -0.561706)
(11.0419 -0.657959 -0.155697)
(11.3907 -0.751147 -0.208232)
(9.85051 -0.848549 0.0974563)
(9.2487 -2.04429 -1.99934)
(10.1488 -1.41204 -1.44007)
(9.31878 -1.6611 -0.66609)
(10.9968 -1.60024 0.0126785)
(5.83848 -3.46655 -1.03932)
(8.53708 -1.3977 -0.316841)
(11.4473 -1.54324 0.22186)
(10.629 -0.321325 -0.0491964)
(10.0093 -1.40337 0.00288369)
(10.7717 -0.330379 -0.0403238)
(11.5804 -0.121681 -0.0181499)
(10.9077 -0.660698 -0.0807233)
(10.9907 -0.813114 -0.115615)
(5.76837 -3.72303 -6.97664)
(10.3599 -2.67589 -1.90392)
(10.4268 -0.0320595 0.00956266)
(10.9225 -0.270008 -0.00976431)
(11.3018 -0.909399 -0.371949)
(6.10785 -3.2911 -3.02114)
(6.54033 -3.26458 -0.539196)
(10.7584 0.222573 0.0393283)
(10.486 0.0143545 -0.0193614)
(12.735 -3.22227 -0.811871)
(10.6137 0.0405526 0.00593806)
(10.2383 -0.0177049 0.0233282)
(10.9442 0.221556 0.105327)
(10.4569 -2.62914 -3.04831)
(10.9922 -1.84283 -0.520336)
(10.7645 -0.375437 0.019214)
(8.54291 -2.17068 -1.71005)
(8.90728 -2.05071 0.209142)
(11.0714 0.424542 -0.0719868)
(10.0815 -1.90267 0.255629)
(12.0631 -1.74135 -0.845956)
(3.23577 -4.68916 -3.30423)
(12.4403 -3.23914 -0.721141)
(11.4423 -2.31323 -1.14738)
(8.46784 -4.93491 -0.059381)
(11.7164 0.135703 -0.227605)
(10.6273 -0.00816076 -0.00787155)
(10.9149 -0.42162 0.0473371)
(10.003 -0.493203 0.00981134)
(10.2279 -0.255945 -0.0206572)
(12.8441 -2.63351 -0.250562)
(10.4849 -0.88176 -0.0945349)
(4.59455 -5.04705 0.0905039)
(3.11931 -1.61999 0.747837)
(6.52226 -6.80136 -3.88421)
(11.2582 -0.166633 0.0442039)
(10.7702 -0.105826 -0.0305763)
(11.4021 -0.0779746 0.0931372)
(10.0278 -0.220794 0.0277844)
(10.9878 -0.364869 -0.00738371)
(9.02479 -1.08353 -0.539469)
(10.4082 -1.45815 -1.52645)
(10.9235 -0.206721 -0.0273273)
(8.84033 -5.5928 -1.17235)
(10.1031 -3.21686 -0.608073)
(11.1891 -0.856961 -0.615615)
(9.57963 -4.8608 -2.44657)
(9.55314 -1.15005 0.472044)
(5.06615 -6.59271 -1.82345)
(10.2671 -0.365047 0.0388867)
(10.5169 -0.93137 -0.674177)
(11.0295 -1.59677 -1.36946)
(11.9213 0.33172 0.068551)
(11.0273 -0.11828 0.019008)
(11.1004 -0.249467 0.00434469)
(8.8421 -2.1198 -0.478664)
(10.5757 -1.88583 -0.672148)
(10.8252 -0.0572696 -0.0458826)
(10.6027 -1.74319 -0.736667)
(10.6264 -1.7044 -0.411915)
(10.7465 0.104367 -0.0375861)
(8.99722 -3.03353 -3.0908)
(11.143 -0.264873 -0.00795654)
(6.08632 -0.408256 -2.26493)
(9.81536 -0.918879 -0.536368)
(11.2654 -0.265948 0.0303815)
(10.8498 0.311755 -0.00903)
(11.3224 -0.47567 -0.0646955)
(10.9507 -0.971194 -0.061579)
(12.7874 -3.24716 -2.13619)
(2.31741 -6.99216 -3.06961)
(11.7729 -1.02637 -0.211984)
(10.0072 -0.866885 -0.0715726)
(9.98818 -0.940514 -0.0719459)
(10.7351 0.0113775 0.0498161)
(10.148 -0.740656 -0.268571)
(9.69718 -0.880609 0.292949)
(11.1316 0.102976 0.0286196)
(10.5809 -0.0172752 -0.045258)
(10.7855 0.115557 0.0102108)
(10.5679 -5.27783 -0.557768)
(10.3511 -1.70365 -1.5555)
(10.6015 -0.603722 0.071065)
(9.90655 -0.781497 -0.113707)
(10.1824 -0.0770112 -0.00851838)
(10.9832 0.0372943 -0.00786046)
(11.5336 -1.75149 -0.704148)
(9.68598 -0.631588 -0.291882)
(12.395 -0.0226404 0.240566)
(10.9551 -2.9306 -0.578423)
(9.84389 -0.867749 -0.179819)
(10.5459 -3.0816 -3.04815)
(10.8841 0.286821 -0.0397226)
(11.3133 -0.498339 -0.0281336)
(10.0096 -0.798273 -0.0948172)
(9.4801 -1.10337 -0.882048)
(9.31453 -1.30447 -0.434477)
(10.966 -0.737038 -0.265577)
(11.7447 -0.992102 -0.25867)
(11.0969 -0.692698 -0.198193)
(10.6723 -0.0324253 0.0218362)
(10.639 -0.173333 -0.00465906)
(10.6412 -0.193414 0.00700794)
(3.15448 0.535684 -0.176202)
(8.56471 -3.89406 -2.13471)
(2.63232 -5.68709 -3.5001)
(10.6413 -0.27012 -0.0314329)
(9.93614 -1.29545 -0.0425764)
(9.96901 -1.19216 -0.0364597)
(9.90586 -1.00366 0.274598)
(10.113 -0.780444 0.131208)
(11.1682 -0.0516955 0.0757478)
(12.4998 -1.32068 -0.3755)
(11.0313 0.10245 0.126281)
(10.9622 0.119875 0.0997388)
(10.8038 0.134561 0.0460732)
(10.285 -1.09524 0.298719)
(9.9858 -0.308987 0.00137413)
(10.0438 -0.511536 -0.0723551)
(10.631 -0.731847 0.125331)
(10.2708 -1.00397 0.154402)
(10.1276 -0.360799 0.0107262)
(10.5567 -0.903093 0.105524)
(11.1371 -0.374832 -0.031484)
(10.9515 0.163979 -0.011975)
(10.8787 0.214767 -0.0442314)
(10.5811 -0.000116914 -0.00132223)
(10.8311 0.0839058 -0.0431089)
(10.7982 0.0392033 -0.0226543)
(10.8182 -0.540669 0.144102)
(11.094 -0.397721 -0.0476589)
(10.7824 -0.423353 0.095097)
(11.5667 -2.32951 -1.33858)
(10.7025 -0.851967 -0.380106)
(11.3275 -2.57081 -1.58729)
(10.2172 -1.05096 -0.0827437)
(8.10682 -2.70218 -0.445995)
(10.8279 -0.0314744 -0.0232828)
(10.8973 -1.16831 -0.532589)
(12.5605 -1.35348 -0.644041)
(11.1565 0.17351 0.184427)
(12.6508 -0.581911 0.333502)
(11.2953 0.0962971 0.0826987)
(13.0018 -1.33521 -0.32325)
(11.1496 -1.13475 -0.142859)
(1.19698 -1.40239 0.670661)
(9.00541 -3.91539 -2.5503)
(9.90136 -0.668033 -0.256744)
(10.281 -0.565725 0.1518)
(9.36389 -2.53347 -1.14367)
(11.0966 -0.732099 -0.0508284)
(9.82692 -0.625237 -0.000981333)
(11.1314 -1.02023 -0.525922)
(8.46672 -1.8802 -0.617578)
(9.81274 -0.293478 -0.0109278)
(11.1151 0.0383591 -0.0237164)
(11.3563 -5.59647 -1.02991)
(11.1982 -0.294736 0.0553655)
(11.3701 -1.01066 -0.0980447)
(9.97281 -0.606752 0.0743451)
(11.9958 -2.05446 0.035317)
(11.6083 0.432453 -0.0987289)
(11.5694 0.0994209 0.0168995)
(10.2289 -0.0438475 0.00431056)
(1.53233 -8.01201 -2.13193)
(10.3681 -0.641782 0.246307)
(11.2023 0.100956 0.158593)
(11.233 0.195338 0.108026)
(10.6975 -0.586178 0.18256)
(11.3717 -0.146497 0.088602)
(10.1656 -0.0737751 -0.0188256)
(9.76603 -1.04178 0.154822)
(10.4646 -0.321193 -0.0207283)
(11.0598 0.0272694 0.0806627)
(11.316 -0.0867729 0.0958416)
(9.30606 -1.65937 0.500094)
(10.949 -0.402891 0.0482747)
(9.66403 -2.05816 -1.84933)
(10.4726 -0.0884896 0.00875816)
(11.2308 0.0709454 0.161244)
(10.994 -0.0264148 0.046514)
(10.0243 -0.216039 -0.00559464)
(10.3671 -0.837282 -0.272836)
(10.1875 -0.610734 -0.155072)
(8.96624 -1.5782 0.128301)
(10.561 -1.31247 0.0934185)
(10.7564 -0.0163914 0.0263697)
(10.1333 -0.289686 -0.0273836)
(10.0131 -0.269095 -0.00309971)
(10.691 -0.707227 0.263844)
(10.7182 -0.239561 0.0153852)
(10.0631 -0.57139 -0.0881871)
(10.8559 -0.731327 -0.262762)
(11.2905 -0.278347 0.0354725)
(11.3685 0.180806 0.0712088)
(9.53832 -1.26064 0.810804)
(10.4197 -0.664474 -0.156926)
(10.9766 -0.0663704 0.0448287)
(9.98288 -0.691008 0.452461)
(10.4039 -1.01556 0.515472)
(11.1835 -2.11184 0.0209797)
(10.3792 -2.10752 0.2166)
(11.1837 -1.89945 -0.149116)
(11.2692 -0.55425 0.0792298)
(10.1235 -0.487929 0.199427)
(5.99085 -7.11526 -0.313525)
(9.33513 -6.24531 -1.03285)
(12.644 -2.85426 -0.502837)
(11.7416 -1.10727 -0.0964778)
(7.81312 -3.83191 -1.09698)
(10.5032 -2.33665 -0.541327)
(11.1733 -0.0372746 0.0716738)
(10.2064 -1.54012 0.460464)
(11.0522 -1.60814 -0.689101)
(11.989 -1.95875 -0.188611)
(9.71505 -0.691507 0.126385)
(9.36746 -0.986028 -0.0856645)
(10.5907 -0.333698 0.0321158)
(9.36179 -1.21927 0.29071)
(10.594 -0.00112488 -0.0028191)
(10.4147 -1.45243 -0.0828664)
(9.25238 -1.89638 -0.156268)
(10.4418 -1.75456 -0.743186)
(10.4841 -0.897934 0.0827855)
(8.22304 -3.97265 -0.371767)
(12.6603 -0.828082 -0.0974931)
(1.09529 -5.57309 -0.435968)
(11.7476 -0.617115 0.0538461)
(11.6592 -0.728594 0.0200711)
(12.2102 0.0496422 0.194027)
(12.2786 -0.360705 0.0782518)
(12.7133 -0.899782 0.0658095)
(12.6044 -1.13482 -0.138249)
(12.836 -0.949279 -0.0376021)
(10.1019 -0.248337 -0.012176)
(10.1489 -0.204814 -0.0427924)
(12.6411 -1.06145 -0.177599)
(10.1308 -0.207076 -0.0515732)
(10.1825 -0.733628 -0.415714)
(10.3206 -0.589037 -0.221453)
(10.3618 -0.59883 -0.152038)
(12.7867 -3.88178 -2.59369)
(11.8785 -1.34603 -0.34152)
(12.3838 -1.40713 0.601468)
(10.5158 -2.21229 -0.260844)
(12.3645 -1.19067 -0.431939)
(10.3249 -0.0634081 0.0165325)
(10.4044 -0.054356 0.00287969)
(10.4141 -0.121435 0.00467523)
(10.3502 -0.121266 0.00809963)
(12.3133 -1.26213 -0.561784)
(10.9514 -0.153062 -0.0134175)
(11.5423 -1.19513 -0.556595)
(11.5796 -0.822436 -0.254493)
(9.37244 -2.23564 -1.61706)
(10.3323 -1.14748 -0.119796)
(10.4033 -0.947366 -0.160888)
(10.2242 -1.20016 -0.375435)
(10.2766 -1.26058 -0.418315)
(12.5664 -2.08843 -0.331697)
(10.3756 -0.0809259 0.00850694)
(12.9657 -1.55683 -0.175411)
(12.5937 -0.243765 0.522566)
(9.48491 -1.50155 0.443295)
(9.66409 -1.19318 0.771447)
(10.1476 -0.765259 0.325372)
(11.1396 0.0979314 0.0119201)
(10.4911 -4.06065 -2.12942)
(11.2612 -3.23076 -1.38803)
(10.288 -3.29175 -1.15201)
(10.5813 -1.66591 -1.64767)
(10.9441 -0.087453 -0.0161376)
(10.86 -1.58765 -1.11044)
(8.38942 -3.68425 -4.61158)
(11.2092 0.144257 -0.0287992)
(9.55988 -1.50819 0.308384)
(9.9778 -2.04012 -1.95565)
(12.3727 -1.82353 -0.987836)
(10.1431 -0.767874 0.205554)
(12.198 -1.60121 -0.767171)
(12.6118 -1.59207 -0.761629)
(11.1848 -0.670733 0.00582329)
(11.7167 -1.45792 -0.833636)
(11.9322 -1.61281 -1.19296)
(9.40921 -1.62178 0.435162)
(10.6299 -0.9265 -0.603883)
(10.9577 -0.777085 -0.348782)
(11.0303 -0.77079 -0.35888)
(10.9803 -0.677738 -0.262012)
(11.0842 -0.7061 -0.276747)
(9.43762 -1.69421 0.290875)
(9.1577 -1.88249 0.185804)
(9.99769 -0.286405 0.00367834)
(11.189 -0.395896 -0.0301237)
(11.1161 -0.473145 -0.0341599)
(8.33952 -3.79607 -0.0305105)
(9.58805 -1.41712 0.275062)
(10.0614 -0.243454 -0.024204)
(10.3709 -0.674583 0.230001)
(11.0842 -0.613242 -0.0621204)
(11.0232 -0.648956 -0.0772644)
(10.042 -1.69332 0.215613)
(10.4576 -1.86923 0.110187)
(10.9356 -0.590737 -0.0784336)
(10.448 -0.663358 -0.0583034)
(10.8247 -0.593499 -0.0295816)
(12.0519 -0.839297 0.0511348)
(10.1505 -0.450451 0.0828573)
(10.8162 -0.762814 0.0629095)
(11.4151 -0.962815 -0.00803005)
(8.83868 -1.30551 0.636407)
(10.9384 -0.80518 -0.0200299)
(12.588 -1.54052 -0.660058)
(10.8082 -0.832256 0.0140059)
(12.8135 -1.78785 -0.829393)
(12.6072 -1.79135 -1.07054)
(12.9668 -1.49508 -0.475325)
(11.0311 -0.733177 -0.342706)
(4.65822 -7.01293 -0.398409)
(9.6001 -0.961993 0.157529)
(10.4545 -1.03487 0.321069)
(7.73073 -7.15545 -0.417854)
(11.0719 -0.000658382 0.0656391)
(11.7084 -0.383071 0.0298835)
(11.1942 -0.156855 0.0391608)
(10.3016 -0.265263 0.0384447)
(11.186 -0.588507 -0.146966)
(11.1271 -0.553224 -0.130552)
(10.1632 -1.00651 0.0698502)
(11.0839 -0.403407 -0.00763192)
(11.1259 -0.350269 0.0101725)
(11.1469 -0.915909 0.0928757)
(11.1923 -0.510969 -0.0912041)
(11.4073 -0.240994 0.16709)
(11.322 -0.141581 0.149186)
(10.6987 -0.669069 0.0464482)
(10.6462 -0.594502 0.0211835)
(10.7336 -0.628706 -0.0522366)
(10.6318 -1.00497 -0.000789106)
(8.22042 -2.34684 -0.0734479)
(12.7101 -0.0245547 0.177535)
(11.9629 -0.102117 0.219608)
(13.2525 -2.42946 -1.47232)
(8.47458 -2.98435 -1.20108)
(12.4081 -2.21033 -1.53646)
(10.8049 0.0812406 0.00045591)
(10.7955 0.06533 -0.000932452)
(10.9398 -0.69779 0.101437)
(9.69628 -0.708119 0.335473)
(10.7806 0.097064 -0.00184681)
(10.6759 0.0273893 0.0513827)
(10.7178 -0.000886202 0.00386326)
(10.753 0.0492195 0.00995532)
(6.00568 -5.98459 -2.82466)
(6.99058 -4.04808 -1.74699)
(6.39254 -4.67404 -2.02044)
(10.0143 -1.22758 -1.00487)
(1.30509 -3.82218 -5.88008)
(11.1629 -0.114939 0.0527785)
(11.323 -0.34763 0.0580726)
(10.1545 -0.991858 -0.0200164)
(11.4143 -2.22641 0.0199315)
(10.49 -0.309476 -0.0570032)
(10.5344 -0.191008 -0.00221746)
(10.4899 -0.202474 0.0249017)
(10.5549 -0.299024 -0.0158588)
(10.0853 -0.213251 -0.0428773)
(10.0641 -0.18555 -0.0254185)
(10.1007 -0.237801 -0.0389079)
(10.0753 -0.195054 -0.0239777)
(8.82209 -3.86391 -4.32919)
(9.15296 -3.13848 -3.70161)
(9.71449 -2.37718 -1.99839)
(9.7912 -2.78239 -2.61088)
(11.1087 -0.279995 -0.0302221)
(10.9972 -0.306172 0.0434707)
(10.4741 -0.623629 0.072476)
(10.3825 -0.6708 -0.0315719)
(10.0324 -0.888506 -0.272499)
(9.41276 -0.805928 -0.359807)
(9.52184 -0.719217 -0.305013)
(9.99182 -0.546166 -0.260788)
(11.9244 -1.04785 0.091435)
(12.2064 -0.968653 -0.160625)
(10.0062 -2.55262 0.16733)
(10.4292 -2.39076 0.214168)
(9.97262 -0.636213 0.01507)
(9.90594 -0.803989 -0.00886178)
(9.90889 -0.713426 -0.0333297)
(9.86202 -0.803434 -0.0501112)
(8.35148 -2.66032 -0.0466654)
(8.73047 -2.43429 0.0996781)
(9.83522 -1.01748 -0.393895)
(9.88481 -0.797844 -0.260612)
(11.2159 -3.7042 0.0310317)
(10.1599 -3.4313 -0.0106091)
(11.9823 -1.1225 -0.0800923)
(10.9245 -4.31499 0.0868783)
(11.4798 -3.78897 -0.451806)
(10.6108 -2.65448 -0.249852)
(11.8593 -0.440042 0.0157835)
(12.5247 -1.09655 -0.130551)
(12.0456 -1.8258 -0.210163)
(10.8624 -1.83542 -0.160909)
(10.973 -1.56976 -0.286247)
(10.9158 -0.754167 0.0623356)
(10.8011 -1.22252 -0.197776)
(10.67 -1.83077 -0.11219)
(7.8589 -3.57673 -1.04508)
(6.7742 -4.07145 -0.618392)
(7.76173 -3.16251 -0.505061)
(10.5385 -0.38379 0.0369807)
(6.91377 -3.63586 -0.326632)
(10.7542 -0.157453 -0.0183839)
(11.0845 -1.50751 0.116222)
(11.2924 -1.0504 -0.121064)
(11.1663 -0.95445 0.00319934)
(11.5216 -1.39602 -0.019594)
(11.4756 -1.11883 -0.0827004)
(10.5982 -0.290151 0.0493393)
(10.1819 -0.676824 -0.0139459)
(10.1627 -0.738888 -0.0605965)
(10.2365 -0.859804 -0.13805)
(10.1306 -0.925561 -0.10752)
(10.3419 -0.615078 -0.0361833)
(10.2505 -0.735142 -0.0932287)
(9.72882 -1.69968 -0.56064)
(10.6426 -0.435445 -0.0375015)
(9.70407 -1.76735 -0.69595)
(9.48825 -2.21771 -0.869897)
(9.19364 -2.39909 -0.474713)
(11.6382 -1.19937 -0.108533)
(11.5237 -1.29195 -0.162382)
(10.8391 -1.64396 -0.318767)
(10.8775 -0.770946 -0.328336)
(9.94078 -0.17263 -0.00192125)
(10.7585 -0.723771 -0.307454)
(9.86451 -0.910782 0.0275692)
(9.89966 -0.285785 -0.00787578)
(9.79599 -0.235863 -0.0436089)
(12.8444 -1.84221 -0.567005)
(9.81207 -0.181909 -0.0261275)
(9.84464 -0.261583 -0.0335734)
(9.81647 -0.347101 -0.0248706)
(11.1319 -1.94629 -0.640461)
(9.65283 -0.568677 0.218853)
(10.5539 -0.0860735 -0.00408713)
(9.7765 -0.524127 0.108806)
(10.0237 -0.609161 0.409299)
(10.0601 -0.100289 -0.0398303)
(11.007 -0.481801 -0.0178249)
(9.9012 -0.621108 0.138017)
(10.3578 -0.281509 -0.0140237)
(9.89552 -0.39408 0.099961)
(11.6345 -2.15074 -1.10117)
(10.3338 -0.0213399 0.0040882)
(9.74599 -0.481988 0.0793128)
(9.91382 -0.246831 -0.0176878)
(10.1212 -0.172826 -0.0689869)
(11.2888 0.363875 -0.0733568)
(11.0146 -0.083049 0.0526616)
(10.8091 -0.684651 -0.358122)
(10.2804 -0.0464922 0.0269977)
(9.83233 -1.8411 0.249933)
(10.6127 -0.206474 -0.0148568)
(10.1089 -0.290305 0.00840056)
(10.2404 -0.296031 0.0100347)
(10.0476 -0.325983 0.0266533)
(10.5471 -0.178244 -0.027674)
(10.1191 -0.0372156 0.0199754)
(9.85227 -0.357522 0.0218717)
(10.7071 -0.332941 0.0607367)
(11.0221 0.368617 0.0135697)
(10.5327 -0.162011 0.0227594)
(10.225 -0.717951 0.148036)
(9.48579 -2.27517 0.23729)
(10.5795 -0.0559218 0.0121176)
(10.7908 -0.825941 -0.383967)
(10.98 -0.780155 -0.487725)
(10.2735 -0.613967 -0.138324)
(10.2188 -0.765325 -0.131397)
(10.2732 -0.622351 -0.155244)
(10.2458 -0.599012 -0.154416)
(10.4859 -0.349622 -0.0506138)
(10.532 -0.384981 -0.0689703)
(10.339 -0.512903 -0.0717297)
(10.4854 -0.4876 -0.0985214)
(10.0925 -0.231006 -0.027178)
(10.0393 -0.264151 -0.00204225)
(10.7889 -0.181404 0.020238)
(10.995 -0.0167173 0.0580736)
(11.2953 0.159492 0.200208)
(11.0627 0.0644712 0.0674966)
(10.6734 -0.0428666 0.015658)
(9.04033 -2.07322 -2.15332)
(10.1927 -0.231863 -0.027105)
(10.8423 -0.364909 0.00510485)
(10.0875 -0.140382 -0.0522509)
(11.2118 -0.603727 -0.0915613)
(10.152 -0.231171 -0.0200108)
(10.9811 -0.193211 -0.0576133)
(10.1854 -0.186525 -0.012668)
(9.31633 -2.05781 0.578588)
(8.86976 -2.90657 -1.05066)
(9.99915 -0.0967603 0.0205514)
(11.2803 -1.10081 -0.113049)
(12.121 -1.32139 -0.0851471)
(12.4593 -3.10837 -2.30891)
(12.7764 -2.50248 -0.531929)
(5.13378 -5.09593 -2.99132)
(12.4926 -2.42542 -0.399355)
(9.41795 -1.22776 0.400864)
(9.14571 -1.26724 0.737962)
(11.1774 -0.377726 0.0593814)
(9.99243 -1.91093 0.230742)
(10.5942 -0.0670034 -0.000363449)
(9.98964 -0.841883 0.264144)
(10.2294 -0.513041 0.0471195)
(11.5958 -1.4522 0.213739)
(10.7906 0.0431452 -0.0333319)
(11.0679 0.183832 0.102633)
(9.80842 -0.435318 -0.107945)
(10.2966 -0.537488 -0.0782518)
(10.2233 -0.366636 -0.0532477)
(10.1084 -0.487559 0.219881)
(10.3642 -0.042646 0.0196107)
(10.7735 -0.216585 0.0295493)
(10.6442 0.0757443 -0.017555)
(11.8715 -2.72305 -1.00778)
(10.7417 0.131063 -0.0144391)
(10.6794 0.00859189 0.0368105)
(11.1493 0.028585 0.0205897)
(11.4867 0.286197 0.0944876)
(12.4079 -0.797588 -0.0518296)
(12.3281 -1.23666 0.00223951)
(10.3648 -0.013245 -0.0074983)
(12.0108 -1.31995 -0.661507)
(10.254 -0.842044 0.361074)
(10.894 -0.717756 0.274983)
(9.93875 -0.617594 0.257201)
(12.7297 -2.72705 -0.660588)
(10.3819 -0.280261 0.0228572)
(10.0305 -0.626751 0.262693)
(10.6399 -0.289157 0.0507754)
(10.6593 -0.854184 0.330526)
(10.5512 -0.275778 0.0471732)
(12.1962 -2.19039 -1.36718)
(10.8416 0.0448878 -0.0580428)
(10.7914 0.127491 -0.0249676)
(10.062 -0.67782 0.328572)
(10.8339 0.0130497 -0.064204)
(10.792 0.0322169 -0.0128216)
(10.0792 -0.571022 0.178484)
(9.92552 -0.549636 0.258315)
(10.0378 -0.313829 -0.0187357)
(6.89748 -6.94516 0.316683)
(10.7274 -2.07392 -0.72399)
(12.4463 -6.04697 -0.164475)
(10.2002 -0.458212 0.0235373)
(9.67567 -0.876303 -0.61395)
(10.5301 -0.00679303 -0.0186215)
(10.2189 -0.19491 -0.0323455)
(10.1973 -0.456262 0.0898454)
(9.84292 -0.652289 0.106453)
(9.64839 -0.710135 0.636248)
(9.95604 -0.57852 -0.04486)
(9.95607 -0.30804 -0.0109514)
(10.1676 -0.386678 -0.0266497)
(8.61227 -1.83092 0.179802)
(9.69034 -0.999125 0.440049)
(9.88166 -0.882811 0.669107)
(10.3491 -0.461518 -0.0547493)
(10.1378 -0.812025 0.38925)
(12.2609 -1.46245 -0.94915)
(10.4764 -0.899483 -0.176484)
(11.4099 -0.748506 0.108974)
(12.5318 -2.01506 -0.0120525)
(12.0519 -0.944302 0.0935725)
(9.46597 -1.40189 -1.2228)
(10.2623 -1.29969 0.202022)
(11.028 -0.0680103 0.0360626)
(10.3432 -0.686129 0.200242)
(10.7595 -0.327123 0.0150606)
(10.8672 0.149871 0.0904695)
(12.5153 0.184913 0.272963)
(11.9513 -0.553657 0.0675815)
(10.2641 -0.45551 0.0385058)
(13.1595 -1.19407 -0.207708)
(12.064 -3.69094 -0.504781)
(11.2174 -2.85709 -1.91903)
(1.61633 -6.95706 0.0519806)
(11.2437 -0.39971 0.123014)
(11.2013 -0.513765 0.107703)
(10.4175 -0.412838 0.116243)
(10.5986 -0.901269 0.438546)
(10.7506 -0.153005 -0.00511578)
(0.299629 -9.37855 -3.36572)
(11.5658 -0.026058 0.0499738)
(13.1092 -0.108555 -0.019704)
(12.9234 -1.42372 -0.363685)
(11.9653 -2.32842 -2.19345)
(11.2149 -1.35068 -0.703596)
(11.1216 0.0875827 -0.0204922)
(9.04978 -1.37311 0.252545)
(9.92259 -0.339474 -0.103563)
(10.1675 -0.268737 -0.0130055)
(11.9132 -4.46699 -1.61053)
(9.46993 -3.22814 0.0203975)
(1.39226 -6.06395 -5.16722)
(9.74142 -0.795814 0.126261)
(9.76894 -0.769981 0.160267)
(10.1729 -0.475235 0.100492)
(9.87629 -1.44372 0.30658)
(9.41491 -2.31696 -0.0754124)
(10.709 -0.607816 -0.182877)
(11.3393 -0.9381 0.156011)
(10.891 -0.828947 -0.135818)
(10.2936 -1.48613 -0.609418)
(12.8663 -1.16414 -0.0260247)
(11.3993 -0.00602299 0.102154)
(11.2631 -1.51394 -0.632058)
(10.9541 -0.981192 0.00969144)
(10.8891 -3.38772 0.0824082)
(10.1135 -4.08624 -0.359194)
(10.6807 -0.136908 -0.0113801)
(6.36826 -7.34492 -1.32015)
(10.2194 -0.827224 -0.428169)
(10.3224 -0.103148 0.000356262)
(10.1296 -0.172594 -0.0309934)
(10.1618 -0.130321 -0.0370847)
(10.3008 -2.68222 -0.479709)
(10.2693 -0.0358132 0.0246068)
(10.3304 -0.0605876 -0.00605848)
(10.1259 -0.00502415 0.0325975)
(12.6074 -1.50749 -0.591701)
(11.8821 -1.13387 -0.653386)
(9.92989 -0.368686 -0.0567843)
(10.8557 0.1297 -0.0611579)
(10.7411 0.139857 -0.0327396)
(10.8721 -0.0566802 -0.0252701)
(10.1231 -0.0695061 0.00409711)
(10.602 -0.0324839 0.000969995)
(10.3124 -0.139 0.0310891)
(10.2039 -0.10753 -0.0493965)
(13.0041 -0.72004 0.171039)
(8.69562 -4.85368 -2.28117)
(12.0917 -2.05963 -1.07214)
(1.53516 -4.37508 -4.58589)
(10.526 -0.0944122 0.00887027)
(12.443 -0.51022 0.0804653)
(10.8662 0.0584162 -0.0531504)
(10.8825 0.076717 -0.0698226)
(10.8657 0.0811333 -0.047711)
(10.8784 0.0988812 -0.0610725)
(11.0497 -0.0901406 0.0242272)
(10.9411 -0.0294255 -0.00807805)
(10.8497 -0.143541 0.0105974)
(9.92025 -0.354646 0.0722002)
(10.9097 -0.247284 0.0331209)
(10.9888 -0.582204 0.0949446)
(10.9251 -0.00358443 -0.00768442)
(12.4523 -1.01676 0.044185)
(9.95454 -0.158785 -0.00708585)
(10.0586 -0.962777 -0.218987)
(10.8463 -0.103814 -0.0149044)
(10.9193 -0.139206 0.0301164)
(12.312 -0.781358 0.00162659)
(10.0648 -1.03257 -0.308778)
(10.6052 -0.982313 0.125238)
(10.0379 -0.442122 0.143489)
(9.95268 -0.30632 -0.0485514)
(9.92616 -0.317398 -0.0995094)
(8.83504 -1.22681 -0.315495)
(10.7374 -1.18387 -0.105455)
(9.93038 -0.397484 -0.00817121)
(10.996 -0.500093 -0.103049)
(10.5837 -0.775317 -0.128511)
(10.0493 -0.72336 -0.185903)
(7.13134 -5.06182 -1.70449)
(10.6227 -1.79934 -2.10494)
(9.98477 -1.27634 0.00289656)
(9.80914 -0.68724 -0.0258766)
(10.0884 -0.369368 0.0537659)
(10.045 -0.326726 0.00788153)
(9.88002 -1.19665 -0.00445786)
(8.96258 -1.46742 0.257938)
(9.82203 -0.866958 -0.48097)
(10.5351 -0.451968 -0.0140947)
(11.0437 -0.89105 -0.615578)
(9.84096 -0.383314 -0.0450029)
(10.7756 -1.15458 -0.526439)
(9.88559 -0.560745 0.0215671)
(10.015 -0.425059 0.0581786)
(10.0269 -3.18255 -3.46125)
(6.7446 -4.63411 -0.675304)
(9.85811 -0.9471 1.8389)
(9.98367 -0.400098 0.00779772)
(10.0731 -0.291793 0.00420011)
(10.3424 -0.0307065 0.0103357)
(10.7444 -0.323595 0.0577602)
(10.045 -0.970149 -0.347769)
(9.96527 -1.59091 0.19456)
(11.1641 -0.686024 -0.2536)
(9.99975 -0.575801 -0.195586)
(11.5789 -0.923711 -0.0570192)
(10.4591 -0.026641 0.0168838)
(9.76379 -2.18222 -1.27515)
(9.33838 -2.05644 -1.76732)
(10.0442 -0.367778 -0.00549893)
(11.6604 -2.41698 -0.453098)
(11.1284 -0.196508 0.0260396)
(9.71755 -0.803875 -0.482157)
(10.1944 -0.0210677 0.0227785)
(9.8684 -0.133473 0.00774373)
(10.6148 -0.53233 0.0115845)
(11.0057 -2.16128 -0.767238)
(10.9684 -0.238798 -0.0245064)
(11.2813 0.406708 -0.0347581)
(7.57334 -4.00971 -3.91435)
(11.5048 -1.53251 -0.0886341)
(11.1739 -1.70302 -0.175975)
(11.1189 -0.366515 -0.0421546)
(10.6048 -2.00336 0.00928192)
(5.08101 -10.0803 -1.19248)
(9.9667 -1.96627 -0.726605)
(8.97615 -2.11765 0.300221)
(10.0622 -0.430315 0.000398399)
(9.45126 -8.2017 -4.8991)
(11.2971 -0.424247 -0.0516287)
(9.96759 -0.181511 -0.06589)
(4.81965 -4.31536 -3.5802)
(9.39715 -2.85604 -1.50126)
(11.4611 -0.834525 -0.0694914)
(11.1205 -0.593005 -0.139008)
(10.4787 -0.77718 -0.27302)
(10.8358 -1.82196 -0.720422)
(11.9571 -1.1554 -0.315986)