/*--------------------------------*- C++ -*----------------------------------*\
| =========                 |                                                 |
| \\      /  F ield         | OpenFOAM: The Open Source CFD Toolbox           |
|  \\    /   O peration     | Version:  2506                                  |
|   \\  /    A nd           | Website:  www.openfoam.com                      |
|    \\/     M anipulation  |                                                 |
\*---------------------------------------------------------------------------*/
FoamFile
{
    version     2.0;
    format      ascii;
    arch        "LSB;label=32;scalar=64";
    class       volScalarField;
    location    "0.0380695";
    object      nut;
}
// * * * * * * * * * * * * * * * * * * * * * * * * * * * * * * * * * * * * * //

dimensions      [0 2 -1 0 0 0 0];

internalField   nonuniform List<scalar> 
3923
(
0.00352483
0.00493287
0.00517862
0.000744913
0.000995212
0.000852313
0.000728694
0.000989793
0.00110093
0.00101718
0.000253782
0.00221741
0.00411807
0.00140991
0.00327287
0.00675634
0.00614396
0.0055547
0.00561654
0.00397441
0.00172072
0.00209968
0.00543911
0.00167362
0.00346508
0.00192443
0.0021875
0.00246357
0.00242213
0.00194444
0.00254009
0.00253697
0.00199352
0.000941
0.000934532
0.000847761
0.00113105
0.000887785
0.00108336
0.00218064
0.000412041
0.00693859
0.000503031
0.000491496
0.000930101
0.00074282
0.00579925
0.00169206
0.00370389
0.000980051
0.00103384
0.00111773
0.0019169
0.00404504
0.00187588
0.00429113
0.004303
0.0068903
0.00248524
0.00125664
0.00224384
0.000448083
0.00494795
0.00219714
0.00671967
0.00344364
0.00361185
0.00207332
0.00270499
0.000544566
0.00677976
0.00138667
0.0030115
0.00167674
0.00325688
0.00115215
0.00332133
0.00128268
0.0012194
0.00230628
0.00308415
0.000982754
0.00198105
0.00198478
0.000485049
0.00233424
0.00227574
0.00287736
0.00208572
0.00105899
0.00432409
0.00141696
0.00242849
0.00163691
0.00521763
0.0056094
0.00300874
0.00329544
0.00294824
0.00183424
0.00355611
0.00169992
0.00421513
0.00268712
0.00122994
0.00344199
0.000517145
0.000918024
0.00027485
0.000502492
0.00099545
0.00084044
0.00674642
0.00584076
0.000337663
0.000627397
0.000820621
0.00146013
0.00065187
0.000394422
0.00644392
0.000647982
0.00196978
0.00531921
0.00223034
0.00175731
0.00154979
0.000603767
0.000410127
0.00142068
0.00193928
0.00208316
0.00166806
0.0049715
0.00456979
0.00616813
0.00280711
0.00144696
0.00431152
0.00204225
0.00182929
0.00234985
0.00203739
0.0036865
0.00440645
0.00696836
0.00215978
0.00184095
0.00347066
0.00536308
0.00640858
0.00201433
0.00209099
0.00384142
0.00423931
0.000638613
0.00406488
0.00392033
0.00163518
0.000355024
0.00205599
0.00054589
0.00466454
0.000349434
0.000998644
0.00390687
0.00503223
0.00472763
0.00452424
0.00130646
0.00542778
0.00604867
0.00441403
0.000524928
0.000538685
0.00618291
0.00516723
0.00143827
0.00204373
0.00518239
0.00323881
0.000640026
0.0058793
0.00137265
0.00222639
0.00280297
0.00614237
0.00337058
0.00435242
0.00480649
0.00133949
0.00244667
0.003256
0.00340972
0.00181303
0.00119957
0.000474514
0.00187258
0.00196558
0.00138053
0.00152418
0.00176605
0.00161971
0.000948848
0.00324821
0.000539216
0.00530511
0.00138503
0.00350335
0.00162504
0.00190061
0.00211636
0.000352437
0.00332595
0.00125458
0.000325052
0.00578354
0.00443286
0.00147476
0.000635914
0.000331587
0.00170944
0.00151706
0.00133308
0.0013655
0.00569644
0.00473767
0.00336879
0.00324982
0.003711
0.00291564
0.00418485
0.00314864
0.00488354
0.00261673
0.00323958
0.00438642
0.00326608
0.00322203
0.00234555
0.00323238
0.004491
0.000763327
0.00270443
0.0011817
0.000645843
0.000463503
0.0037721
0.0039891
0.0038727
0.00092629
0.00194639
0.00403969
0.00331642
0.002208
0.00234141
0.00134823
0.000426351
0.00276765
0.00227295
0.000795001
0.000788896
0.00358727
0.00263416
0.00278617
0.00250503
0.00111852
0.00177915
0.00157141
0.00249083
0.0034503
0.000823489
0.00385208
0.00352414
0.00451548
0.00538836
0.00387514
0.00538142
0.004563
0.00344725
0.00338101
0.00318857
0.00393946
0.005414
0.00128064
0.0051495
0.00375016
0.00216108
0.00578233
0.00182151
0.00251766
0.00331823
0.00316521
0.00258558
0.00423801
0.000895309
0.000555563
0.000470124
0.000412404
0.000182016
0.000395196
0.00122147
0.000898815
0.000929184
0.000645705
0.000752112
0.000223003
0.00078793
0.00193234
0.00197714
0.00188489
0.00182502
0.00207851
0.00145349
0.0010712
0.00151284
0.00129619
0.00146604
0.00262383
0.00288595
0.00168728
0.00153476
0.0017173
0.00149881
0.00195435
0.00167609
0.00240675
0.00134067
0.00051846
0.0011039
0.00118698
0.00273819
0.00174312
0.00265682
0.00211825
0.00333687
0.00289608
0.00212245
0.00254432
0.00171479
0.00222804
0.00205155
0.00262036
0.0019135
0.00199683
0.00288652
0.00251752
0.00368085
0.00316429
0.00273123
0.00242285
0.00213089
0.00298531
0.00538827
0.00519277
0.00576989
0.0023853
0.00448001
0.00563977
0.00430458
0.00376713
0.00506722
0.00358495
0.00416076
0.00515904
0.00439825
0.00420454
0.00475104
0.00482352
0.00665371
0.00675898
0.00194851
0.00223964
0.00200569
0.000412814
0.000562577
0.000694931
0.00211666
0.00225993
0.00226291
0.00167299
0.00117151
0.00192764
0.00475002
0.00455707
0.00459578
0.00479394
0.00445694
0.00514145
0.001805
0.00175812
0.00155893
0.00193207
0.00210391
0.00223559
0.00151089
0.00213211
0.00144773
0.00106181
0.00322388
0.0030592
0.00290714
0.00308654
0.00326962
0.00163468
0.00135796
0.00330116
0.00211701
0.00243219
0.00143197
0.0017007
0.00204803
0.00105797
0.00100425
0.000988729
0.000875343
0.00119286
0.0019601
0.0012608
0.00295186
0.00228265
0.00170732
0.00164086
0.00331758
0.00237397
0.00382439
0.00354685
0.00331837
0.00379095
0.00120074
0.00378185
0.00102558
0.0034203
0.00194909
0.00312381
0.000610637
0.000400991
0.000810352
0.00197406
0.00139294
0.00141159
0.00657955
0.00359121
0.00141861
0.00684484
0.00691931
0.00199607
0.000536592
0.00324679
0.00172869
0.000812093
0.00144487
0.00239716
0.00118378
0.00157776
0.00467428
0.00090842
0.00467789
0.0025175
0.00302216
0.00240728
0.00244279
0.00198703
0.0054725
0.000569983
0.000627712
0.00409045
0.00407868
0.00219835
0.000418169
0.00549489
0.00477871
0.000834682
0.0054316
0.00246177
0.000469492
0.000905424
0.00157998
0.00460171
0.0035387
0.00304843
0.000885516
0.00205803
0.00113685
0.0014156
0.00315525
0.00347498
0.00497987
0.00351851
0.00135039
0.000357772
0.000568014
0.00358413
0.000723256
0.00261795
0.0025596
0.00409638
0.000307579
0.00252911
0.000428012
0.00353141
0.00653694
0.0042401
0.00562452
0.00340746
0.00688981
0.0011778
0.00335621
0.0039535
0.00426305
0.00564713
0.00019746
0.00242316
0.00202121
0.00390409
0.000755985
0.00611487
0.00698845
0.00159612
0.00355153
0.000544284
0.00329297
0.00165818
0.00307656
0.00353682
0.00162646
0.00285035
0.000743546
0.00078635
0.000902938
0.00247411
0.000389764
0.00327363
0.00166883
0.00174967
0.00144731
0.00129992
0.00504018
0.000718536
0.00184926
0.000648622
0.00103319
0.00104785
0.00219883
0.00321949
0.000952001
0.00183029
0.00257468
0.00272444
0.00248049
0.00148951
0.00185969
0.00213628
0.000636883
0.00300016
0.000703995
0.00204203
0.00263808
0.00118333
0.000983851
0.00366984
0.000510139
0.000892628
0.00108996
0.00266409
0.00244685
0.0015552
0.00128717
0.00284715
0.000972315
0.00146015
0.00131349
0.00551651
0.00248185
0.0019799
0.000744677
0.00250278
0.00324028
0.0041382
0.00262207
0.00266488
0.00155486
0.00239617
0.000686526
0.00132844
0.000581848
0.00170167
0.000489115
0.000702198
0.00284179
0.00349421
0.00321252
0.00482165
0.00406973
0.00246831
0.000484809
0.00268226
0.00143634
0.00562609
0.000421002
0.00188657
0.00509981
0.00282756
0.00306003
0.00189863
0.00218699
0.00226931
0.00299349
0.00417632
0.00217035
0.00503695
0.00219283
0.0029883
0.00207717
0.00259305
0.00192649
0.00143757
0.00111248
0.00137023
0.00107642
0.00191296
0.00101989
0.00118384
0.00154385
0.00239798
0.00123159
0.00448599
0.00301494
0.0017352
0.000991391
0.0025221
0.00620183
0.00289785
0.00355123
0.00479842
0.00280777
0.000799566
0.00124815
0.00139386
0.00393292
0.00144683
0.00176639
0.00264832
0.000978925
0.00392433
0.00118914
0.00583746
0.00177704
0.000800537
0.00147219
0.00181195
0.000130185
0.000630696
0.000632122
0.0014728
0.000751957
0.00171786
0.00165421
0.000621346
0.00416949
0.00235349
0.00200631
0.00190607
0.00161414
0.00284592
0.00188057
0.00126431
0.000912608
0.00284688
0.00586705
0.00699667
0.00690831
0.00311548
0.00497466
0.00489028
0.00612294
0.00428815
0.00121297
0.00134685
0.00591024
0.00152843
0.00280276
0.00654959
0.00695905
0.00496326
0.00658914
0.00225441
0.0034432
0.00517679
0.00446484
0.00297312
0.00505185
0.00668114
0.00625995
0.00537612
0.00695391
0.000875697
0.0052512
0.00660871
0.00658718
0.00261651
0.00201145
0.00133092
0.00304312
0.000638262
0.0015454
0.00081907
0.000887034
0.000378893
0.000422205
0.000890801
0.000485991
0.00459192
0.00200624
0.00116824
0.000843247
0.00245139
0.00032389
0.00097377
0.00121087
0.00061554
0.00089344
0.00109161
0.0021696
0.00251942
0.000576894
0.00158235
0.00216817
0.00123671
0.000926555
0.00130822
0.00628621
0.00634082
0.00655282
0.00365685
0.00447903
0.00421022
0.00212745
0.00336106
0.00407256
0.00564544
0.00222644
0.0060318
0.00112212
0.00443929
0.00631794
0.00270063
0.00156473
0.00500723
0.00298326
0.00298254
0.00165993
0.00174242
0.00159987
0.00260994
0.00407251
0.00468465
0.00286367
0.00379781
0.00219189
0.00396662
0.00150142
0.000215457
0.00204368
0.00430602
0.00286638
0.00128081
0.00218024
0.00171018
0.00210494
0.00381553
0.00372812
0.000632425
0.000929458
0.000812352
0.00111844
0.00133319
0.00104788
0.00365063
0.00139348
0.0050159
0.00160416
0.00159908
0.00165235
0.00427183
0.00331601
0.00161944
0.00220514
0.00186851
0.00266956
0.00280324
0.00312402
0.000773141
0.00378412
0.00539919
0.00138389
0.00247907
0.00187606
0.00244354
0.00332503
0.00141763
0.00487993
0.00434213
0.00119765
0.00347352
0.00588934
0.0025023
0.00384812
0.00525918
0.004237
0.00443385
0.00580659
0.00272894
0.00036662
0.00164594
0.00289364
0.00528008
0.000347695
0.00226628
0.00093172
0.00411349
0.00411973
0.000611838
0.00159233
0.000457918
0.00273163
0.00515639
0.00464695
0.0027865
0.00360587
0.00421062
0.00545757
0.0026237
0.00049708
0.00112347
0.0031363
0.000630198
0.00277755
0.00269272
0.00154343
0.00205476
0.00255408
0.00138598
0.00135239
0.004039
0.00214715
0.0062397
0.00375733
0.00264303
0.00567559
0.0028305
0.00514413
0.00583334
0.00496131
0.00389458
0.00287125
0.00439415
0.000694068
0.00307748
0.00290039
0.00231585
0.00240897
0.00547845
0.00337895
0.0022885
0.00231776
0.00258264
0.00418887
0.00296502
0.00350342
0.00359154
0.00388066
0.00473719
0.00601145
0.00452626
0.00171546
0.00158752
0.00178691
0.00157988
0.000778474
0.000906881
0.00105949
0.00124325
0.00108646
0.000672634
0.00289603
0.00303381
0.0029567
0.00351546
0.00210486
0.000701213
0.00153773
0.000175613
0.00147582
0.00158113
0.00132475
0.00175277
0.00121865
0.00123482
0.00133942
0.00132439
0.00177028
0.00102885
0.00182304
0.00227688
0.00265561
0.00343287
0.00349629
0.00111264
0.0026598
0.00234838
0.00118494
0.00693744
0.00597321
0.00579574
0.000402038
0.0011611
0.0015253
0.00587324
0.00381734
0.00494525
0.000769788
0.00210005
0.00272079
0.00251223
0.00129539
0.00372956
0.00104071
0.00175179
0.00231683
0.000970996
0.000928849
0.00147624
0.00150987
0.00193186
0.000580895
0.00100485
0.000420372
0.00118999
0.00162885
0.000350195
0.000404774
0.00023409
0.000971335
0.00435169
0.00651331
0.000733703
0.00103277
0.00384291
0.00215871
0.00209855
0.00220977
0.0016159
0.00066375
0.00105887
0.000336007
0.00253768
0.00244862
0.00186223
0.00201117
0.00379699
0.00245488
0.00136428
0.00043863
0.00160012
0.00172355
0.000491146
0.00133749
0.0014656
0.00169904
0.00133172
0.00284453
0.00324447
0.00160435
0.00468689
0.00631182
0.00493738
0.00155771
0.00401377
0.00341208
0.00187022
0.00279745
0.0024796
0.0014668
0.00376506
0.00246502
0.00381952
0.00440192
0.00286406
0.00214061
0.00675122
0.0046224
0.00593823
0.00409358
0.0048512
0.00124213
0.00193595
0.00621627
0.00694516
0.00595008
0.00262822
0.00256386
0.00460745
0.0036919
0.00615867
0.00209987
0.001947
0.00543198
0.00483931
0.00240489
0.00121095
0.00134757
0.00127994
0.00188664
0.00431487
0.0029993
0.00248574
0.00158264
0.000651401
0.00228095
0.00144869
0.00113102
0.00193146
0.00211593
0.00362661
0.00268346
0.000643302
0.00147805
0.000834079
0.00073842
0.00172302
0.000710039
0.00149509
0.00414888
0.000557417
0.000603991
0.00132972
0.00265898
0.00291884
0.00399653
0.00382895
0.00279546
0.00435609
0.00389859
0.00358687
0.000783958
0.00146539
0.00124984
0.00140231
0.00038843
0.00160507
0.00109774
0.00330491
0.00180173
0.00389939
0.0026473
0.00431039
0.00039144
0.00232077
0.00188888
0.00084756
0.00541234
0.00568622
0.00157628
0.0010691
0.00322998
0.00226616
0.00271505
0.00153768
0.000927593
0.000747103
0.00386224
0.00100752
0.000801045
0.00123063
0.00125095
0.00464799
0.00630321
0.00269956
0.000933058
0.000557497
0.00217139
0.000597684
0.00415462
0.00191567
0.000479859
0.0018632
0.00231127
0.000942549
0.000507156
0.00108411
0.00132766
0.00411559
0.00244276
0.0015662
0.00559113
0.000838273
0.00527467
0.00236644
0.00388008
0.00408982
0.0028903
0.0015282
0.00257758
0.00286078
0.00185659
0.00297701
0.00235094
0.00207257
0.00221371
0.00215479
0.00267054
0.00245613
0.00276965
0.00178939
0.00314874
0.000831041
0.00214852
0.000568826
0.00345648
0.00421082
0.000599302
0.00110858
0.000792638
0.000946795
0.0013572
0.00109335
0.0010173
0.00139732
0.00403951
0.00150226
0.00186629
0.000467606
0.00141042
0.00140104
0.00167856
0.000485817
0.00278169
0.000863184
0.000478025
0.0013762
0.00225806
0.00160067
0.00235101
0.00105745
0.00167791
0.000991433
0.00267528
0.00140765
0.0015776
0.00120074
0.00484648
0.00378765
0.0015705
0.00224015
0.0032453
0.0039513
0.00167193
0.00301973
0.00150549
0.00229233
0.00199996
0.00418631
0.00135983
0.00211534
0.00156774
0.00113486
0.0014217
0.00182609
0.0016147
0.00428904
0.00231621
0.00193801
0.00180855
0.00190583
0.00199576
0.00134433
0.0017151
0.000988484
0.00270107
0.00199037
0.000657753
0.00112826
0.00124058
0.00140883
0.00127762
0.0036431
0.00312814
0.00616243
0.00503405
0.0035227
0.00387658
0.00515953
0.00522125
0.0054714
0.00551306
0.00700476
0.00686318
0.00621886
0.00480855
0.00694387
0.00539952
0.00667336
0.00555806
0.00349229
0.00501958
0.0064491
0.00305995
0.00651205
0.0035312
0.00489644
0.00356901
0.00104369
0.000778332
0.00376385
0.00412436
0.00502734
0.00408677
0.00413269
0.00372618
0.00194309
0.000265615
0.00621078
0.00306611
0.00381825
0.00117572
0.00162431
0.000814731
0.00146912
0.00195545
0.00123142
0.00135147
0.000247863
0.0010932
0.00042824
0.00066
0.000989114
0.00102462
0.000468435
0.000336118
0.00176764
0.000251331
0.00142307
0.00039433
0.000546045
0.000218459
0.000475785
0.000707893
0.000821838
0.00244836
0.00133536
0.00275202
0.000725286
0.0010897
0.00140994
0.00481813
0.00078135
0.000299904
0.000528443
0.00121258
0.00250074
0.00525882
0.00320195
0.00524297
0.00338669
0.000505658
0.00214597
0.000639087
0.000472592
0.000737772
0.000200283
0.00598549
0.00635039
0.00248355
0.00584453
0.000861382
0.00539726
0.00198002
0.002175
0.00126178
0.00208245
0.0027859
0.00343312
0.00562121
0.00297028
0.00352258
0.00359892
0.00113316
0.00128115
0.000799525
0.0048496
0.00697415
0.00478116
0.00632934
0.00387141
0.00206947
0.0025732
0.00446777
0.00345137
0.00303284
0.0025786
0.00102555
0.003067
0.00197914
0.00436068
0.00114081
0.00655087
0.00654526
0.0069842
0.00145437
0.00525246
0.00226592
0.00453894
0.00407356
0.00453346
0.00573234
0.005815
0.00380563
0.00432798
0.00160197
0.00230847
0.00485425
0.00485999
0.00202244
0.00213021
0.00104579
0.00232495
0.00241719
0.00275098
0.00527223
0.00528007
0.00306172
0.00701801
0.00489009
0.00501367
0.00116347
0.00235195
0.00186025
0.00299185
0.00168629
0.00249119
0.000311981
0.00209759
0.000480654
0.00293454
0.00125074
0.00317309
0.00514565
0.00471164
0.000748937
0.00429728
0.00133031
0.0031832
0.0030754
0.00223965
0.0022256
0.00261498
0.00691622
0.00342104
0.00263507
0.00247414
0.0036662
0.00339416
0.00469984
0.0042143
0.00422193
0.00440841
0.000838364
0.00125513
0.00123589
0.00171638
0.000879603
0.00138296
0.00161744
0.000844639
0.00263991
0.00318
0.00108561
0.000952932
0.00157414
0.00057158
0.000942762
0.00106181
0.000565532
0.000574447
0.00128247
0.00137867
0.000930908
0.000836458
0.00151836
0.00180223
0.00290442
0.00220635
0.00338287
0.00215542
0.00508218
0.00195977
0.00297937
0.00154182
0.00502784
0.00180093
0.000805567
0.0035908
0.00313973
0.00276392
0.00274954
0.00229869
0.00528729
0.00593422
0.000411661
0.00152099
0.00174255
0.000487778
0.00254473
0.0044668
0.00248467
0.0034253
0.00134272
0.00192379
0.00315727
0.000413219
0.00355906
0.000196109
0.00182949
0.00222529
0.00089253
0.000637238
0.000902984
0.00138245
0.00141688
0.00235849
0.00171541
0.000927873
0.00707252
0.00389196
0.00316138
0.00100407
0.00249596
0.0041209
0.00489717
0.00110016
0.000838688
0.000886335
0.000203816
0.00073153
0.00162419
0.00149485
0.0015857
0.00606339
0.00704281
0.00470851
0.00364478
0.00271865
0.00661673
0.00544204
0.00230035
0.0013103
0.00229055
0.00502707
0.00653066
0.00287098
0.00474539
0.00252106
0.00565755
0.00583446
0.00325958
0.00380025
0.00196562
0.00359277
0.000639744
0.00380657
0.00261431
0.00195915
0.00342248
0.00325951
0.00586584
0.00464083
0.0022677
0.0021148
0.00162096
0.00266493
0.000170146
0.00201443
0.00055387
0.000926005
0.00262522
0.00109922
0.00203652
0.00142332
0.00047942
0.00103773
0.000961304
0.000603342
0.00127738
0.00208325
0.00157871
0.00158305
0.00307888
0.00101706
0.000442847
0.000207221
0.00197653
0.00158877
0.00618973
0.00334241
0.00192346
0.00137309
0.000864726
0.00230428
0.000447153
0.00107999
0.00162255
0.000730068
0.00271626
0.00158557
0.00376858
0.00637579
0.00253179
0.000872047
0.000574856
0.00068794
0.00679706
0.00170923
0.00118846
0.000949049
0.00235492
0.000930981
0.000149545
0.00152386
0.000315997
0.00176157
0.0018391
0.00485142
0.000610519
0.0049114
0.00106857
0.00124077
0.00140972
0.00174133
0.00124054
0.00158702
0.0029437
0.00299936
0.000417741
0.000888186
0.00189551
0.0062471
0.0026087
0.00171966
0.000981652
0.000646081
0.000313584
0.00582769
0.00144489
0.000635437
0.00535386
0.00171197
0.00146447
0.00545258
0.00564809
0.00133592
0.000706064
0.000522504
0.00147159
0.00187303
0.0004364
0.000615933
0.0007603
0.00132736
0.00113028
0.000932337
0.00223899
0.00176221
0.00144146
0.00303981
0.00400508
0.00190503
0.00378421
0.00474299
0.00357573
0.00200187
0.000540271
0.000207462
0.00154327
0.00199713
0.00239289
0.00106145
0.00217644
0.00153297
0.0029837
0.00249783
0.00226296
0.00361133
0.00509747
0.00448746
0.00359483
0.00423111
0.00234636
0.00181847
0.00157086
0.00156346
0.000923926
0.00186737
0.00187234
0.00174683
0.00133385
0.00051025
0.000447585
0.00131807
0.00122536
0.00116449
0.000818973
0.00239489
0.00165597
0.00171748
0.00281053
0.00194123
0.000957039
0.00173908
0.00127428
0.00135664
0.00165751
0.00201114
0.000675373
0.00546214
0.005332
0.00293577
0.00117372
0.0016568
0.0016311
0.00168786
0.00171488
0.000988131
0.000734212
0.000646587
0.0010641
0.000564677
0.000909448
0.000985585
0.000457785
0.00133385
0.00137427
0.00161685
0.00386867
0.00282682
0.00042034
0.00249929
0.00601165
0.00327034
0.00368124
0.00262012
0.00132824
0.0047396
0.00222921
0.0022495
0.0030095
0.000956438
0.00247968
0.00128478
0.000846562
0.00126974
0.000923257
0.00267155
0.00143605
0.00324864
0.00379178
0.00191079
0.00372824
0.00256061
0.00126466
0.00633966
0.00619884
0.00494612
0.0041621
0.00421138
0.00672631
0.00678663
0.0034709
0.00119143
0.00120114
0.00314147
0.0016725
0.00300803
0.00152284
0.00124335
0.00476462
0.00402312
0.0066419
0.0039333
0.00668601
0.00640913
0.00246235
0.00330579
0.00309618
0.00476851
0.00101346
0.00451259
0.00397803
0.00587197
0.0058434
0.00335618
0.00372135
0.00471669
0.00382891
0.00625116
0.000624962
0.00157891
0.0010533
0.00128131
0.00142387
0.00147384
0.000980287
0.00151392
0.000793633
0.000673779
0.0023786
0.00129909
0.00158186
0.00146157
0.000687462
0.00283388
0.000561907
0.000383145
0.00104242
0.000475702
0.00103101
0.00103317
0.000549934
0.000400315
0.000553728
0.000412028
0.000371432
0.000678285
0.0010648
0.0015933
0.00303014
0.00158748
0.00300721
0.00109124
0.00134697
0.00106728
0.000558426
0.00174029
0.000773151
0.000885853
0.000673095
0.000977488
0.00279297
0.00432192
0.00477789
0.000609524
0.00192024
0.00379179
0.00418293
0.00501723
0.00558795
0.00679386
0.0065428
0.00332654
0.00420316
0.00366128
0.0015529
0.00465798
0.00245928
0.00416282
0.00269977
0.00556304
0.00428065
0.00273834
0.0022834
0.00238663
0.00407511
0.00385635
0.00598781
0.00621311
0.00639267
0.00623054
0.00318652
0.00425457
0.00540578
0.00700069
0.000876982
0.000946419
0.00150589
0.00292811
0.00178903
0.00137245
0.00180457
0.00117486
0.00206759
0.00230943
0.00176471
0.00202384
0.00214754
0.00132352
0.00182422
0.00151162
0.000646732
0.0018688
0.00296052
0.00436988
0.00121709
0.00219311
0.00259917
0.00271339
0.00190124
0.00154721
0.00133158
0.0019614
0.00272872
0.00233417
0.00188855
0.00315098
0.00110278
0.00334791
0.00226736
0.000859313
0.00273829
0.00279441
0.00485708
0.00441604
0.00335758
0.00210125
0.00420376
0.000612235
0.00280984
0.00195656
0.00264135
0.00365026
0.00374689
0.00387019
0.000358022
0.00140111
0.00163076
0.000367261
0.00428024
0.0037339
0.00664899
0.00493825
0.00509076
0.00286901
0.00215264
0.00258345
0.00617557
0.00122713
0.00177766
0.00135479
0.00381737
0.00223451
0.00468098
0.0044779
0.000872084
0.0015617
0.00469764
0.0057403
0.00258272
0.000276006
0.00263143
0.00456444
0.00256519
0.000496097
0.00621178
0.00146264
0.000756145
0.00152158
0.00152795
0.0042517
0.000809565
0.000693752
0.00075124
0.000968398
0.000558628
0.00138181
0.00155158
0.00262777
0.00285517
0.00234105
0.00341619
0.0053627
0.0018365
0.00094913
0.00228544
0.00378829
0.000926672
0.00196444
0.00181901
0.00231712
0.00177182
0.00590147
0.00626303
0.006361
0.00591677
0.00539292
0.00655285
0.0050171
0.00663507
0.00248504
0.00251727
0.00439779
0.00539297
0.00387024
0.000385986
0.000260943
0.000688987
0.00146069
0.00184136
0.00201178
0.0010202
0.000425627
0.00117298
0.00205929
0.00169725
0.000197164
0.00144189
0.00416972
0.00365202
0.00445531
0.00416931
0.00122417
0.00182851
0.00193165
0.00222714
0.00046778
0.000791014
0.000786948
0.00249765
0.00100874
0.000942108
0.00112378
0.00346533
0.00396172
0.00426729
0.00352563
0.0025247
0.00167328
0.00127551
0.00389217
0.00193939
0.00177222
0.00227719
0.00289481
0.0033436
0.00138281
0.00177862
0.00229395
0.00393359
0.00514234
0.00695198
0.00537754
0.00377603
0.00514411
0.00336626
0.00671548
0.00388713
0.00397892
0.00328608
0.00350641
0.00354871
0.00577228
0.000598352
0.000927982
0.00119897
0.00014807
0.000226921
0.000327062
0.00159176
0.00114096
0.00139666
0.0023252
0.00149739
0.00660086
0.0058005
0.00225766
0.0018358
0.00178203
0.00120789
0.000442245
0.00285912
0.00156585
0.00214613
0.0030243
0.00263887
0.00228291
0.00174084
0.00226807
0.00355451
0.00199503
0.00185634
0.00283054
0.00465039
0.00522215
0.0019051
0.00100315
0.00150729
0.000967125
0.00135159
0.00237779
0.00208892
0.00122191
0.00274866
0.00300312
0.00159546
0.00673133
0.00613075
0.00460209
0.00591266
0.00133705
0.00141972
0.0012782
0.0015481
0.0012218
0.00131289
0.00128036
0.00119569
0.00137929
0.00149676
0.001512
0.00105008
0.00154666
0.00149136
0.0014551
0.00176593
0.00345914
0.000617869
0.000529735
0.00163431
0.000872052
0.00320376
0.00171312
0.00183842
0.00196876
0.0030098
0.00268346
0.00091222
0.00668301
0.00148903
0.00120695
0.00306389
0.00262015
0.0053568
0.00207061
0.0028761
0.000955929
0.0022583
0.00103091
0.00111327
0.00203759
0.00137786
0.00506482
0.00618376
0.0069845
0.00267274
0.00340408
0.0058922
0.00653682
0.0040248
0.0069085
0.00496972
0.00230848
0.00128597
0.00460522
0.00337605
0.00172964
0.00311165
0.00217832
0.0017734
0.00515696
0.00100422
0.0018049
0.000746256
0.0026086
0.000629107
0.00180555
0.000594854
0.00238338
0.00156422
0.00166064
0.0026745
0.0013621
0.000610311
0.00253947
0.00337425
0.00629247
0.00307345
0.00106689
0.00265126
0.00581577
0.00450106
0.00615734
0.00326
0.00534987
0.00395133
0.00427372
0.00247848
0.00422677
0.00370759
0.00336755
0.00326208
0.00265293
0.00416648
0.00680592
0.00226787
0.00213349
0.00158771
0.00190758
0.00346221
0.00601884
0.00560138
0.00269797
0.000614414
0.00452351
0.00203499
0.00515503
0.00222884
0.00219934
0.00481214
0.00508189
0.00186434
0.00307986
0.00213462
0.00147194
0.00351534
0.000541699
0.000650164
0.00057795
0.00198072
0.00202707
0.00139102
0.00146258
0.00177989
0.00117457
0.00143443
0.00250136
0.0010937
0.00248313
0.00147398
0.00182246
0.00119601
0.00104776
0.00103564
0.00690282
0.00178908
0.000618664
0.00276024
0.00194517
0.000322513
0.00264401
0.00154465
0.00460304
0.00140165
0.0024167
0.00443663
0.00477048
0.00332005
0.00152317
0.000960577
0.00116476
0.00215595
0.00177604
0.00314394
0.00115245
0.00167273
0.00198014
0.00647063
0.00432874
0.00630273
0.00594563
0.0034593
0.0042867
0.00600916
0.00520365
0.00628616
0.00102969
0.00254266
0.00208361
0.00199235
0.00274744
0.00172106
0.00170107
0.00154446
0.0017932
0.00324801
0.00160798
0.00107329
0.00126592
0.000415287
0.000701497
0.00554893
0.00255948
0.00434392
0.00332562
0.00430655
0.00339262
0.00214266
0.00114276
0.00198244
0.000916021
0.00127207
0.00115755
0.00251658
0.00233542
0.00128845
0.00133823
0.00187206
0.00209128
0.00259423
0.00117019
0.00193729
0.00236069
0.00170157
0.00166787
0.00226308
0.00114066
0.00258673
0.00199669
0.00184836
0.00158901
0.00274232
0.00128956
0.00128017
0.00357481
0.00121631
0.00387917
0.000957432
0.00120036
0.00166591
0.00354756
0.00375117
0.00538212
0.000393114
0.00563403
0.00145226
0.00579489
0.0013103
0.0016268
0.00172909
0.00167497
0.00222841
0.00201888
0.00235378
0.00148871
0.00134624
0.00340171
0.00185719
0.00307113
0.00180485
0.00572743
0.00128666
0.00145751
0.00252475
0.00202896
0.00145322
0.00151214
0.00148058
0.00154273
0.000896678
0.000797418
0.00210435
0.000711178
0.000623855
0.000534203
0.0012069
0.00422734
0.00292241
0.005102
0.00173414
0.000780009
0.00330662
0.00521291
0.00331065
0.00104695
0.000968926
0.00172682
0.00112392
0.000662827
0.000659889
0.000846423
0.00112225
0.000523573
0.00173088
0.00175758
0.00142402
0.000980184
0.00318125
0.00614542
0.00427746
0.00329045
0.00685563
0.0038851
0.0025797
0.00347031
0.001527
0.00216233
0.00566718
0.00507221
0.00350682
0.00329982
0.00584195
0.00644019
0.00412534
0.00632518
0.00654182
0.00618776
0.00477161
0.00150544
0.00258381
0.00437049
0.00209238
0.000962057
0.00210646
0.00224837
0.00173946
0.00422547
0.00191872
0.00302687
0.00368058
0.00218703
0.000386178
0.000243303
0.00116705
0.00182209
0.00369739
0.00067018
0.000963319
0.00284594
0.00388006
0.0032627
0.00297621
0.00170881
0.00198488
0.00300966
0.000763543
0.00011714
0.00144181
0.000178723
0.000179729
0.00061139
0.00106896
0.00125644
0.00434906
0.00327006
0.00364749
0.0026475
0.0047849
0.00454497
0.00352955
0.00348076
0.00420807
0.00555919
0.00414152
0.00372286
0.00369857
0.0034747
0.000470453
0.00193821
0.00160793
0.0025628
0.00708526
0.000538027
0.00361371
0.00275308
0.00272808
0.00310599
0.00192942
0.00190679
0.00219253
0.00672548
0.00396338
0.00597023
0.00455937
0.00220894
0.00583081
0.00395415
0.00380331
0.000836262
0.00358267
0.00422697
0.00341229
0.000867776
0.00555609
0.00604362
0.000655005
0.00240717
0.00164637
0.00108003
0.00153014
0.00387722
0.00423551
0.00165381
0.00130742
0.00115142
0.00393982
0.00621951
0.00454095
0.00528737
0.00305707
0.00373778
0.00158047
0.00491111
0.00478794
0.00586419
0.00505955
0.00513584
0.00574554
0.00436427
0.00158989
0.00467546
0.000576049
0.00430286
0.00144026
0.000490103
0.00458234
0.000882135
0.00688265
0.00406963
0.00566588
0.00528781
0.00649415
0.00374073
0.00684169
0.00617691
0.00481223
0.00338426
0.00247269
0.00253402
0.00370474
0.00409961
0.00141534
0.00198891
0.00269051
0.00140549
0.00210334
0.00235188
0.00388503
0.00384303
0.00339342
0.00510874
0.00588812
0.00574044
0.00675294
0.00408839
0.00435184
0.00482492
0.00554184
0.00479405
0.00535306
0.00163956
0.00322989
0.00415025
0.00194036
0.00265393
0.00207257
0.0022573
0.00464488
0.00323503
0.00217498
0.0015829
0.000537082
0.00149027
0.00443795
0.00436038
0.00430042
0.0035085
0.00321434
0.00105581
0.00332747
0.00100026
0.00378435
0.000731087
0.00290194
0.00266912
0.00520463
0.0036143
0.000754053
0.00069832
0.00304338
0.00668142
0.00672491
0.00673743
0.0063682
0.00217385
0.00647923
0.00640343
0.00221189
0.00653775
0.00178767
0.00171742
0.00603427
0.000893481
0.00099094
0.00225307
0.003047
0.00363731
0.00377319
0.0028933
0.00255487
0.00317368
0.00437355
0.00320252
0.00385847
0.00502381
0.00524822
0.00649754
0.00315379
0.00310956
0.00584727
0.00335776
0.00347384
0.00243357
0.00193029
0.00128299
0.00268088
0.00214997
0.00286535
0.00351237
0.00322163
0.00536538
0.00583775
0.00211746
0.00291257
0.0017007
0.00182674
0.00209013
0.00141604
0.000806933
0.000819209
0.00692067
0.00250237
0.000353654
0.00414585
0.00202199
0.00201504
0.00179526
0.000389821
0.00229772
0.00158947
0.00179759
0.00200953
0.000761241
0.000665782
0.00147155
0.00166484
0.00176279
0.00660094
0.00435074
0.001648
0.00476296
0.00159212
0.00110888
0.00174527
0.00125178
0.00323722
0.00210939
0.00164414
0.00175225
0.00458665
0.00354153
0.00369808
0.000567862
0.000891364
0.00103487
0.0002249
0.00423518
0.00124149
0.00166276
0.00107009
0.00100449
0.0015186
0.00103772
0.00206151
0.00184234
0.00129575
0.00130802
0.0012408
0.0013604
0.00145171
0.000590405
0.00691218
0.00451347
0.00631439
0.00673336
0.00600597
0.00570596
0.0065993
0.00108453
0.00691048
0.00534345
0.00515555
0.0029957
0.0054337
0.0013588
0.00291939
0.000772992
0.00452049
0.00603636
0.00350646
0.00267575
0.00401262
0.00143537
0.00193032
0.00321211
0.00266622
0.00358623
0.00588686
0.00176351
0.00346427
0.0045128
0.0032227
0.00312614
0.00072561
0.0020639
0.00363283
0.00289603
0.000637219
0.00224802
0.00537207
0.00435957
0.00592469
0.00308655
0.00175691
0.00155642
0.00317639
0.00425104
0.00192997
0.00382623
0.00217259
0.00173474
0.00115818
0.00129072
0.00205052
0.00334711
0.00141766
0.00215392