/*--------------------------------*- C++ -*----------------------------------*\
| =========                 |                                                 |
| \\      /  F ield         | OpenFOAM: The Open Source CFD Toolbox           |
|  \\    /   O peration     | Version:  2506                                  |
|   \\  /    A nd           | Website:  www.openfoam.com                      |
|    \\/     M anipulation  |                                                 |
\*---------------------------------------------------------------------------*/
FoamFile
{
    version     2.0;
    format      ascii;
    arch        "LSB;label=32;scalar=64";
    class       volScalarField;
    location    "0.0817324";
    object      p;
}
// * * * * * * * * * * * * * * * * * * * * * * * * * * * * * * * * * * * * * //

dimensions      [0 2 -2 0 0 0 0];

internalField   nonuniform List<scalar> 
3991
(
-10.99
44.0623
0.941204
-8.16367
32.4988
-6.60202
-46.7278
32.5906
-15.0368
12.7686
14.252
2.40236
6.20658
-0.0957404
-27.1727
0.804276
13.2191
1.75131
-5.77379
-43.686
-7.57228
-44.6233
-8.91571
-21.1947
22.7088
26.5902
39.644
23.1898
12.3451
7.12888
-34.5544
18.0025
-53.1074
12.9435
-14.3651
-5.48795
-46.7428
-19.5818
-0.516652
14.056
-53.9483
-7.50137
3.08959
-5.79264
-9.86264
29.1668
23.8981
3.87649
1.67102
39.6192
32.3695
-50.6552
-53.99
-8.44255
-2.84714
7.8194
-2.26943
-7.1802
4.07197
6.82995
33.836
40.0136
29.9467
29.8309
-16.1912
-9.89987
6.20673
-11.9602
-45.4283
-9.98494
23.9731
-7.18761
53.144
4.23408
34.953
-15.5379
49.176
22.8741
-7.23935
-39.7962
-6.50477
7.3986
50.9654
12.4421
32.6737
34.8057
-0.719136
7.81809
41.6077
-5.22596
-9.05393
18.2275
25.39
-2.3815
-3.81224
8.50731
23.6551
35.2407
56.4996
0.201128
0.515595
2.72664
-29.2199
1.70099
2.68261
9.34265
-6.8552
-48.7651
35.949
-31.0209
-51.4896
-6.17885
51.722
-4.25915
1.00606
-44.8383
-45.791
-36.6428
0.633121
22.7135
40.2721
-15.7554
-10.3833
11.3668
-36.1702
8.04808
17.1561
-6.84
-15.2197
-30.9747
-2.19835
14.0249
16.3578
-5.73686
-8.86809
-0.329736
-3.50077
-4.64027
2.15398
29.4733
6.5435
41.8116
36.7544
41.7884
8.99875
28.4158
-12.2762
35.2227
56.4086
23.2439
2.76469
8.13672
34.2292
25.455
-38.4331
-14.691
40.4558
21.8757
25.5949
38.5366
13.4253
24.8866
-3.44819
49.7996
23.7195
-10.1042
23.5506
-27.871
-28.6435
-5.42759
-4.27806
-6.51928
-25.4812
41.0792
41.5704
42.472
-29.5108
-2.57122
-0.212885
-24.9808
-2.48802
18.6893
22.5763
-40.3395
0.0274286
4.88847
-2.42311
6.17484
-5.45116
-45.1111
-45.0525
-7.66206
-145.091
-55.3495
2.47956
-50.7265
-15.6805
-2.09878
-53.3318
-8.07224
1.11766
-12.9474
28.5701
14.1579
-0.718521
39.3636
35.1903
8.54604
15.9403
29.9566
32.4801
13.2373
18.8211
50.0918
17.4488
-12.2468
-1.96772
42.293
-12.1508
-55.5523
14.3013
52.4916
26.5882
54.2412
11.3617
-11.4893
-23.8349
-4.82368
15.8151
34.4077
13.07
-10.2985
41.3445
49.9201
10.5315
-24.9606
-9.7344
-1.27452
-2.13778
39.5239
-25.6305
-1.69628
-53.1605
-15.1092
-51.2012
-3.86248
-4.44859
-7.94306
-13.3581
-20.0652
7.04401
-6.3417
-12.9618
-5.53827
8.61975
-4.75099
-17.8836
30.4564
18.171
-18.6651
-16.8716
41.8445
-53.8371
54.2198
1.66809
-46.8765
-36.7058
-4.98829
-28.4061
-21.4407
-44.5601
-8.96905
-9.67713
-15.0022
21.9863
-9.77128
8.50055
-10.0473
-3.13601
10.9072
30.2348
-5.10421
-4.08629
-53.1228
-7.27069
-25.1643
-8.73195
49.7347
-42.7024
16.7328
51.3783
-40.5738
-5.50666
-0.592188
4.80509
-2.49942
14.0252
14.6615
20.7945
18.4538
9.47805
7.66775
-5.6209
16.7671
-25.1267
-20.5596
-2.37717
22.812
-10.59
37.8143
1.33985
9.561
9.27341
9.67541
33.9032
3.17674
-19.8382
0.820632
34.5555
3.34844
18.8948
13.0872
-2.62829
-7.39825
-14.1991
1.55441
0.85878
-10.9761
-24.5028
-31.6081
-53.3972
48.0784
-10.2081
9.79629
-36.1018
-1.87158
19.9295
-4.11042
-14.018
22.7694
-30.3422
14.0048
-18.0444
-13.6441
5.33157
4.76708
-3.81957
28.2676
-4.2276
-4.21376
-3.78987
-1.84993
13.6499
35.4395
-3.34852
40.4934
-10.4525
-2.29196
-47.7
-31.986
-26.4375
-11.0808
14.3695
53.3883
6.57447
11.3875
29.9519
26.1711
-3.14979
-23.2356
28.8395
18.7024
27.6786
-35.7078
-5.35151
34.8514
-19.424
-10.2666
-7.79512
-4.29352
-51.2072
-54.6112
23.377
-0.287884
12.5441
17.2759
-20.6702
-33.0346
-54.4498
-20.1745
-25.256
-46.5153
-27.4486
-11.474
-1.37496
-54.8215
-9.23086
-0.388567
-53.4498
-54.1954
3.69669
-22.384
-51.4061
-25.3377
-54.5024
-6.50603
27.9396
33.7293
-43.2834
20.5331
11.1316
-44.7634
-40.6459
-30.8684
3.36993
-1.94359
-1.49479
-35.5259
-8.28984
0.924644
-0.923016
-48.1051
1.28846
1.46704
2.89613
-21.3324
-18.1965
-46.0227
-47.4867
-4.02171
-48.1022
-28.039
-36.7181
-6.59963
-4.77334
-4.04451
-1.09873
-4.27152
-22.7408
-32.7635
-28.1746
-27.9437
-26.8826
-29.3339
-6.6298
-9.14626
-7.84505
-11.2136
-23.3304
-0.996375
-14.0819
-13.1523
48.6177
-10.9115
-12.3902
-13.7605
-16.306
-8.66725
-13.8816
-9.80047
-7.99007
-10.0718
-11.9893
-18.0249
-13.3794
-15.4857
-24.1304
-8.00139
-11.0183
-14.7467
-18.9729
15.5472
-6.56026
-2.5105
-5.98409
-1.94132
-6.58699
-5.37182
-7.30049
18.3749
21.4123
-32.5123
-38.3277
-24.3808
-30.6366
-32.2244
25.6165
25.1344
14.5682
6.23097
21.6268
-6.78325
13.1558
11.8827
-24.8229
-10.2258
9.57318
4.59139
-4.73279
-5.66102
12.3781
18.6801
-0.911382
17.0019
1.87939
6.37445
1.2844
6.46942
3.90487
3.9803
3.78969
4.93183
4.86498
2.23885
3.49197
3.2995
4.3304
6.7582
3.55821
9.53928
11.3747
21.8417
16.859
12.1157
13.4011
10.2732
1.59484
14.3826
8.96486
5.81129
-6.84857
12.7854
-4.38633
-5.38622
44.6146
40.3922
51.5844
46.8526
47.4476
46.1751
-3.71933
-51.7227
6.76219
-24.4504
-18.8883
-2.9742
-1.54589
-27.7298
-22.8379
-11.6611
-12.172
-0.243272
-1.12148
-3.44993
-2.30566
-1.65859
-1.89661
0.220251
0.338189
0.42742
0.268928
-6.02754
-17.0458
-11.2465
-21.2633
-6.54374
-20.8254
-10.4253
-2.98903
-38.8015
1.10534
-52.672
-29.9467
27.569
26.1545
-41.8928
-14.6155
-16.3497
0.360871
-3.65591
-33.6647
-54.4795
-26.5985
-30.4982
-51.7945
-20.4484
-3.25652
-7.34965
41.0464
-52.6631
1.11677
-25.1224
-15.8296
28.6737
43.3104
38.0255
-0.247584
-3.99585
42.2381
-4.99969
-49.0115
-44.9937
-4.35093
55.4858
-5.26893
5.43457
2.19814
44.2894
36.0774
43.7634
44.8377
8.10299
10.3294
8.9073
-25.7123
-49.359
-49.2974
-48.5332
19.5624
20.6927
-4.41026
0.119113
2.03085
-9.25506
-0.298668
42.9621
10.73
6.43408
-8.16526
-9.71241
-7.22285
2.48017
-8.78056
14.6584
1.1217
-17.9453
58.6477
-36.3691
-8.36916
2.71253
-7.05183
3.71911
31.8959
19.6076
35.3838
-52.3355
-14.6048
9.63869
-1.37014
33.219
-51.2123
58.1657
-12.7609
-23.8944
-3.77447
46.0263
10.9128
4.96745
12.4629
-5.01026
24.7852
29.3931
26.101
-15.7141
8.77723
-42.946
10.8325
11.9156
48.3087
22.3576
-17.6681
27.833
6.62636
-2.92524
24.8177
3.13388
-8.07936
-4.90021
-50.9688
-18.3856
-38.507
-42.6914
-53.5302
-9.28015
5.1628
-50.8072
-29.6521
-47.8
-65.788
-21.7917
-46.8472
-2.83708
-31.8975
13.4898
-1.35518
-9.90876
16.2415
9.0838
7.68767
-6.07377
-14.9293
5.63951
-7.08318
-3.76018
-47.3377
-27.8986
47.0273
-45.042
-5.99781
-6.00419
-45.3193
-3.53515
-46.9956
-5.77362
-1.674
-13.8465
2.21244
-23.7718
-2.32871
24.0713
-22.145
10.3873
-50.1345
-12.2492
-13.9089
-18.3593
-16.3324
35.0176
-52.6197
-25.558
-51.0627
-52.3809
-48.1887
-49.9633
-49.9721
-41.9858
-36.1746
22.3903
-49.5526
-49.3373
-21.7276
22.8433
-26.571
39.0944
34.4931
50.7554
22.7268
31.2761
40.6183
34.8986
22.3166
56.9038
15.2629
15.2174
14.3199
11.0292
-28.4877
10.9562
19.0617
21.0839
20.5264
24.4818
36.6387
-10.8003
28.7396
40.5661
-2.15748
45.7891
-54.8841
-30.446
-45.1549
-14.8776
-15.0837
-22.0038
-49.2437
1.43553
2.09566
1.00728
2.29058
-9.46362
7.36035
8.67943
4.36676
6.96933
9.77802
2.917
4.77703
4.91547
4.24367
5.01491
4.3683
4.44629
7.35539
10.7544
12.4767
26.296
9.86716
9.88573
-2.41865
-28.2782
-52.3651
-48.2224
47.6796
50.3473
50.1615
47.8467
47.581
50.6753
51.6223
53.3668
31.0075
19.9363
25.4444
23.8321
21.2539
22.1706
16.4894
14.9362
12.5744
20.0235
43.61
46.0931
42.9327
44.1412
48.3785
36.5143
4.89994
5.69021
4.03948
6.42765
5.49662
-2.90361
-8.08577
43.582
44.1549
10.8947
8.30921
10.9213
13.7139
18.7094
11.1945
5.61511
-21.63
-22.7284
-7.01616
10.8399
-17.9634
-7.05318
-7.00797
-34.3386
-3.57361
-43.4086
-11.0171
-16.9576
-41.6292
-0.833129
50.6147
-52.679
-53.3176
-7.12187
-53.5919
-32.8286
-38.3874
-11.9211
-21.3711
-5.03026
-34.2522
-3.14786
-6.91284
25.3795
33.8665
29.4042
18.9638
-29.1339
-10.8547
3.40146
-33.6445
43.0931
9.21923
8.47275
-53.1531
-56.6358
-19.8741
-22.2595
-27.9578
-28.6666
-31.6009
1.01827
-15.2598
-57.7513
-94.3636
27.1819
-15.5499
-11.6726
-17.5121
-20.2629
-28.3478
-36.0135
-54.818
-50.5369
-12.0967
-8.04084
-25.9339
-2.00668
44.712
-43.6085
-51.3819
-9.71926
-36.9441
10.8986
-10.4994
13.3529
2.19045
-49.6602
-11.3418
-3.22004
-20.2513
-47.4834
3.40852
-28.674
-8.96807
21.841
-14.7625
4.39814
-0.125986
-5.05649
-15.4103
-6.56173
-29.1628
-0.651217
8.08656
-7.8569
1.27797
-7.68576
-41.3299
-1.68429
-54.3537
-34.563
-30.1191
15.0567
19.8852
-2.64588
3.31403
-40.5578
49.4527
2.06532
20.7544
-16.0264
12.5652
-49.8118
-38.06
-20.4845
-19.9808
-36.054
-28.3799
13.8206
-1.51558
-35.8236
9.16454
-6.7624
-47.6226
-11.5073
-7.10816
22.4113
30.3318
-4.66803
2.33503
14.168
-4.79283
-16.2487
-51.7361
-51.8727
16.8855
22.7158
4.30402
-16.0652
26.2787
-51.9408
-27.5896
6.15873
-36.4842
-23.8332
-16.7627
17.6214
9.11599
-0.338656
7.92573
4.56547
5.64929
-7.47995
3.13142
6.21887
14.5473
2.80545
25.501
22.708
38.0681
15.7061
15.9854
12.7504
5.89007
-11.5355
27.3017
6.3201
9.35609
38.1886
30.9673
-17.5565
-8.40091
3.37358
3.2462
-1.39486
-6.08949
-17.6744
-7.75347
4.28689
-10.0659
33.8185
0.574225
7.60868
4.20972
3.52948
0.280367
-0.0240926
1.05793
1.49347
4.21134
-7.43428
-78.2927
42.7761
48.0422
50.0467
28.9807
-5.90702
-0.457358
-12.8045
11.1865
-5.17671
-30.2852
-16.6611
0.29374
-17.233
1.7768
-80.8126
18.543
25.1275
5.93109
-17.9924
22.8861
-2.82312
30.1769
25.37
20.5828
17.6546
32.5607
6.48457
-31.7827
10.2126
32.6811
36.9071
25.7873
-9.43054
35.3963
-14.7267
30.5034
-10.6517
0.778203
3.54292
4.93309
14.8316
12.5396
14.5043
11.6797
13.2951
14.9576
13.1578
-5.66777
-24.665
-12.3052
-32.5302
32.1136
-66.5409
-106.178
-48.4777
-111.229
-87.5415
-21.0695
-21.7106
-54.3785
-31.0254
-51.0704
-11.7439
-37.7933
-54.412
-21.4213
-22.2917
-20.0743
-24.6522
-38.4034
5.5081
4.50152
-2.11235
-6.71814
-39.4656
-13.3471
-53.7359
-53.3039
-8.06155
-48.8008
-10.7557
-27.968
-8.28766
-14.8565
-56.3467
-30.9493
-8.27578
-96.3132
-7.87674
-66.3153
-29.6416
-68.3024
-50.7854
-55.1139
-45.6177
-53.338
-46.7854
-51.5617
-0.825874
10.9928
-0.168496
-6.91116
-4.80219
30.4892
1.83162
-4.33722
-20.8304
-0.0841907
-12.5078
-6.2396
2.65211
1.20202
-53.3254
24.1074
57.7673
12.7541
-47.1193
-47.9605
-41.8464
-26.4336
-33.0042
-38.6129
-44.3204
-50.4738
-50.0363
-35.883
-34.0109
-23.5789
-27.8649
49.6574
23.2426
57.8917
-28.4324
-12.9403
-32.3987
-20.9771
-3.0477
-3.11409
-3.7924
-2.66591
-1.70651
-4.34497
-4.25938
-5.1783
-48.9872
-50.0311
-53.4401
-50.6667
-45.4266
-50.2871
-37.9114
-44.6446
-36.698
-30.7507
-26.6392
-21.1665
-18.4826
-24.7506
-23.12
29.8091
10.4766
9.48899
15.7417
-38.9844
47.1847
13.5553
-20.3496
45.7814
45.0717
51.9915
16.6602
-56.3412
43.1165
-5.83699
-1.98581
-12.9052
-14.1889
-7.06291
-48.955
-9.83258
22.0226
-2.80854
-18.7661
4.624
16.083
13.9006
23.5296
15.4018
18.0889
-5.22
19.3896
17.2771
8.97753
-5.12687
-10.3684
11.6657
9.05763
-48.8081
11.3437
-11.9642
-15.3346
-18.7572
-14.2392
7.22718
31.005
14.9631
46.605
18.2948
40.3423
0.693614
-13.3626
-12.2241
-2.98445
2.69587
13.6683
7.469
2.15329
-4.41228
-0.380195
0.15705
-3.77226
-1.89475
-1.38318
-29.8201
-22.089
-16.0434
-14.0588
-29.5723
-33.4532
36.088
46.8966
8.76708
8.62793
7.1241
51.642
8.13968
6.7289
28.0109
22.0095
21.4924
1.30447
-3.63524
-1.80252
7.3479
22.2992
-3.625
7.18693
9.62193
28.8834
-13.8645
-13.2514
-2.91012
1.84027
6.75998
43.7159
46.7434
46.6893
19.3448
32.5253
23.7208
0.700093
2.05886
0.382224
30.424
-0.148204
-1.30651
21.5468
18.9496
-1.13159
27.6154
0.202442
0.517234
-50.9714
-10.1553
-10.969
-69.6541
-0.813299
-0.780158
0.919785
1.89751
-19.0344
4.11188
4.85357
2.57661
15.2846
16.1492
21.0208
3.78491
-5.35338
-7.75164
13.83
19.1324
43.4983
6.62854
5.10168
1.08834
-8.14782
-2.36603
-6.48433
-17.58
12.2006
10.5891
10.1677
27.0336
-43.2479
18.3091
27.4046
14.5049
-6.00201
27.7276
-5.87651
44.4118
2.19441
3.44095
-0.474711
52.6632
10.6844
52.4631
7.26655
-0.114705
5.59153
-9.47244
-5.03712
-3.3179
-8.84747
-2.98068
2.89664
7.02967
22.9663
-9.78329
27.8158
32.4795
36.5106
41.2924
22.7224
-67.5499
14.1392
6.76772
26.542
33.5362
18.572
-89.8183
32.3147
55.1057
1.43735
-1.25806
-29.7861
-52.9231
-9.32922
-4.52582
7.9894
-0.257455
-2.14236
15.6267
-5.65697
35.1904
20.6038
-56.9361
-52.6928
9.55948
20.7128
10.917
2.58152
-6.16264
12.7008
1.86869
38.0813
24.806
5.18321
7.45867
2.42604
1.90985
-3.61615
32.4678
39.5501
35.9207
0.449613
30.1706
16.4561
-9.35268
-4.05427
2.99165
1.18173
-11.6432
-4.50009
-4.83978
4.06847
-11.4118
7.33068
-26.933
-58.1134
-22.3941
3.73906
-9.94306
-5.90979
-2.08968
11.0529
2.59275
6.37863
7.34004
14.0661
16.4454
15.628
-13.3997
52.013
48.2287
33.8101
40.9016
46.2928
52.5685
43.4291
38.2827
2.17028
-50.8365
-2.48163
-16.3487
31.943
-3.34301
21.7447
8.60695
-7.04703
-3.97469
4.22961
6.6274
7.32645
-6.00391
18.3322
-0.732742
-1.98208
21.4251
4.78793
3.84808
5.80982
4.78952
2.32835
-22.2597
-14.503
-8.72779
-6.48603
34.6036
44.3957
41.1544
0.00579818
-6.7491
-55.0172
-49.9191
-51.8929
-53.4943
3.84745
-15.0065
-10.7884
-13.5728
-6.55382
-2.90457
3.3437
-46.2981
-36.4546
-50.443
-2.09222
-13.5702
15.6341
-42.3098
-40.6332
21.7185
32.929
-14.7908
-11.7748
-12.9009
-11.0747
-12.6396
-37.1199
-54.7916
0.046497
-16.5169
-46.5705
-9.59886
-19.0168
-18.1715
6.29601
-24.3611
-39.1148
-13.5974
36.7604
-52.0811
-8.81535
0.0164285
-9.7671
2.53531
13.9707
15.681
30.9042
5.863
3.62458
7.99657
10.9889
-1.87037
-9.96475
-39.7044
-3.18693
-26.0833
-38.1295
-55.4262
27.8561
21.5934
30.0103
18.3922
23.0495
18.5686
36.4712
28.3748
51.8607
28.1142
12.8173
-47.7697
-49.4092
-48.881
-45.7139
-45.7866
-9.10736
-12.2333
-12.8955
-5.96212
-15.6625
-18.6534
-13.1841
-17.7307
-49.979
-49.2399
-46.8104
-52.4846
-52.736
-55.8037
-37.588
-29.1194
-52.8574
-46.5877
-37.4117
-47.1179
-44.1788
-46.3093
-47.0235
-54.1232
-53.5112
-53.2888
-50.3762
-53.2482
47.4588
-23.0835
-33.1925
1.94297
-8.39565
-33.9568
-49.3265
-38.2576
-16.6884
-48.5281
-12.5595
-20.4656
-6.41062
-1.82575
-8.16621
-3.13964
-8.42536
-13.8151
-13.8524
-14.5858
-3.70531
-4.65389
-5.69165
-24.6802
-8.81895
-31.1728
-44.638
-48.4278
-10.6543
-22.8534
-34.2541
-50.0041
-7.55331
-24.0823
-45.3152
-11.6222
-46.0161
-9.13539
-39.0306
-0.61611
-11.8987
-19.4157
21.0597
-6.95645
13.8747
20.2268
-22.5844
11.358
-32.3612
-18.4663
3.123
-13.6515
-1.46015
-16.625
-21.0369
-6.46996
-3.2592
28.9207
-5.25528
5.24117
-18.0457
-41.1592
-13.4661
-11.6679
-41.8915
-2.45798
-52.0138
6.55562
-31.3514
-1.58753
-15.8954
-54.3737
30.2219
1.42758
23.2647
31.6678
24.2489
4.25467
0.0508725
10.574
-2.88406
0.700113
2.74043
10.1414
17.9497
4.11249
-33.5401
14.0133
5.77161
-40.79
15.9001
12.6032
19.7778
47.3017
35.5932
-9.6522
-4.43113
-20.4002
12.3353
-10.5077
-45.0536
21.0856
42.6016
4.06206
3.10966
-1.5815
-20.7768
-34.601
-12.0237
8.8083
-1.41399
4.23094
20.8838
30.4304
43.7068
43.9526
3.29678
-39.7361
-12.8357
-13.6972
20.0209
-50.6056
-10.5786
-27.1468
-105.803
-3.35965
4.38465
-0.264012
0.114433
-0.523637
-43.0698
-60.233
-61.149
-11.3892
-2.60291
-1.60023
7.02442
-12.2129
-7.94447
-2.56312
-23.5054
-7.98647
-23.8326
17.688
15.2471
34.8787
26.363
24.9616
7.15635
31.5533
-9.1738
-53.0523
-48.7298
33.3493
31.0285
-47.2567
-10.7354
-11.3838
-24.9269
-49.1557
-42.2541
-42.3578
-47.3704
-42.5993
-53.7214
-23.8757
-24.4465
-13.179
-11.9005
-5.88045
-50.4943
-1.94383
-43.5666
-49.9526
-3.61493
-33.6391
-54.0777
3.01993
6.91967
-12.3269
-37.8631
-6.80152
-13.9683
-43.5814
-29.5969
1.00355
-6.08228
-3.27218
-50.319
-39.02
-16.4742
-43.2212
-77.4058
-49.4001
-46.1164
-43.0613
-28.6403
-17.8259
-18.6604
-34.3943
-22.5434
19.5013
-3.12478
-23.7996
20.8851
-48.8833
5.02136
-2.95815
-1.3821
2.41874
4.32919
-34.7086
-0.651692
-7.89757
-24.5577
-32.829
-33.8935
-23.6451
-24.5483
-47.1052
-25.5108
-17.4921
-17.3285
6.25155
-33.044
-2.73696
-15.9351
-10.8885
-41.9369
-14.6512
-22.9618
-33.7193
-34.0429
-38.8805
-18.695
-31.4411
-72.7296
-6.26502
-55.4984
-29.4518
-34.0424
-5.25563
-20.4678
-6.71084
-38.4291
-38.6828
-6.77223
-27.9602
-17.374
-5.98434
-15.2467
-38.3786
-41.6262
-25.0228
-1.15761
1.30637
4.51062
1.59396
5.0274
36.4845
33.7019
46.4413
45.5514
46.7408
42.4468
3.35314
13.9367
27.2326
20.2992
20.694
7.75326
-60.1127
-24.1083
2.29229
-47.3691
-3.42171
-3.23466
-21.6044
-31.4334
-2.37747
5.69396
-24.5247
16.9554
-8.94474
-4.35774
-3.88331
-3.99954
16.5176
0.2726
-6.87721
-3.77374
2.91173
24.5938
18.9526
7.83978
-13.0028
-14.1686
37.8663
33.577
-8.26926
35.7468
16.5025
32.22
40.2089
42.796
10.2109
18.2719
-1.1162
8.24408
40.4019
20.176
16.398
19.2755
18.6412
22.3688
1.01145
-5.36179
7.9495
1.60545
5.41367
4.42152
8.05019
-4.89777
4.71395
5.24645
-2.89845
-4.57021
30.3197
38.9846
-5.62275
32.1012
-41.0422
38.0368
45.1956
40.9165
16.8809
17.5268
30.6364
18.2585
13.1105
12.5047
11.5316
4.3889
4.0093
4.73584
26.1038
19.3533
21.0442
-8.90699
-7.74611
4.47734
3.79779
0.576417
3.46419
15.8023
21.1062
-51.9352
15.7256
13.8784
13.2724
-6.98133
24.6768
32.4666
-6.74451
-5.89329
-17.0818
-14.818
-17.2402
-25.5406
-10.2617
-8.5248
-22.6922
11.5828
13.5089
19.0724
13.5051
-6.72062
15.9715
17.7749
5.16859
7.64247
2.58671
14.1725
13.4412
20.0144
13.0544
11.575
9.77094
7.93889
17.9999
-4.34743
8.26075
-2.69548
12.9218
11.3835
-3.30382
0.41246
0.251923
1.44017
0.358422
4.33941
-29.6715
-50.7666
-33.1849
-44.6846
-37.5296
-19.2701
-22.1753
-4.02841
-2.95899
-7.48924
-3.94356
-25.0918
-39.847
-19.2503
-9.25682
-22.1246
-12.1846
37.0543
-17.018
-51.9078
-54.4627
-48.7394
-42.8909
-37.2859
-38.8352
-32.9842
-25.7347
-49.937
-52.1529
-48.4179
-51.5875
-52.3086
25.2464
30.0162
7.53035
-54.0063
-48.3864
33.3117
20.0811
-33.2304
-42.4409
28.8936
-74.416
-51.9481
30.2109
46.0005
17.6695
36.2159
24.1384
29.4154
47.2058
52.0978
35.6532
-49.7782
-50.4557
-55.615
-49.8426
-13.4807
44.0329
-33.0568
-53.3367
-55.107
-54.4553
33.1859
14.5803
31.7906
10.4021
34.6121
20.9245
8.66668
-15.4862
-67.8917
-54.6457
-5.33289
-26.5435
48.6272
47.0712
48.3939
26.8259
7.79726
8.33112
-20.2078
53.2351
18.7185
20.0835
14.079
9.50927
55.5035
57.5396
-40.6221
10.1097
56.7053
-8.36715
-46.9631
55.0123
17.3099
-32.9511
13.9696
-50.515
30.6092
29.4131
-1.02736
38.6312
19.9485
-10.866
-2.28043
-23.7904
7.60247
-14.6693
41.173
-43.5152
51.5415
3.03378
4.10911
-22.3439
-48.3894
-49.2566
26.6888
-1.94733
-18.7045
-2.24138
-7.04576
8.06573
-20.3174
-20.6918
-31.1107
50.2792
57.7988
13.0606
34.9136
-43.8637
17.3575
26.9945
51.7615
17.7366
42.1564
48.401
22.7496
22.8279
17.7666
35.3663
31.1268
34.0267
29.1198
21.0613
22.6588
27.6575
12.7976
22.0774
12.3943
20.141
16.6626
43.9724
45.6594
-11.6922
-4.4104
-2.58649
-7.1815
-12.3653
-14.4148
-7.72326
-11.5073
-4.30622
-20.1842
11.7477
9.70442
-3.62469
-6.14028
1.92855
6.43735
6.00755
-7.75359
-2.5946
1.88148
11.183
-52.4129
11.0121
-4.58879
-17.9037
-61.0514
-46.817
-19.5262
-27.7722
-0.0648602
17.4442
-14.7488
0.00709214
4.89167
46.8876
-27.7823
44.6783
16.3743
9.36867
10.9319
-18.6992
17.0462
21.7593
36.4486
12.6637
34.1121
43.6937
32.2588
-17.9433
-19.0278
12.4843
-0.813693
36.2009
5.00256
5.859
38.3098
41.0143
41.3255
45.6732
39.6287
37.7414
6.11439
-0.74749
-1.79967
-2.93648
-2.65048
44.0054
-7.62203
-2.5794
24.7505
-16.5996
-50.1674
-52.269
-4.95113
29.6743
28.4135
22.0524
16.9279
10.2857
-8.20882
15.4691
20.0248
23.0838
-19.1891
14.9336
13.8358
-8.6505
19.5803
19.5006
24.6992
12.2285
-51.6081
-51.2474
-31.5587
-24.3012
28.1403
9.43436
-17.6163
27.8791
20.4211
-5.90531
-4.92842
-13.3572
-6.54806
-25.3708
-14.5027
-1.04458
-49.1182
-0.122867
0.27756
-1.19355
-16.3653
-1.06974
-20.6798
6.03824
-2.8893
-4.74783
-4.27748
3.19785
8.82194
-51.1725
20.6597
17.8251
18.6114
-3.75421
9.1593
20.4861
8.59444
5.2006
2.64721
-10.5875
-11.684
-14.5362
-12.2849
0.105931
-50.9402
-39.2914
-30.5791
-12.951
14.252
-39.9011
13.9711
-35.4825
-43.8081
-9.37136
-51.3933
-49.9709
36.6685
31.9673
-49.92
-46.5541
-59.5702
2.44686
17.0811
-18.5716
6.12513
34.3862
22.3569
7.62758
-5.57162
-3.5454
-14.0198
-13.6681
-3.13868
-13.0083
1.66916
-21.4481
-7.9209
0.620943
-10.835
-17.1196
-8.44164
16.4423
-40.0647
2.70484
14.8821
-35.1924
-6.18916
-27.3009
9.84961
23.3054
14.7879
-10.7307
-15.7549
19.6782
16.1271
-1.87498
33.0042
14.2523
-40.893
-3.82707
18.2839
24.7294
1.55005
3.75412
4.96296
4.56717
3.32368
-28.4483
-51.456
3.87148
-0.350708
6.36317
11.5309
-6.44808
-71.8902
-16.0918
38.6869
-10.7878
-6.73273
-13.7749
-6.41581
-5.15847
-49.0795
-28.1367
-42.467
-15.779
-9.09277
25.3874
-37.7515
-36.2107
-15.8912
49.9541
-19.0985
24.3593
-13.268
-11.6002
-40.2005
22.2628
-9.58296
-36.3437
-30.2534
-40.4345
-14.9699
-42.5302
-53.4539
-33.8337
-18.6774
-36.8318
-53.7657
-50.9851
-55.2025
-14.5625
-10.7918
-35.0407
-0.086096
-7.19277
-7.85493
-24.1271
-4.54063
-11.8028
0.125737
-4.73162
-8.43287
-1.84819
-15.8503
-8.36034
-5.82444
-5.17153
-8.94059
7.51865
10.1768
-2.68344
-7.1515
6.15124
-40.1033
-11.9366
-36.0261
-16.6842
-11.3101
-0.10828
19.9187
37.4758
1.23532
-0.360853
4.02636
-4.95424
1.85655
-20.9186
-15.77
-35.2058
11.2155
-16.6712
-11.7332
-4.02546
-10.6444
-9.16518
-31.5549
-45.3998
-47.7567
-77.4957
25.2798
-51.4909
28.5088
56.8872
26.9981
31.9882
22.5593
27.9494
26.4239
-18.5227
24.9746
2.60635
-20.3709
-21.0878
-4.34312
-23.5673
-1.66307
-1.17844
-42.5359
27.3737
14.8332
-23.9701
-33.0795
-49.9916
11.2845
2.81877
4.31972
3.9774
2.16907
12.3748
17.2505
-1.41983
1.0197
-0.710228
18.0564
29.0073
10.3442
-7.82403
18.9591
0.527992
8.71197
-2.9246
45.8394
-7.19314
-0.435981
3.49259
-3.38449
0.405966
-3.07164
10.7935
-5.41833
29.0676
30.352
19.4981
7.53074
9.61061
8.16718
0.599419
-49.4061
-48.3317
-19.5762
-15.8349
0.147573
-10.2044
-0.658634
18.7658
2.28416
4.50636
7.69575
-2.84292
-14.1633
-4.03922
6.96126
5.38674
-3.24494
-0.107901
0.204465
11.4732
-1.36962
-0.93331
-2.78786
1.75001
16.7735
14.7657
33.9987
27.9611
34.1687
29.3246
18.5574
-87.4989
32.6077
23.8125
32.2844
24.939
13.5772
19.3392
-47.1269
6.45672
20.9777
36.6324
-30.3716
-1.99599
-52.3605
2.99993
-5.90898
-6.0285
-7.81675
-27.9736
-14.9232
-51.8169
-51.1252
-51.0027
-34.0051
-41.5889
-11.1213
-9.73662
-53.9936
-3.72051
-41.0475
-19.5835
-13.247
-28.6357
-49.8664
-51.9296
-11.313
-53.7024
-9.65608
-11.745
-9.82017
-51.1687
-5.26147
-17.7046
30.2553
-53.5726
-8.03557
-18.1373
-8.41936
-52.6357
-13.1623
18.2252
-53.5784
-32.6784
-6.83277
-7.61386
-48.4051
-45.9466
-13.448
-6.35929
-13.7607
-10.922
-3.64045
-1.43011
43.2299
0.698448
-6.84641
-2.52971
-1.58229
1.62593
4.27654
5.15949
-1.74842
1.98637
2.84521
8.05192
3.32116
3.1149
-12.1663
-9.92367
2.32307
-2.58939
-1.81963
-3.54569
0.163197
-0.157654
11.3021
5.60934
-0.88976
1.05346
2.23165
-0.106311
2.00153
-3.07851
9.75483
15.8657
-52.2286
-25.5172
-54.3727
-3.12781
46.3373
48.3456
58.7305
57.5187
58.8028
-39.7048
19.5574
-8.84327
-58.3892
-52.1761
46.7877
-65.3101
-15.721
-74.3621
31.7698
24.4921
11.6023
8.67693
-1.42612
10.3323
15.2127
12.6924
-19.2236
-101.904
-16.9448
-1.65667
-13.5345
33.3638
22.5278
-29.2845
-24.2769
22.0894
11.8776
-40.0833
-44.6161
-48.3191
-0.701048
2.25158
2.85521
4.10526
-44.1308
21.2992
32.4001
11.5083
-23.9522
-51.8261
-59.6254
-68.9342
-56.5854
26.6662
27.1367
49.3426
1.21264
-2.35454
-11.4741
1.58543
6.67228
6.6536
9.25387
56.0998
-30.9725
-11.3467
7.12894
-0.799247
9.13708
4.07772
7.83018
0.808582
48.1606
49.7847
-8.40272
-5.44955
1.22155
11.003
-52.416
-11.239
-4.23923
-52.8908
-7.17965
-7.23226
-7.80477
-7.55466
-21.7293
-40.1901
-2.92974
5.78981
28.5866
8.04772
12.9621
3.25425
-26.8465
31.8059
2.96374
6.88391
16.3827
28.7927
24.3794
38.405
36.4898
25.8498
-31.9721
17.4951
6.41906
11.529
7.09471
12.9873
16.1215
-4.9258
-2.24049
2.48712
-11.4249
-18.5657
10.0715
19.5969
27.7003
-53.8947
34.6407
36.3571
26.0702
28.4325
49.6165
26.9526
31.1329
-22.5271
-56.7241
-8.57083
-4.77565
-28.0572
-41.8928
-0.844767
-12.6242
-8.83658
-1.91517
30.3813
21.0161
20.6243
20.8907
21.1022
29.9526
37.0848
19.9826
14.3051
8.20115
10.2713
2.59892
-1.48774
9.36445
13.7039
21.4249
28.5887
27.7187
32.1161
-15.7781
-11.788
-45.9329
-10.8583
-5.90034
-26.7606
-13.1853
-1.08889
-66.4807
-9.79934
-28.661
-30.1822
-8.13736
-45.6201
-8.25987
-12.409
-52.3043
-25.64
-11.3724
-20.8942
-53.8403
-49.8443
7.73598
8.7726
-36.2028
10.6125
4.73516
18.5445
-52.7731
30.1583
17.9551
14.9013
26.6804
53.3364
-15.2641
27.9233
19.0533
3.66722
-24.9206
-7.99265
29.3629
0.144466
13.7735
20.2074
28.6451
30.3055
44.0846
16.2914
16.6071
-6.22285
-8.37818
2.66917
0.460174
17.9128
21.1024
16.0693
-18.2121
19.7006
22.7553
19.1979
14.6419
-50.6074
-2.97925
-2.53866
1.16942
1.99322
-4.80824
-3.75565
-5.28484
-7.59956
6.28959
-1.59286
-6.52461
-3.59034
-2.02108
-6.26886
-11.323
-7.26949
-15.2253
-0.0608294
0.473334
-0.651377
21.2196
20.0992
23.3126
10.731
2.7565
2.59275
8.10867
9.7312
9.00592
4.80132
5.93633
5.6559
6.22761
9.77826
15.6138
16.1813
12.2297
13.2629
26.3564
27.3061
30.4612
30.8232
31.6431
29.125
28.2473
-24.9485
-25.2124
5.2227
-31.8065
-29.2239
-7.90177
5.58301
-11.4863
-5.2478
-5.7624
5.43798
-9.89191
-16.7415
-5.41413
-9.30438
-7.17383
-9.83982
-7.35998
39.7266
50.3686
35.5414
55.4677
34.1449
43.37
37.0026
50.1638
31.1467
39.9091
-0.751766
29.6692
43.6842
37.7313
26.9061
26.1998
29.6984
25.8922
-40.2436
-22.9734
5.96212
-0.341424
-52.6741
-0.276144
-7.85436
1.81079
-7.82514
-4.19047
-0.79819
20.1732
16.4519
17.5637
-5.09935
-8.74654
-2.70594
-3.19721
-16.6612
-23.5718
4.15624
27.6195
16.9862
17.273
2.52866
-7.35943
-0.364586
5.37888
-28.9546
16.0155
10.8551
28.989
-52.5246
-37.7038
11.0336
40.9434
39.5907
41.5859
11.1556
13.0547
25.7454
15.2254
14.0017
7.31599
-49.1508
-52.4434
-53.2055
-47.8213
-50.0387
-55.6253
-50.9041
-54.6774
-6.30483
-7.7957
-7.86199
-7.94318
-2.0148
-7.70211
-11.5355
-19.7545
-2.58099
-12.4601
-11.0141
-7.21711
1.82255
-0.562847
9.78531
-1.96853
-2.34804
-4.57768
-17.9371
-4.09989
0.76382
0.28843
1.4095
15.9322
-25.2888
-1.58392
19.1128
18.5425
6.4189
10.1866
-15.9452
-46.9505
7.47472
19.4019
8.03232
0.703408
-5.71407
-10.0217
38.5693
9.92245
3.58292
9.90671
-2.00408
23.1429
10.0947
25.5793
27.6912
11.2871
-21.6359
-17.7543
5.06994
-26.1913
-88.9424
-61.8704
40.9325
21.6274
-12.7935
-76.4611
8.55131
12.0344
-2.27701
41.9282
5.6533
18.3537
9.60429
17.5861
3.24387
23.3555
23.5071
9.45408
10.2218
14.489
1.16234
19.8841
5.57751
8.67786
8.16542
4.98196
2.33007
7.953
1.81871
1.70973
3.65434
8.25461
-9.41914
-1.05262
-0.0111498
-1.54964
55.8422
-105.166
30.881
2.69366
14.6998
-1.31272
-21.2655
13.2732
-5.61182
-17.2407
8.76998
-2.75203
14.5449
-14.8154
-49.4162
6.68175
33.723
22.9988
25.9428
-3.48489
3.99314
-3.5004
-0.406176
-6.15269
-3.36676
-4.77692
5.96973
9.29921
-11.1805
-6.73409
-49.3816
-8.2574
-23.497
-9.39386
-5.51971
-16.3441
-7.77349
6.41698
12.3822
0.820955
15.9015
24.544
8.32861
21.14
6.47704
29.0121
-35.0631
-32.6134
-8.65244
-14.6809
-12.4038
-38.544
-4.76218
1.4427
-16.0147
-12.0314
0.568988
-8.39304
-5.57443
-21.8153
-109.824
-39.9176
-51.9662
-27.3464
-50.9366
-49.9063
-21.2619
-11.8853
-2.5825
-4.99358
-0.897421
-1.85274
-7.71061
-41.6456
-51.4372
-32.4812
-19.449
-57.0544
-43.4126
-53.2836
-82.0716
-46.2452
-50.8388
-50.7341
36.5854
26.6446
-29.171
-53.3813
-52.9988
-48.9816
9.65784
8.39973
8.00807
20.1819
23.585
20.5708
4.5707
-15.2052
-20.9591
-25.9083
-22.1882
-6.80891
-4.7851
-5.1686
-1.58966
-9.21045
-9.02234
-5.76541
-8.93621
-5.58245
-3.45516
-3.4075
-0.529265
-1.47495
1.58468
-31.7926
-28.3761
-31.319
-32.4224
30.8109
28.6647
24.9787
13.9263
6.43996
20.3931
21.6
49.4643
38.1792
37.5894
45.9926
53.616
51.3638
47.7905
50.1658
-14.877
-21.4817
-11.2023
-1.02833
2.10108
7.23549
6.9073
31.2476
32.1908
34.6433
25.0722
40.1534
-29.8865
-22.2727
-25.6375
31.5397
30.528
30.4019
9.39643
8.3152
-49.9321
8.4045
8.49844
8.31464
-57.8812
-120.063
32.6864
-54.8917
5.58473
4.54372
3.81445
-8.41855
9.08329
8.27012
36.8489
-42.585
27.8061
26.1074
22.8128
-73.5244
5.12513
13.2907
8.82935
-10.9967
44.8022
50.1768
6.34398
7.45398
26.1629
16.9403
12.4718
20.6121
21.3673
38.6467
-2.38144
-21.0123
6.37571
-24.1543
-22.8668
11.1567
33.5279
-53.9328
48.5999
-11.4102
9.04066
-5.60133
-12.7126
-14.4025
-13.0868
-5.54056
-17.6754
-3.27446
-3.4584
-3.69856
-4.6272
-50.7754
-49.9369
-50.7519
44.9382
13.4445
13.3045
11.7589
15.051
10.2617
50.9254
46.2151
47.3825
35.3309
50.6463
53.9161
40.9537
45.0704
49.4551
35.941
45.7201
45.4709
-32.1231
2.30224
-16.3871
-20.1075
-9.75539
-1.34932
-8.16594
8.01935
-36.2235
-25.5327
-19.6428
0.307486
6.02662
10.3778
-21.0938
-15.7672
6.54999
2.0569
-37.0665
-35.1127
43.0924
-34.2606
-20.5155
49.9338
-5.35746
-8.42243
-3.65906
-6.11572
-4.71909
10.4721
41.0786
49.6543
37.6716
54.5252
37.6943
-4.16224
-2.51001
-4.80028
-5.94531
-64.2
-7.07198
-1.67229
10.5777
7.5496
-3.30361
5.88332
42.667
4.66293
43.6206
20.6251
27.0879
22.1054
24.8352
24.2067
9.18307
-1.62515
29.5831
30.3253
48.394
29.8767
-45.0167
5.00229
0.934384
-6.32057
-4.33081
-6.19857
-5.93316
-12.5943
-72.554
16.7342
-7.51775
7.4618
1.74739
7.7222
-3.4171
4.35993
-3.58993
4.20068
-0.00386618
8.93232
2.65632
10.7727
6.50845
-5.95684
-2.2825
1.64091
-47.9728
32.3207
-83.567
-81.1579
-17.0156
-20.684
-51.8814
-53.4909
-2.23788
-14.7404
-7.07101
-15.9751
-29.3017
-22.2967
39.1538
13.2076
16.6969
15.5571
22.591
30.9311
37.8621
38.747
-13.3189
-9.84977
43.619
47.9203
10.8278
21.0257
25.6778
22.2248
59.1061
-11.7593
28.6085
20.5679
10.7234
-56.0171
16.6903
18.501
32.9545
29.1215
40.5154
37.6834
-31.9733
24.3259
31.6222
27.1327
28.7146
25.0522
-16.8236
-19.0152
-15.7019
-21.1305
4.47897
4.58854
6.41471
-8.89343
-2.70637
-20.8507
-3.57988
-22.1366
-16.3286
12.1253
11.782
-10.8328
11.2036
-86.6839
-45.1109
-16.3144
-42.6708
21.5065
58.4663
48.561
46.4105
39.1949
-54.3856
-27.2503
-41.6344
-41.7193
-24.2592