/*--------------------------------*- C++ -*----------------------------------*\
| =========                 |                                                 |
| \\      /  F ield         | OpenFOAM: The Open Source CFD Toolbox           |
|  \\    /   O peration     | Version:  2506                                  |
|   \\  /    A nd           | Website:  www.openfoam.com                      |
|    \\/     M anipulation  |                                                 |
\*---------------------------------------------------------------------------*/
FoamFile
{
    version     2.0;
    format      ascii;
    arch        "LSB;label=32;scalar=64";
    class       volScalarField;
    location    "0.0321319";
    object      nut;
}
// * * * * * * * * * * * * * * * * * * * * * * * * * * * * * * * * * * * * * //

dimensions      [0 2 -1 0 0 0 0];

internalField   nonuniform List<scalar> 
3975
(
0.00593651
0.0064098
0.00460145
0.007074
0.00709976
0.00334529
0.00671034
0.00656806
0.00726983
0.00727602
0.00738855
0.00299962
0.00720378
0.00237892
0.00721661
0.00532648
0.00558442
0.00564093
0.00500109
0.0035738
0.00239372
0.00274329
0.00520687
0.00607519
0.00572211
0.00703576
0.00176514
0.00443113
0.00639774
0.0043732
0.00707184
0.00356626
0.00326536
0.00392427
0.00326457
0.00330517
0.00454962
0.00654466
0.00425443
0.00453774
0.00440638
0.00473743
0.00467116
0.00741184
0.00609023
0.00743084
0.00739413
0.00738813
0.00248009
0.00271052
0.0042017
0.0074975
0.00298834
0.00186789
0.00183691
0.00186816
0.00308024
0.00180128
0.00243817
0.00261405
0.00254271
0.00142896
0.00212606
0.00242335
0.00664615
0.00341718
0.00403876
0.00706826
0.00282291
0.000590884
0.000772814
0.000253448
0.000611119
0.00488903
0.00602133
0.0046623
0.00605533
0.00412323
0.00444211
0.00472404
0.00734811
0.00688792
0.00574454
0.00385972
0.00743261
0.00241513
0.00394041
0.00595854
0.00594248
0.00345728
0.00707961
0.0069458
0.00278879
0.00487777
0.000808513
0.00602804
0.00491406
0.000758142
0.00466653
0.00145013
0.00739806
0.00117452
0.00256273
0.00190344
0.00723571
0.00245495
0.00504658
0.00436579
0.00547826
0.00286306
0.00385362
0.00499622
0.00475025
0.00482924
0.00423392
0.00349956
0.00354284
0.00358694
0.00199082
0.00125483
0.00681477
0.00249784
0.00407976
0.00405109
0.00190636
0.00229473
0.00352194
0.00291377
0.00284413
0.00284205
0.00293075
0.00293019
0.00455565
0.00447476
0.00462245
0.00425179
0.0028053
0.00500242
0.00276629
0.0071619
0.00544105
0.00730107
0.00688048
0.00707327
0.00202745
0.00694138
0.00698791
0.00289617
0.00536333
0.00293782
0.00213976
0.00344497
0.00371226
0.00366316
0.000915113
0.00142201
0.00456006
0.00527044
0.00745454
0.0042419
0.00733156
0.00734111
0.00349027
0.00275519
0.00685542
0.00306493
0.00402686
0.00037891
0.00286649
0.00716743
0.0061739
0.00746445
0.00382986
0.00358336
0.000552147
0.00696394
0.00403315
0.00184725
0.0017446
0.0052943
0.00628736
0.00393032
0.00212371
0.00214622
0.00285409
0.00671453
0.00310855
0.00319632
0.00385869
0.00215044
0.00292465
0.00547228
0.0027381
0.00384461
0.00325687
0.00285466
0.0017996
0.00742942
0.00698769
0.00702382
0.00299062
0.00737695
0.00657049
0.00732082
0.00713994
0.00712871
0.00371585
0.000920983
0.00678617
0.000279114
0.00707969
0.00196926
0.00402063
0.00438521
0.00252768
0.00707456
0.00605848
0.00432637
0.00683368
0.0027404
0.00520765
0.00242571
0.00726896
0.00237951
0.00489886
0.00385659
0.000283589
0.00707011
0.00216249
0.00739056
0.00285483
0.00662707
0.00684105
0.00416789
0.00709352
0.00727273
0.00198859
0.004279
0.00186352
0.00130457
0.00734711
0.000819375
0.00720898
0.00223905
0.00465997
0.000535007
0.0025088
0.0015153
0.00109986
0.00748666
0.00743389
0.00727271
0.00164254
0.00095987
0.00488251
0.00432223
0.00265164
0.000805444
0.00137475
0.00050469
0.00156494
0.00186769
0.00691003
0.00590935
0.0024569
0.00181155
0.00070603
0.0070997
0.00480923
0.00475929
0.00455367
0.00218989
0.0022276
0.00257086
0.0029773
0.00291314
0.00241417
0.00598182
0.00103717
0.00160375
0.00144912
0.00540282
0.00480497
0.00719555
0.00423149
0.0022633
0.00191802
0.00212947
0.000759644
0.00277599
0.00362803
0.00197418
0.00462946
0.0010179
0.00660247
0.00510058
0.00520067
0.00466283
0.00356781
0.00351728
0.00307088
0.00415304
0.00418509
0.0033668
0.00422727
0.00478747
0.00249988
0.00234128
0.00305933
0.00359034
0.00696385
0.00695102
0.00540546
0.00662003
0.00569689
0.00305893
0.00430303
0.00585359
0.00726108
0.00729184
0.00728635
0.00278168
0.00435423
0.00489188
0.00171566
0.00641683
0.00560004
0.00447032
0.00182204
0.00284051
0.00538339
0.00650291
0.00506357
0.00616339
0.00262502
0.00329441
0.00400649
0.00260801
0.00136743
0.00230111
0.00296109
0.00150751
0.0046569
0.0027633
0.0020009
0.00541994
0.00726103
0.00738394
0.00745429
0.00729067
0.00206902
0.00338375
0.0029646
0.00374537
0.00433274
0.00663104
0.00641782
0.00146488
0.0069248
0.00702957
0.00563011
0.000492427
0.00283278
0.00694442
0.00694751
0.00697461
0.00493389
0.00696988
0.00547999
0.00702895
0.00691364
0.00157388
0.00512014
0.00600251
0.00303458
0.00215193
0.00693752
0.000483251
0.00260513
0.00108555
0.00152776
0.0036671
0.00707659
0.00216286
0.00341549
0.00334299
0.003711
0.0019786
0.00346569
0.00336837
0.00394186
0.00678324
0.00329908
0.00464964
0.00681978
0.00651848
0.0046627
0.00192784
0.00490848
0.00514627
0.00545901
0.00474496
0.00305786
0.00396496
0.00452896
0.00436764
0.00332061
0.00552213
0.00562466
0.00394287
0.00480362
0.00492031
0.002156
0.00139627
0.00665661
0.000545861
0.0063197
0.00701426
0.00360547
0.00620571
0.00479569
0.00595065
0.00723018
0.00187752
0.00225831
0.00218462
0.00598731
0.00204311
0.00739305
0.00228346
0.00233465
0.00653372
0.00644983
0.00166891
0.00338701
0.00402153
0.0070061
0.00323909
0.00253296
0.00646341
0.00346261
0.00562273
0.00247397
0.000891157
0.00114316
0.0063677
0.00704262
0.00176465
0.000464272
0.00682548
0.00679412
0.00694869
0.00658386
0.00626316
0.00215332
0.0073498
0.00405394
0.00743282
0.00535324
0.00662174
0.00685873
0.00224611
0.00739415
0.00740181
0.00315173
0.00728532
0.00600948
0.00741786
0.00694227
0.00734571
0.00350369
0.00732324
0.0060742
0.0046785
0.00400002
0.000392731
0.0074394
0.00608878
0.00534921
0.00733617
0.00254055
0.00739279
0.00675568
0.00708464
0.00231773
0.00345831
0.00206223
0.0011544
0.000697178
0.00187645
0.0028888
0.00643221
0.00625004
0.00155823
0.00644369
0.00701535
0.00732399
0.00713339
0.00330429
0.00198077
0.00089304
0.00721826
0.00709984
0.00625459
0.00714156
0.00743746
0.00506228
0.00074587
0.00639609
0.00371186
0.0011244
0.00697639
0.00302959
0.000566011
0.00446233
0.00502849
0.00734426
0.00282729
0.00708488
0.00234327
0.00392479
0.00271652
0.0030006
0.000792501
0.000214176
0.00351475
0.000905723
0.00083595
0.00396819
0.00491713
0.00540759
0.00295056
0.00706804
0.00746275
0.00203985
0.00304531
0.0028751
0.00182023
0.000181487
0.00257573
0.00751022
0.00646597
0.00717025
0.0014488
0.0017535
0.00090777
0.002543
0.000610559
0.00177861
0.00332282
0.00317373
0.00717094
0.00223608
0.00461007
0.00203799
0.00360032
0.00519387
0.00529532
0.00662546
0.00587192
0.0058225
0.00229387
0.00103498
0.000837658
0.00153517
0.00110158
0.000265606
0.00164211
0.000355818
0.00105359
0.00709894
0.00630747
0.00733164
0.0072623
0.00692847
0.00706518
0.00732423
0.00492396
0.00730468
0.0047505
0.00714077
0.00369793
0.00240606
0.00327877
0.00716756
0.00744575
0.00748509
0.00739428
0.00314504
0.00236095
0.00526973
0.00750633
0.00528835
0.00278346
0.00552509
0.00671251
0.00728813
0.00605069
0.00710566
0.0075508
0.00702502
0.00692776
0.000444967
0.000733808
0.00479884
0.00248211
0.00409624
0.00559558
0.00448949
0.00459694
0.00222948
0.00194688
0.00729365
0.00682433
0.00348379
0.00679444
0.00438189
0.00704632
0.00689985
0.00172558
0.00736007
0.00734846
0.00740472
0.0073461
0.0060343
0.00681524
0.00205807
0.00747887
0.00546984
0.00739887
0.00434682
0.00658035
0.00390626
0.00565895
0.00710816
0.00699741
0.00737838
0.00682094
0.00502774
0.00574273
0.00744844
0.00270675
0.00316941
0.00666521
0.00592943
0.00344106
0.00239496
0.00570928
0.00121259
0.00215692
0.00616432
0.0065041
0.00168273
0.000932133
0.00391543
0.000761467
0.00187473
0.000741954
0.000840957
0.00108078
0.000968329
0.00028239
0.00423909
0.000409511
0.000746152
0.000715852
0.000427388
0.000319142
0.00320103
0.00296037
0.00250666
0.00240736
0.0019992
0.00223301
0.00605539
0.00141533
0.00654143
0.0074687
0.00750554
0.00488266
0.0047589
0.00693762
0.0075164
0.00413838
0.00336646
0.0070016
0.00641304
0.00721068
0.00718128
0.00278098
0.00618685
0.00129784
0.00321064
0.00494956
0.00264469
0.00549088
0.00178075
0.00589582
0.00689946
0.00646735
0.000589891
0.00742935
0.00568634
0.000315879
0.00692996
0.00350262
0.00429631
0.00702579
0.00715294
0.00157323
0.00560305
0.00685349
0.00699954
0.00401985
0.00374493
0.0071046
0.00436227
0.00286325
0.001562
0.00404306
0.00718387
0.00239917
0.00454581
0.00728503
0.00421693
0.00720596
0.00260649
0.0072179
0.00705825
0.00665114
0.00514903
0.0030581
0.00614861
0.00412649
0.0031925
0.00229829
0.00216111
0.00573336
0.000496822
0.00641321
0.000834275
0.00450517
0.00247454
0.00305984
0.000991786
0.00211473
0.00605123
0.00726126
0.0018072
0.00661113
0.0022747
0.00417789
0.00569677
0.0068975
0.00181722
0.00517281
0.0073428
0.00384045
0.00727162
0.00734237
0.00731535
0.0074556
0.0033291
0.0062112
0.00731618
0.00444847
0.00739171
0.00731484
0.00265535
0.00748065
0.00132247
0.00724969
0.00722655
0.00729619
0.00463314
0.00732086
0.00693357
0.00618441
0.00688544
0.00552542
0.00277736
0.000239015
0.00350022
0.00653202
0.00705169
0.00567177
0.00305493
0.00715547
0.00551539
0.00671028
0.00371499
0.00321902
0.000877928
0.00602996
0.00257233
0.00326655
0.00225644
0.00173876
0.00693379
0.00423817
0.00500688
0.00271859
0.00599342
0.00324987
0.000308974
0.00719409
0.0046411
0.00662442
0.000644489
0.00381319
0.00164249
0.00356985
0.00738443
0.00288521
0.00226678
0.00273357
0.000399377
0.00253362
0.00198822
0.00108619
0.00181288
0.00350211
0.00133736
0.00449504
0.00124461
0.0014991
0.00161119
0.00278491
0.00104074
0.00155801
0.00131118
0.00103309
0.000468922
0.000854131
0.000834038
0.00160092
0.00108323
0.00159857
0.000280397
0.0011665
0.00139504
0.00102299
0.000673689
0.000873099
0.00209288
0.00539414
0.00380751
0.00186609
0.00206346
0.00347846
0.00428751
0.00230878
0.00257513
0.00188662
0.00182145
0.00243743
0.00532226
0.00123904
0.00166284
0.00248261
0.00215904
0.00406361
0.00142525
0.00165543
0.00336899
0.00257973
0.00430058
0.00369116
0.00557077
0.0074379
0.00539091
0.00543351
0.00335683
0.00689298
0.00435965
0.00474048
0.006509
0.00710359
0.00305335
0.00217549
0.00329871
0.00500841
0.00408977
0.00407865
0.00509827
0.00748534
0.00734794
0.00366573
0.00448912
0.00371301
0.0037376
0.00310944
0.00328738
0.00360501
0.0028284
0.0023178
0.00637493
0.00625915
0.00546395
0.00331069
0.00158688
0.000925145
0.00153527
0.00188591
0.000939162
0.00176017
0.00364834
0.00340569
0.00328426
0.00290314
0.0020507
0.0045324
0.00552932
0.00473656
0.00302352
0.00343799
0.00379154
0.00353588
0.00319505
0.00229559
0.000816224
0.00402363
0.00171228
0.00448546
0.00471772
0.00710711
0.00716137
0.0033916
0.00287999
0.00142034
0.00342295
0.00395526
0.00163605
0.00253979
0.00196831
0.000751259
0.00256443
0.00342616
0.00264779
0.00161212
0.00166328
0.00130613
0.00256309
0.00273097
0.00260746
0.00286462
0.0023879
0.00282659
0.00292779
0.0018837
0.00234804
0.00543081
0.00429269
0.0050423
0.00598139
0.00633921
0.00633286
0.00629882
0.00718271
0.0065818
0.0059146
0.00692612
0.00688236
0.00703156
0.00719917
0.00700547
0.00732431
0.00729027
0.00584799
0.00746188
0.00750076
0.00740246
0.0070913
0.00708303
0.00518637
0.006485
0.00698619
0.00686522
0.00672355
0.00577266
0.00345628
0.000767505
0.00417065
0.00356087
0.00671651
0.00263906
0.00342003
0.00148672
0.0022234
0.00493137
0.00246419
0.00697653
0.00263367
0.00585387
0.00446432
0.00624628
0.00350132
0.000866441
0.00483994
0.00378973
0.00342504
0.00474721
0.00576997
0.00338966
0.0072634
0.0069422
0.00677769
0.00294551
0.00152197
0.00313036
0.000831384
0.0072726
0.00729275
0.0051544
0.00374959
0.00706114
0.00712591
0.00633342
0.00333042
0.0059462
0.00639694
0.00528843
0.00516272
0.00277989
0.00250035
0.00297211
0.00669384
0.00712071
0.00292724
0.00732873
0.000989418
0.00384843
0.00631483
0.00422134
0.00478474
0.00296518
0.0028172
0.00354308
0.00420334
0.00640436
0.00474359
0.00673924
0.00402955
0.00652802
0.00621163
0.00529636
0.00390998
0.00424874
0.00349126
0.0038448
0.00637872
0.00681098
0.00570216
0.00275847
0.00279952
0.00702454
0.00720245
0.00292669
0.00366432
0.00231754
0.00743245
0.00553349
0.00276753
0.00300535
0.00121581
0.00731095
0.00408454
0.00739606
0.00728808
0.0050866
0.00579079
0.00718159
0.00579719
0.00577563
0.00377023
0.00732896
0.00319034
0.00241777
0.00427484
0.00345849
0.00732503
0.00238952
0.00207142
0.0071658
0.00200428
0.00108785
0.00331626
0.00475544
0.0065847
0.00564926
0.00349406
0.0067511
0.00550625
0.00722447
0.00500553
0.00714806
0.00737995
0.00713797
0.0020093
0.00499176
0.00381976
0.00700731
0.000252771
0.00213304
0.00173422
0.00180716
0.00454393
0.00565014
0.00719763
0.0069897
0.0044359
0.0036926
0.00524682
0.00397488
0.0062696
0.00715248
0.00689021
0.00151706
0.00710682
0.00400413
0.00534061
0.00659853
0.00629365
0.0028877
0.000538357
0.00305776
0.00125796
0.000354056
0.000539639
0.000514591
0.000634064
0.00665927
0.0034436
0.00438875
0.0025772
0.00388452
0.000593437
0.00190051
0.00205556
0.000499414
0.00149159
0.00168804
0.000638648
0.00128425
0.00540144
0.00223709
0.00456549
0.00685221
0.00414055
0.00597195
0.00705339
0.00444116
0.00734878
0.00316004
0.00018298
0.00171139
0.00195282
0.00442244
0.00149069
0.00160511
0.00288077
0.00403336
0.00689938
0.00746874
0.00748888
0.00632485
0.00617673
0.00709485
0.00733938
0.00665126
0.0071811
0.00755532
0.00701785
0.00667273
0.00711041
0.00406889
0.00211071
0.00295002
0.00726044
0.00189384
0.00745611
0.00131988
0.00736906
0.0074642
0.00537664
0.000611324
0.000413142
0.00231461
0.0047883
0.00673672
0.00626874
0.00486306
0.00286426
0.00662394
0.00175583
0.00747261
0.0072554
0.00744271
0.00595586
0.00748877
0.00330681
0.00394812
0.0030574
0.00732661
0.00187102
0.00690893
0.00709051
0.00700328
0.00724177
0.00700603
0.00715158
0.00725601
0.00350154
0.00564156
0.00568984
0.00187356
0.00360619
0.00602107
0.00553603
0.00322463
0.00715336
0.00710777
0.00659781
0.00720903
0.00299626
0.00725026
0.00491865
0.00148388
0.000288645
0.00674055
0.00718962
0.00581817
0.00470974
0.00699309
0.000578489
0.00452666
0.00025416
0.00197832
0.0010977
0.00108606
0.00312717
0.000831056
0.00285318
0.00746657
0.00748011
0.0013126
0.00745203
0.00214119
0.000625931
0.000535544
0.00355176
0.000391003
0.00183604
0.000647293
0.00349092
0.00743724
0.00442753
0.00509429
0.000596717
0.000661645
0.00103435
0.000676374
0.000859581
0.000309999
0.000563339
0.0042179
0.00647921
0.00357009
0.0061926
0.00260753
0.0038471
0.00660245
0.00482752
0.00197497
0.00728261
0.00185931
0.00630843
0.00633396
0.00188205
0.00581796
0.000656346
0.00319929
0.00722408
0.003845
0.00576354
0.00447989
0.00461467
0.00410071
0.00482606
0.00479752
0.00433247
0.00419662
0.0069574
0.00712287
0.006659
0.00726797
0.00185447
0.00748774
0.0066539
0.00194064
0.00574781
0.00392957
0.00675194
0.0024169
0.00630562
0.00323097
0.0050673
0.00114245
0.000986253
0.00357728
0.00421057
0.0024193
0.00190653
0.00237775
0.00172701
0.00272048
0.00443604
0.00347925
0.00733118
0.00740319
0.00638474
0.00468006
0.00441422
0.00557662
0.00637802
0.00568543
0.0017448
0.00445862
0.00225264
0.00250423
0.00185262
0.00243347
0.000935773
0.00266867
0.00672601
0.00697665
0.00214061
0.0068908
0.00706463
0.00644397
0.00691971
0.00650872
0.00735651
0.00459898
0.0071303
0.00727357
0.00714079
0.00297353
0.00308947
0.00718499
0.00645834
0.00715132
0.00699043
0.00298243
0.00720558
0.00697507
0.00475458
0.00212397
0.000617112
0.00280416
0.0053758
0.000174131
0.000698446
0.00278856
0.00161637
0.00307596
0.00328883
0.00559696
0.00686237
0.0037158
0.00596986
0.00182068
0.0015513
0.00521155
0.00731482
0.000875131
0.00314005
0.00187835
0.00491205
0.000962867
0.00186136
0.00231227
0.00158056
0.00511117
0.00310171
0.00208312
0.00177693
0.00390733
0.00528235
0.00404098
0.00473132
0.00562551
0.00617027
0.000871364
0.000168925
0.0037293
0.00520553
0.00267145
0.00495089
0.00334416
0.00562147
0.00220972
0.00286395
0.00269488
0.00270589
0.0028981
0.00341417
0.00254848
0.00245799
0.00169707
0.00161403
0.001645
0.000953
0.00732457
0.00729028
0.0043251
0.00734788
0.00297207
0.00209473
0.00105842
0.000985987
0.000691135
0.00706713
0.00339974
0.00638795
0.00642439
0.00370735
0.00675685
0.00568076
0.0071503
0.00685062
0.00706593
0.00749092
0.00213669
0.00153279
0.00647301
0.00082352
0.00300149
0.00261489
0.00157512
0.00504103
0.00390782
0.00661719
0.00276942
0.00396169
0.00282349
0.00649007
0.00354616
0.00327743
0.00343185
0.00430665
0.0024909
0.00687744
0.00680952
0.00420594
0.00724953
0.00480067
0.00510777
0.00356964
0.000896977
0.00545342
0.00292924
0.00187037
0.00684108
0.00192549
0.00434937
0.00088005
0.00303649
0.00544721
0.00695017
0.00616346
0.00179016
0.00368916
0.000589447
0.00730947
0.00578265
0.00646354
0.000600375
0.00738821
0.000311677
0.000757043
0.000597225
0.00286315
0.00282493
0.00323044
0.00357096
0.00330407
0.000928838
0.00633895
0.000504829
0.0033334
0.00127817
0.00524466
0.00453962
0.00621195
0.00703136
0.00705929
0.00482333
0.00296431
0.00184946
0.0038918
0.00555831
0.00267956
0.00690604
0.00249767
0.00697851
0.00357167
0.00467069
0.00461965
0.00420999
0.00622824
0.00363642
0.00591217
0.00188338
0.00191149
0.00606026
0.00664329
0.00553022
0.00714613
0.00251971
0.00721969
0.00225082
0.00620421
0.00502533
0.00563119
0.00183617
0.00186062
0.00335274
0.00210068
0.00407668
0.0070455
0.00713444
0.007082
0.00661325
0.00651298
0.00466303
0.00354236
0.00387763
0.00186347
0.00725131
0.00357322
0.00624779
0.00283834
0.00325146
0.00299207
0.00717195
0.00738278
0.00609536
0.00241374
0.00652183
0.00454363
0.00597804
0.00157331
0.00528181
0.00361114
0.000931252
0.000803278
0.000578612
0.00281504
0.00181009
0.00301963
0.0069938
0.00416358
0.00160782
0.00519529
0.00328287
0.00744297
0.00109481
0.00335241
0.00138354
0.000414992
0.00654187
0.00729702
0.00282398
0.00134978
0.00181201
0.00141808
0.00174556
0.00352032
0.00140174
0.00281557
0.00231708
0.00204937
0.000963592
0.00267181
0.0010086
0.0019643
0.000474694
0.00168013
0.00266368
0.000611642
0.0016417
0.00134873
0.00179542
0.00170036
0.00249574
0.00543959
0.00486597
0.00301225
0.00122205
0.00539133
0.0032019
0.0019955
0.000684247
0.000750435
0.000580365
0.00309239
0.00159848
0.00235396
0.000857307
0.000296592
0.00383837
0.00242935
0.00268975
0.00446769
0.00294654
0.00136447
0.000332844
0.000765709
0.00678972
0.00536859
0.0037908
0.00283789
0.00686973
0.00725277
0.00427329
0.00327572
0.00241598
0.002878
0.00727244
0.00204791
0.00726171
0.00318325
0.00591633
0.00390617
0.00143578
0.00188539
0.00747306
0.00602308
0.00264161
0.007495
0.00657629
0.00206839
0.00240563
0.000220102
0.00231456
0.00543563
0.00735482
0.00270436
0.00728508
0.00274489
0.00135386
0.0069712
0.00708732
0.00695527
0.00731343
0.00721396
0.00209228
0.00119922
0.00217178
0.0044252
0.0049105
0.00238968
0.00741366
0.00743233
0.00363706
0.00744594
0.00615746
0.0027628
0.00745416
0.00161221
0.000802753
0.00217869
0.00429305
0.00453571
0.00361806
0.00577286
0.00227847
0.00341253
0.00262416
0.00177479
0.00316621
0.00397375
0.00287984
0.00277796
0.0029466
0.0034714
0.00502451
0.00336221
0.00501714
0.00458489
0.00497628
0.00478398
0.0010468
0.00401405
0.00418911
0.00684645
0.00302553
0.00336902
0.0043655
0.00330581
0.00201017
0.000837526
0.00156171
0.00751606
0.00430284
0.0029606
0.00251442
0.00235924
0.00742304
0.00735801
0.00742373
0.00679756
0.00659043
0.00307681
0.0014791
0.00133089
0.00117998
0.000411326
0.000978612
0.00261279
0.00320281
0.0026276
0.00617955
0.00180539
0.00245179
0.0053377
0.00375349
0.00377402
0.00319806
0.00170961
0.00684735
0.00421584
0.0037734
0.00625892
0.00524224
0.00643963
0.00254177
0.00733231
0.00145665
0.000647973
0.00749188
0.00738925
0.00742286
0.00742201
0.00272021
0.0073139
0.00204432
0.00564811
0.00481025
0.00167741
0.000466164
0.000960487
0.00253163
0.000507245
0.000505485
0.0013778
0.00122356
0.000257023
0.00230694
0.00231981
0.0025744
0.000304071
0.00468875
0.00160042
0.00455089
0.00088535
0.00109742
0.00245756
0.00262762
0.00164109
0.00120592
0.00466713
0.00407845
0.000863938
0.00104977
0.000280474
0.000252374
0.000156776
0.00102973
0.000948674
0.00208587
0.000252072
0.00226806
0.00213037
0.0053768
0.00420341
0.00741678
0.00719493
0.00732887
0.00512781
0.00451457
0.00284405
0.00604354
0.00228471
0.0072725
0.00324855
0.00580212
0.00643152
0.00745111
0.00592332
0.00201916
0.00595993
0.00133479
0.00389048
0.00666197
0.00754477
0.00737379
0.00579883
0.00567708
0.00705247
0.00746686
0.00445657
0.00524641
0.00578621
0.00131699
0.00192204
0.00551037
0.00741823
0.00537199
0.00270694
0.0023822
0.00174342
0.00749362
0.00566975
0.00439989
0.00690553
0.00390346
0.00231391
0.00457613
0.00571413
0.00151439
0.00602131
0.00566283
0.00277024
0.00588158
0.0035748
0.00525685
0.00419293
0.00189905
0.00732369
0.00305296
0.00691337
0.0056742
0.00744437
0.00717464
0.00518603
0.00706425
0.000675308
0.00165612
0.00073881
0.00172399
0.00743668
0.00727158
0.00551474
0.00743605
0.00721481
0.00703318
0.00738479
0.00066799
0.00144506
0.00743735
0.00728927
0.0074732
0.00160206
0.00611475
0.00484652
0.00736152
0.00458518
0.00276716
0.000220856
0.00544318
0.00139067
0.00320788
0.00221083
0.00199009
0.00732818
0.00739008
0.00744737
0.00150167
0.00746254
0.00741991
0.000760118
0.00141905
0.00389343
0.00234008
0.000823445
0.000193893
0.00725906
0.00733853
0.00737646
0.00733563
0.00260571
0.00103111
0.00745822
0.00747071
0.00736165
0.00727385
0.00655333
0.00114092
0.00735049
0.00737224
0.00741766
0.00749163
0.00704394
0.00287981
0.00276583
0.00383025
0.00361117
0.00326508
0.00654647
0.00216659
0.00388313
0.00687539
0.00560755
0.00366077
0.00693986
0.00711763
0.00694897
0.00480397
0.00320783
0.00537635
0.00484374
0.0045282
0.00313708
0.00358804
0.0041281
0.00574877
0.00642459
0.0062168
0.00277524
0.00729412
0.00728446
0.00127234
0.00669641
0.000411563
0.00506433
0.00418593
0.00129292
0.000435665
0.000589691
0.000745752
0.0056281
0.00204562
0.00574952
0.00162948
0.000441343
0.0028236
0.000887554
0.00126667
0.0008018
0.00165852
0.00367292
0.000593434
0.00338615
0.00281778
0.000512905
0.000826759
0.000812193
0.00423814
0.00342169
0.00423402
0.00402571
0.00143898
0.00137815
0.00126602
0.00276414
0.00146436
0.00300191
0.00587431
0.0028451
0.00181064
0.00605695
0.00608731
0.00247341
0.00375072
0.0055737
0.00297004
0.00486314
0.00252483
0.00333415
0.00354985
0.00172076
0.00278513
0.00632868
0.00321143
0.00283789
0.00276942
0.00288896
0.00584709
0.00263877
0.00510408
0.00338772
0.00353957
0.00290869
0.00468815
0.00453675
0.00484256
0.00375287
0.00447931
0.00367819
0.00190489
0.00279318
0.00226224
0.00222415
0.00383774
0.0029854
0.00144892
0.00676786
0.00135586
0.0010207
0.00291133
0.00470948
0.00331407
0.00709711
0.00714232
0.00691327
0.00366037
0.0044657
0.00479482
0.00250021
0.00285735
0.00198796
0.00193891
0.00741054
0.00551743
0.00580339
0.00541609
0.00705506
0.00674596
0.00601236
0.00479198
0.0058163
0.00377645
0.00196167
0.0037142
0.0043443
0.00607399
0.00368581
0.00464799
0.00421614
0.00322052
0.00204556
0.00713337
0.00216927
0.00732335
0.00733467
0.00492547
0.004418
0.00473941
0.00451671
0.00311597
0.00513962
0.00540941
0.0064564
0.0040253
0.00288422
0.00592716
0.00693483
0.00701699
0.00707981
0.00476395
0.00413125
0.00444722
0.00573178
0.00321249
0.00357002
0.00307207
0.00385501
0.00569866
0.00693251
0.00318695
0.00426567
0.00712864
0.00626865
0.00411352
0.00276743
0.0030904
0.00436745
0.00325089
0.00621413
0.00241377
0.00471073
0.00305829
0.00246432
0.00646456
0.00678892
0.00677707
0.00686436
0.00650091
0.00680854
0.00706277
0.0014803
0.00238101
0.00135077
0.00266866
0.00205281
0.00100404
0.00238304
0.00353687
0.00372028
0.00211067
0.00285569
0.000182134
0.00220423
0.00530647
0.0038332
0.00544447
0.00406935
0.0057367
0.00164694
0.00426991
0.00596598
0.00375099
0.00451585
0.00656482
0.00530977
0.00397211
0.00245741
0.00698012
0.00684614
0.00710134
0.00658
0.00316886
0.00576143
0.00253941
0.0037117
0.000823236
0.00280433
0.00387577
0.00462621
0.00383435
0.00300386
0.00366218
0.00562752
0.00320448
0.00129957
0.00411492
0.00611234
0.00492898
0.00547856
0.00318959
0.003409
0.00381819
0.00469732
0.0031929
0.00213419
0.00183074
0.00508308
0.00297586
0.0048129
0.00688495
0.00732158
0.00681975
0.00508275
0.00245624
0.00653653
0.00466856
0.00690463
0.00386214
0.00734253
0.00730501
0.00313452
0.00144604
0.00210109
0.00659474
0.00174639
0.00354522
0.00536464
0.00513779
0.00681876
0.00140011
0.00552886
0.00210096
0.00718199
0.00717881
0.00417745
0.00543369
0.00229902
0.00293516
0.00709077
0.00713908
0.00695146
0.00726817
0.00264843
0.00561963
0.00565776
0.00558362
0.00597203
0.00450736
0.00397371
0.00564652
0.00689476
0.00724425
0.00197849
0.00387767
0.00493206
0.00398836
0.00679547
0.00297099
0.00578526
0.00359556
0.00313428
0.00186823
0.00243869
0.00633906
0.00325912
0.00290275
0.00175239
0.00243413
0.00447091
0.00466009
0.00713421
0.00708366
0.00658363
0.00714729
0.0071204
0.00642852
0.00667262
0.00288727
0.00369385
0.00261065
0.00387801
0.00328738
0.00720997
0.00400645
0.00692024
0.0023998
0.00329051
0.00371857
0.00378316
0.00293216
0.000383484
0.00322041
0.000785574
0.000565323
0.00253574
0.0019478
0.0072603
0.00719499
0.00405788
0.00743236
0.00456178
0.0056756
0.00439072
0.00447944
0.00656716
0.00160509
0.00210447
0.00225062
0.00724345
0.00238781
0.000805686
0.00736513
0.00475549
0.000934171
0.00275659
0.00360633
0.00225719
0.0047298
0.00243843
0.00359301
0.00343708
0.00193744
0.00144152
0.00015325
0.00191388
0.00182774
0.00165647
0.00388082
0.00687914
0.00742264
0.00747583
0.00181753
0.000733953
0.00247347
0.0028118
0.00433329
0.00254984
0.0014074
0.00723082
0.00505121
0.00193815
0.00334188
0.00451818
0.000163618
0.00540933
0.00647218
0.00718714
0.00723777
0.0073053
0.00743248
0.00749859
0.00730494
0.00262878
0.00747057
0.00366834
0.00727347
0.00132019
0.00171784
0.0030558
0.00381769
0.00164076
0.00633015
0.00360809
0.0073645
0.00466557
0.00384353
0.00284896
0.00158364
0.00666298
0.00367498
0.000520154
0.000996757
0.00251114
0.00366677
0.00247378
0.0034919
0.00408678
0.00749872
0.00741971
0.00260012
0.00497097
0.00399139
0.00710764
0.0065665
0.00404359
0.00659063
0.00709738
0.00602588
0.00674215
0.00703864
0.00737309
0.00693743
0.00504171
0.00606432
0.00338735
0.00364412
0.00241536
0.00601175
0.00687077
0.00671076
0.00495595
0.00369802
0.0014832
0.00186132
0.00185586
0.00730169
0.00656466
0.00203982
0.00458413
0.0057568
0.00116248
0.00177537
0.000333441
0.000632998
0.000224176
0.00737852
0.00197804
0.000395041
0.00249395
0.00564606
0.00315132
0.000825474
0.00647975
0.00030889
0.00669717
0.00566116
0.00698207
0.00704685
0.00675096
0.00700574
0.00690539
0.00228444
0.001716
0.000884637
0.00735159
0.00274822
0.00416144
0.00672728
0.00367848
0.00278439
0.000959648
0.00224538
0.00640679
0.0023371
0.0060193
0.00711805
0.00730711
0.00381188
0.00190387
0.00734703
0.00367224
0.00238078
0.00577891
0.0040482
0.00666655
0.00357944
0.00728605
0.00514449
0.00258239
0.00686427
0.00631484
0.00261177
0.00420208
0.00715881
0.00380327
0.00443284
0.00325672
0.001497
0.00184724
0.00324802
0.00463795
0.00396598
0.003547
0.00157705
0.00459318
0.0017
0.00310462
0.00518768
0.00545293
0.00727765
0.00581219
0.00374712
0.00541388
0.0057707
0.00265424
0.00558655
0.00467404
0.00199447
0.0016249
0.00572597
0.00593107
0.00640721
0.00705512
0.00384264
0.00325481
0.00182078
0.00397591
0.00728675
0.00199522
0.00551575
0.003204
0.00376008
0.00710748
0.00576208
0.00595359
0.00605727
0.00585884
0.00258276
0.00411864
0.00363821
0.00557798
0.00496934
0.00415396
0.0019177
0.00334672
0.00410992
0.00367962
0.00309456
0.00562145
0.00476604
0.00288137
0.00429441
0.00711848
0.00664638
0.00716234
0.00678447
0.00663886
0.00728537
0.00732672
0.00201798
0.00465864
0.00341631
0.00212114
0.00202513
0.00306787
0.00401503
0.00523679
0.000513004
0.0022141
0.00152646
0.00149081
0.00174562
0.00566228
0.000525914
0.000913314
0.00178831
0.000828476
0.000482704
0.00239325
0.00199548
0.00201278
0.00336825
0.00701784
0.00105088
0.00322201
0.00354542
0.00479648
0.00363498
0.000704712
0.00310446
0.004785
0.00460539
0.00522666
0.0047761
0.00300001
0.0046023
0.00306758
0.00295749
0.00311845
0.00341544
0.00588322
0.000875198
0.00140886
0.000733343
0.000694968
0.00150595
0.000243914
0.000858764
0.00127676
0.00248585
0.00440454
0.00115452
0.00156297
0.00272168
0.00102693
0.00161746
0.000988837
0.000805302
0.00143442
0.00156977
0.00111693
0.00103624
0.000562361
0.0019038
0.00155652
0.00581067
0.0067314
0.00720876
0.00714839
0.00728931
0.00733293
0.00725261
0.00732211
0.000838575
0.00159201
0.00282446
0.00566039
0.00380717
0.00574738
0.0044789
0.00614289
0.00550298
0.00630187
0.00277017
0.00501995
0.00617362
0.00602232
0.00281983
0.00565639
0.00669519
0.00567614
0.00708222
0.00714562
0.00400516
0.00319026
0.00673145
0.00364922
0.00540583
0.00196915
0.00710196
0.0032412
0.00152981
0.00100537
0.00364992
0.00351938
0.00303424
0.00232161
0.00718046
0.00696125
0.00708133
0.00238544
0.00747289
0.00590712
0.00244432
0.00613486
0.00134618
0.00143251
0.00326581
0.00326842
0.00328951
0.00716693
0.00240004
0.000507023
0.00038161
0.00130714
0.00745973
0.00222888
0.00248431
0.00272606
0.0016293
0.000655384
0.00196539
0.00720271
0.0067087
0.00313986
0.000841416
0.00197891
0.000855214
0.00719262
0.000674646
0.00626765
0.00731991
0.00743398
0.00575592
0.00732194
0.00733491
0.00687846
0.00345048
0.00447621
0.00445472
0.00444417
0.00204257
0.0052704
0.00535518
0.00474066
0.00349707
0.00370287
0.00717862
0.00366828
0.00174977
0.004
0.00727058
0.00698035
0.00743015
0.00727829
0.00731704
0.00376913
0.00203629
0.00205258
0.00171693
0.00097743
0.00411615
0.00561886
0.00283908
0.00730574
0.00740856
0.00627798
0.00338139
0.00221881
0.00185283