/*--------------------------------*- C++ -*----------------------------------*\
| =========                 |                                                 |
| \\      /  F ield         | OpenFOAM: The Open Source CFD Toolbox           |
|  \\    /   O peration     | Version:  2506                                  |
|   \\  /    A nd           | Website:  www.openfoam.com                      |
|    \\/     M anipulation  |                                                 |
\*---------------------------------------------------------------------------*/
FoamFile
{
    version     2.0;
    format      ascii;
    arch        "LSB;label=32;scalar=64";
    class       volScalarField;
    location    "0.0882685";
    object      nut;
}
// * * * * * * * * * * * * * * * * * * * * * * * * * * * * * * * * * * * * * //

dimensions      [0 2 -1 0 0 0 0];

internalField   nonuniform List<scalar> 
3991
(
0.00370506
0.00469508
0.00313764
0.0011564
0.00375838
0.00170158
0.00308962
0.00363379
0.00143491
0.00376943
0.000526034
0.00127044
0.00456634
0.00202772
0.00273903
0.000206434
0.00308945
0.000957222
0.000818124
0.00292959
0.000479689
0.00425274
0.00137374
0.00148292
0.000981095
0.0011138
0.00138396
0.000375206
0.00477533
0.00145962
0.000595576
0.00287412
0.00110972
0.000852838
0.00139604
0.00148174
0.00113124
0.00083833
0.00237669
0.000861935
0.000406732
0.000386961
0.000746874
0.000501686
0.00156539
0.00218846
0.00099665
0.00267658
0.00158177
0.00309126
0.00160848
0.0028368
0.00406378
0.0031415
0.00390524
0.000937147
0.00147169
0.000568112
0.000571014
0.0011104
0.00527482
0.00082452
0.000277225
0.000674479
0.000422995
0.0011119
0.000424548
0.000426777
0.0012223
0.0026296
0.00120689
0.00110777
0.00242685
0.00138142
0.00596299
0.00147014
0.00198366
0.00198119
0.00366235
0.00318493
0.000919903
0.00174257
0.00101629
0.00034946
0.000754483
0.000473565
0.0010182
0.00348874
0.00263065
0.00498226
0.000801909
0.000821618
0.000637361
0.000319036
0.000571734
0.00264486
0.000409685
0.000513166
0.00381382
0.00261336
0.000303008
0.000877069
0.000757007
0.000643056
0.00302473
0.00283418
0.00202017
0.00311127
0.00191368
0.00354602
0.00306422
0.00389861
0.00509374
0.00193837
0.00187461
0.00228927
0.00287591
0.00287972
0.00288592
0.00229627
0.00396857
0.000374594
0.00335254
0.000421716
0.000389734
0.000403327
0.00198203
0.00371703
0.0050754
0.00256969
0.00371154
0.00314213
0.0023055
0.000499493
0.000901068
0.00127971
0.00548915
0.00501735
0.00424811
0.00463304
0.00397139
0.000564401
0.000602028
0.000758738
0.00128837
0.00121168
0.00258617
0.00223764
0.000964781
0.00501458
0.00483014
0.00482738
0.00538775
0.00190458
0.00121209
0.00158023
0.00270888
0.00143645
0.00132327
0.00125493
0.00396476
0.00489222
0.00484156
0.000572114
0.00371295
0.000128105
0.000839642
0.00100339
0.00120245
0.00126504
0.00354663
0.00112193
0.00117013
0.00135156
0.0039848
0.00223244
0.000465839
0.00258847
0.00283873
0.00397805
0.00115714
0.00110212
0.000492978
0.00487888
0.00195821
0.00368085
0.00257738
0.000491517
0.000938646
0.00367033
0.00164458
0.00116574
0.000472622
0.000845344
0.00170672
0.00188439
0.00181613
0.000368112
0.00554724
0.00162877
0.00162967
0.00078276
0.00055067
0.00095378
0.000893345
0.00133366
0.00153108
0.00109771
0.000341115
0.00317558
0.000369174
0.000456045
0.000807971
0.000717203
0.000865616
0.000930589
0.00141613
0.00105098
0.0007252
0.00602896
0.000362965
0.00063506
0.00546546
0.000813431
0.00132996
0.000393196
0.000867064
0.00372902
0.000721315
0.00327501
0.000647934
0.00325558
0.00109333
0.00275693
0.00114637
0.000809861
0.00146422
0.00115669
0.000741294
0.0035729
0.00281767
0.00347105
0.00119006
0.004499
0.0014769
0.00202369
0.00594617
0.000761541
0.0033715
0.00258299
0.000496346
0.000579265
0.00119276
0.00156801
0.0021406
0.000451023
0.00215803
0.00061587
0.000604665
0.00140222
0.000480252
0.00113432
0.0015735
0.00249914
0.00208706
0.000642867
0.00246594
0.00110712
0.000202365
0.00102616
0.00194564
0.00142904
0.00134471
0.00236244
0.001173
0.00114485
0.00368681
0.0034467
0.00251326
0.0021282
0.00262945
0.00147505
0.00186218
0.00225411
0.00144387
0.00168619
0.00173207
0.00314766
0.00251729
0.00229638
0.00254609
0.00334622
0.00219704
0.00117606
0.00253108
0.00131836
0.00111837
0.00331584
0.000965256
0.00591044
0.00261124
0.00208874
0.00294253
0.000176376
0.000331779
0.000643904
0.000163782
0.0035642
0.00516871
0.00150336
0.0045653
0.00488566
0.000560729
0.00338435
0.00200974
0.00474541
0.00228085
0.0014548
0.0043247
0.00126329
0.00132737
0.00375819
0.000803836
0.000334545
0.0030783
0.00180053
0.00099903
0.00250283
0.00157029
0.00262102
0.00231694
0.00177497
0.00188655
0.00287091
0.00319848
0.000946044
0.00221619
0.00205119
0.00342765
0.00131362
0.00275599
0.00285055
0.00521428
0.00322983
0.0020046
0.00214901
0.00474717
0.00208571
0.00223218
0.0011504
0.00110051
0.00223111
0.000388921
0.000935699
0.00488914
0.00123819
0.00118903
0.00158388
0.0049073
0.00341692
0.00468949
0.000793503
0.00151638
0.00191876
0.00106952
0.00172713
0.000532192
0.00153882
0.00135754
0.00186622
0.00104884
0.000902277
0.00092431
0.000341114
0.000525123
0.00386624
0.00138084
0.000671692
0.00184467
0.00147129
0.00425584
0.00333224
0.00168639
0.00310954
0.00207692
0.00312115
0.00089662
0.00482133
0.00380665
0.000825345
0.00168655
0.000254055
0.00332202
0.00194414
0.00241189
0.00220419
0.000249652
0.000249984
0.00133991
0.00119476
0.0017033
0.00221124
0.000455823
0.0019617
0.00088995
0.00177685
0.00447457
0.000310263
0.00133878
0.00156314
0.00356775
0.000939725
0.00236899
0.00216345
0.00208407
0.00104886
0.00145998
0.00270898
0.00052117
0.00228625
0.00468123
0.00264619
0.00162784
0.00215874
0.00149874
0.000435019
0.00276195
0.00124662
0.000941552
0.00517685
0.00198979
0.00115586
0.00145632
0.00201225
0.00072654
0.00121543
0.00123002
0.000466057
0.000869193
0.0034883
0.00115636
0.00542938
0.00409681
0.000947192
0.000479601
0.000513178
0.000882808
0.00105888
0.000404868
0.00042071
0.000664113
0.000426283
0.00379391
0.00107361
0.000560163
0.00168508
0.00127314
0.000637023
0.000631556
0.00242218
0.00145232
0.00202025
0.00449593
0.000924423
0.000845447
0.000598024
0.000586184
0.00377989
0.00301747
0.00309385
0.000801515
0.0030179
0.00179019
0.00320971
0.00433468
0.0016146
0.00154259
0.0011386
0.00371275
0.00317944
0.00473052
0.00189519
0.00295472
0.000253374
0.0011496
0.00276509
0.00240926
0.00552898
0.00389627
0.00314896
0.00321824
0.00338433
0.00199155
0.00234918
0.0013201
0.0020677
0.00109788
0.00293824
0.0045341
0.00169882
0.00314463
0.0006493
0.00199142
0.000313916
0.00402832
0.00141247
0.0045204
0.00399
0.00438115
0.00448041
0.00490422
0.000457965
0.000735604
0.00244112
0.000579977
0.00129271
0.00113426
0.00335944
0.00145657
0.000550478
0.00244877
0.000151294
0.000778459
0.000423988
0.00177187
0.000593585
0.00144027
0.00482215
0.00353937
0.0030777
0.00294998
0.00246257
0.000551296
6.28194e-05
0.000404473
0.00173453
0.000522008
0.00498738
0.00279816
0.00132395
0.00390528
0.000654949
0.00119362
0.0013815
0.00355724
0.00372072
0.000772803
0.000967787
0.00205829
0.000764047
0.0011801
0.000689475
0.000688524
0.000484604
0.000407712
0.00204855
0.00215179
0.000589832
0.000470432
0.000674187
0.000572868
0.00325146
0.00278901
0.000926973
0.000375632
0.000928988
0.000488608
0.000918528
0.00209259
0.000591602
0.000734871
0.00262539
0.00334063
0.00255117
0.00279771
0.00158345
0.000212897
0.00050288
0.000703
0.000731673
0.000466355
0.000813939
0.000477386
0.00405044
0.00121369
0.00395236
0.00535435
0.00201532
0.00260853
0.00421395
0.00333898
0.00150932
0.00399535
0.00400103
0.00284255
0.0061775
0.00290929
0.00464757
0.00381453
0.00398624
0.00354924
0.00442977
0.000695851
0.000522964
0.00178611
0.00223373
0.00301302
0.00659482
0.000574753
0.00222551
0.00314412
0.00107143
0.00150371
0.000746924
0.000717936
0.000858171
0.0023588
0.00338116
0.00370253
0.00360134
0.00324916
0.0017601
0.00272641
0.00172796
0.00168881
0.000832529
0.000798932
0.00145309
0.000372105
0.000620456
0.00216092
0.00205223
0.000740788
0.000745048
0.00100089
0.00310578
0.0021537
0.00236245
0.00287933
0.00243158
0.00179661
0.00397412
0.00423151
0.00375574
0.00484212
0.00300429
0.000996815
0.00363493
0.00180958
0.00108164
0.00297255
0.00349848
0.00132287
0.00421295
0.00412847
0.00374928
0.00212285
0.00161724
0.000304464
0.000178629
0.000261015
0.000179796
0.000303193
0.000353786
0.000587368
0.00125609
0.00170306
0.00218677
0.00374141
0.00556914
0.00161081
0.00309405
0.00238262
0.00053752
0.00185199
0.0011661
0.00105818
0.00059566
0.000781712
0.000667697
0.00120213
0.00309715
0.00242031
0.001967
0.00113164
0.00334385
0.0031165
0.00178653
0.0023061
0.00080206
0.00301973
0.00499151
0.00172635
0.00451714
0.00286121
0.00399327
0.00060945
0.00327105
0.00196033
0.00107771
0.00451962
0.0049503
0.00111017
0.00426246
0.00335912
0.00104567
0.00103896
0.000536746
0.000480769
0.00135043
0.0036331
0.00203799
0.000703884
0.00350571
0.00470085
0.00274127
0.00258697
0.00329331
0.000716958
0.000381084
0.00177142
0.000791349
0.00231816
0.00407601
0.00229153
0.00030549
0.00237004
0.00160394
0.000999518
0.000906696
0.00241553
0.00198216
0.00371448
0.00154677
0.000932711
0.000438108
0.00242315
0.002426
0.00217363
0.000484439
0.00353015
0.00170014
0.00218745
0.00194775
0.000986672
0.000443812
0.00171967
0.00150664
0.000935076
0.00115582
0.00382121
0.00276235
0.00203076
0.0040687
0.00190976
0.00288854
0.0021959
0.000633181
0.00145994
0.00139922
0.000580727
0.00460923
0.001288
0.00375107
0.000759344
0.00060334
0.000393406
0.000246349
0.000760932
0.000856964
0.000552331
0.000444881
0.000418489
0.000783054
0.00409607
0.00200238
0.000913258
0.0023763
0.00193092
0.00210378
0.00332512
0.00345388
0.000968893
0.00132834
0.00169509
0.0036811
0.00262998
0.00341678
0.00168736
0.00156043
0.00162722
0.00198042
0.00153566
0.0038248
0.00443681
0.00303505
0.00072191
0.00276042
0.0027352
0.00324401
0.0033956
0.00151216
0.00237243
0.00182324
0.00538391
0.00247084
0.00172332
0.00164199
0.000915823
0.00107566
0.00251604
0.000541263
0.00345362
0.000700303
0.000523571
0.00196622
0.00497979
0.00134689
0.0048282
0.00102806
0.00195538
0.00112321
0.0009869
0.00129321
0.00295136
0.00572441
0.000598889
0.00194692
0.00348895
0.00415047
0.00271891
0.00185608
0.00278379
0.000581371
0.00641397
0.00371819
0.00114402
0.0018781
0.00145135
0.00176994
0.00540494
0.00483907
0.0019503
0.00278915
0.00549925
0.00504866
0.00125171
0.00528094
0.00389342
0.00360859
0.00251412
0.00442381
0.00428385
0.00502075
0.00231145
0.00233293
0.00118901
0.00191102
0.00166962
0.00133176
0.0032869
0.0013409
0.00111352
0.000840872
0.0019871
0.00222647
0.00323336
0.00199377
0.0020437
0.010635
0.00493486
0.00262149
0.00273794
0.00122943
0.00194339
0.0020383
0.00281615
0.0024095
0.00158523
0.000509346
0.000890574
0.000184289
0.00153259
0.000748634
0.000281336
0.00143008
0.00384552
0.00491498
0.000473708
0.00132005
0.0053788
0.00409585
0.00129254
0.00116816
0.00503944
0.00220153
0.000964737
0.00184371
0.00229821
0.000411464
0.00252324
0.00466345
0.00291629
0.0014106
0.000776379
0.00192064
0.00297581
0.000510238
0.000529698
0.00161395
0.00217074
0.000425994
0.00191694
0.00181712
0.000812407
0.00143417
0.0011166
0.00388244
0.00230371
0.00407653
0.0024573
0.00510186
0.0045182
0.0059029
0.0023117
0.0012427
0.00289039
0.000951108
0.00247007
0.00176275
0.00152589
0.00151929
0.0012546
0.00186351
0.000715623
0.000676298
0.00126882
0.000961894
0.00123682
0.00551132
0.00138264
0.00104243
0.000855671
0.00174932
0.000650204
0.000888802
0.000724526
0.000236013
0.00329527
0.00155301
0.00105979
0.00120122
0.00100829
0.00400781
0.00489265
0.00101905
0.00309982
0.00176799
0.00226766
0.00205006
0.00245456
0.00216721
0.000695386
0.0013264
0.000218186
0.000996556
0.000845997
0.000476765
0.00101007
0.0017913
0.000756422
0.000501144
0.00197164
0.00523477
0.0012439
0.00348583
0.00280029
0.00238946
0.00316975
0.00289747
0.00261195
0.000556474
0.00165204
0.00498564
0.00354678
0.000466687
0.00344046
0.00124514
0.00237987
0.000484749
0.00262197
0.00179109
0.00409016
0.00124342
0.00388668
0.00168079
0.00205043
0.00132274
0.00224802
0.000534973
0.00185918
0.00120613
0.00106444
0.00131199
0.00104285
0.000456951
0.00126204
0.00191009
0.00178576
0.000545453
0.002325
0.00097148
0.00070998
0.00203655
0.0020685
0.00181565
0.00285575
0.00200055
0.00178532
0.00195065
0.00179801
0.000578253
0.00347936
0.000564552
0.0004232
0.000998934
0.000350076
0.00281465
0.00371541
0.00113261
0.00135042
0.00740398
0.000221532
0.000391929
0.000427166
0.00236617
0.000489551
0.000732942
0.00119788
0.000458749
0.00161574
0.000616655
0.000966381
0.00105859
0.000829244
0.00049947
0.001045
0.000649191
0.00156365
0.00133739
0.00109895
0.000838474
0.00103979
0.00106045
0.000637364
0.000576554
0.000864298
0.00110459
0.00097688
0.00134175
0.00164968
0.00213326
0.00205541
0.00219817
0.00145474
0.00121668
0.00254375
0.00140029
0.00144253
0.00272804
0.00065044
0.00298978
0.00705546
0.00706493
0.00292215
0.00454369
0.000566854
0.00117586
0.00589327
0.00500053
0.000865184
0.00268893
0.00117965
0.00259865
0.00122377
0.0049805
0.00161293
0.00116524
0.00167942
0.0014428
0.000415356
0.00392632
0.00400155
0.000662213
0.00314082
0.00264975
0.00311796
0.00251898
0.0021026
0.00101102
0.00172072
0.0030585
0.00427926
0.00078978
0.00191086
0.000680299
0.00164975
0.00260338
0.00281135
0.00276916
0.00205562
0.00666846
0.00313944
0.000841995
0.000680562
0.00287532
0.0030524
0.00184542
0.00258607
0.0023848
0.00118657
0.00137521
0.000397492
0.000624277
0.000364623
0.00115472
0.000402348
0.00079329
0.0033693
0.00336634
0.00139607
0.00261972
0.00366534
0.00270115
0.0046234
0.00170996
0.0026826
0.0033765
0.0031496
0.00262158
0.00176001
0.00535555
0.0050656
0.00122035
0.00266975
0.00266471
0.00273013
0.00108873
0.00190855
0.0016776
0.0032567
0.000587617
0.0013271
0.00177823
0.0011984
0.00228541
0.00162655
0.00238514
0.00180452
0.00169586
0.00159718
0.00231824
0.00305832
0.00030362
0.00115722
0.00125059
0.000797678
0.00279019
0.000730272
0.00397889
0.00365507
0.00384963
0.000718273
0.00411226
0.00411366
0.00230561
0.000938449
0.000746404
0.000782775
0.00654384
0.000653957
0.000988234
0.00381089
0.00423794
0.00353228
0.00199949
0.00482415
0.00154795
0.00232433
0.00440763
0.000647525
0.000967614
0.00101163
0.000613661
0.000707473
0.000897026
0.000681619
0.000419366
0.00160823
0.000730634
0.0010328
0.000880608
0.000808037
0.00143373
0.000484342
0.000691797
0.00353544
0.00164352
0.00288178
0.00331677
0.00309638
0.00235222
0.00357923
0.00266186
0.00231691
0.00300042
0.00123977
0.00341125
0.00178262
0.000523257
0.000619169
0.000841574
0.000638905
0.000648115
0.000371692
0.000379542
0.00381168
0.00166481
0.00162719
0.00173408
0.0031869
0.00341194
0.00145736
0.00292754
0.000713495
0.00201374
7.62419e-05
0.000645939
0.000516134
0.000281676
0.00189952
0.00054712
0.000470977
0.000440488
0.000991654
0.000844747
0.000293529
0.00134852
0.000302112
0.000819046
0.000120235
0.000496032
0.00127162
0.00063487
0.00129797
0.000298806
0.000524274
0.00065632
0.000623664
0.00343354
0.000833011
0.00100533
0.00105604
0.000722621
0.000446975
0.000374533
0.00185942
0.000752909
0.000754504
0.00105203
0.00043189
0.000784932
0.0055438
0.000757122
0.000467739
0.00136502
0.00104742
0.000612261
0.00287494
0.000273683
0.000258335
0.000618179
0.000907208
0.00141665
0.0010263
0.00104385
0.00123725
0.000809225
0.00112067
0.00106861
0.00417712
0.00451435
0.00366684
0.000749994
0.00427476
0.00476674
0.00135621
0.00221713
0.000670106
0.00468031
0.00493088
0.00318648
0.00121014
0.00122682
0.00273223
0.00495994
0.000661444
0.00309332
0.00043322
0.000449636
0.00249981
0.000277149
0.000439449
0.00173601
0.00167631
0.00519016
0.000692019
0.000201955
0.000668629
0.000170791
0.000491035
0.000715546
0.0053326
0.00263738
0.00506006
0.00333072
0.00547191
0.00299655
0.00343582
0.00196052
0.0028034
0.0016633
0.000329894
0.000754153
0.0010855
0.00219414
0.00546174
0.00144409
0.0023078
0.0035177
0.00440035
0.00166229
0.00377078
0.00111614
0.00118359
0.00119574
0.000580121
0.00155088
0.00123606
0.00070287
0.000908822
0.00298056
0.00148362
0.000783946
0.00225285
0.00170926
0.00162638
0.00172403
0.00186996
0.000410195
0.00108568
0.00166427
0.00323989
0.00162788
0.00507066
0.00183843
0.0056865
0.0033782
0.00151671
0.0019193
0.000648369
0.000660801
0.00168331
0.00168328
0.00347395
0.00314402
0.00200201
0.00245578
0.00178137
0.000706603
0.00062343
0.000685146
0.000733139
0.00120834
0.000896727
0.00108715
0.00038043
0.00167973
0.0044334
0.000697298
0.00131153
0.00174411
0.00100138
0.000278409
0.00147949
0.00234411
0.00213566
0.000851891
0.00405905
0.00466747
0.00432728
0.00583117
0.00444349
0.0030325
0.00255609
0.000479284
0.00147058
0.00206114
0.00154178
0.00150278
0.00198323
0.00118765
0.00128538
0.00235814
0.00116137
0.00272964
0.00276669
0.00173679
0.00308248
0.000636294
0.000814834
0.00214278
0.00223962
0.00407013
0.000666814
0.00155929
0.000563137
0.000718866
0.00120053
0.000563478
0.000592718
0.000488768
0.000388825
0.00108516
0.00133133
0.00144557
0.0017399
0.00123497
0.0018629
0.00233722
0.00206889
0.00194816
0.0021371
0.00140179
0.00116496
0.000718278
0.000631489
0.00215626
0.00225894
0.000607165
0.00108533
0.00179935
0.00162744
0.000923637
0.0012908
0.00128847
0.00134903
0.0038515
0.00251607
0.00341843
0.00159114
0.00312888
0.00330874
0.00290124
0.00041914
0.000796704
0.00490247
0.00427756
0.00427274
0.00460206
0.00136614
0.00129278
0.00138803
0.00527484
0.00301967
0.00275224
0.0023909
0.00265061
0.00212197
0.00295245
0.00378528
0.00295647
0.00251953
0.00318801
0.000826276
0.00383619
0.00120765
0.00340715
0.00159758
0.0051873
0.00233791
0.00208114
0.000873036
0.00260961
0.00248986
0.00142441
0.00387782
0.00182452
0.000270084
0.00134488
0.000907448
0.00352538
0.00146801
0.00345658
0.0017783
0.000846593
0.000701286
0.00168339
0.000963462
0.000955457
0.00215177
0.00114353
0.00121489
0.00169383
0.0040423
0.00238998
0.00238925
0.0035213
0.00170447
0.000979224
0.00533949
0.000882578
0.000329325
0.00185951
0.00236491
0.00439643
0.00315169
0.00323711
0.00476246
0.00341694
0.00227687
0.00322483
0.00461367
0.00543431
0.0013244
0.00197581
0.00164594
0.00161018
0.00322344
0.0016019
0.000976907
0.000642067
0.000628687
0.0049757
0.000536472
0.00223634
0.00333025
0.00141419
0.00142439
0.000824917
0.00101075
0.00198988
0.00263764
0.00136094
0.00162595
0.00131609
0.00112461
0.00316083
0.00268597
0.00248295
0.00275061
0.0010045
0.00077863
0.00400068
0.00310378
0.00111419
0.00529044
0.00193105
0.00415091
0.00340404
0.00283841
0.00543802
0.00223309
0.00393269
0.00104447
0.000738431
0.000870362
0.000960102
0.00295426
0.00198424
0.00461155
0.00297729
0.00404703
0.00141724
0.00562523
0.00259108
0.00194671
0.00289962
0.00393492
0.000893892
0.00147005
0.000892304
0.00254898
0.00338164
0.00339816
0.00335852
0.00216916
0.000737035
0.00368277
0.00298836
0.0033516
0.00274366
0.00426224
0.00135061
0.000651084
0.00225497
0.00136942
0.00407589
0.000146045
0.000841285
0.000740753
0.0011904
0.000877595
0.000259564
0.0023727
0.00151593
0.000742642
0.000860542
0.00436023
0.000758398
0.000211797
0.00102197
0.000424843
0.00277001
0.00171167
0.00403696
0.00162502
0.000830818
0.00128374
0.00105775
0.00455863
0.00275039
0.00259117
0.00347216
0.00131641
0.000664264
0.000891248
0.0056417
0.00119025
0.00238067
0.00253277
0.00445581
0.00198391
0.00329477
0.00449391
0.000872411
0.00396152
0.00383864
0.00122035
0.00191148
0.00464208
0.00301478
0.0054025
0.00210483
0.00174537
0.00550329
0.00365526
0.0023424
0.00136998
0.00195952
0.00426116
0.00192964
0.000790777
0.00112992
0.000499907
0.00233521
0.000423819
0.00595106
0.00105441
0.00218031
0.00418157
0.00157473
0.00328236
0.0012311
0.00403867
0.00137076
0.00177624
0.000823298
0.000385623
0.000101228
0.000206341
0.00109049
0.000498671
0.000166066
0.00123061
0.00266463
0.000410584
0.00300389
0.00405926
0.000373848
0.000421988
0.000325022
0.000934326
0.00317778
0.00140347
0.00198887
0.00161873
0.000783655
0.000686091
0.000820607
0.00046565
0.000965825
0.000825882
0.000681806
0.000157792
0.00129064
0.000997705
0.00495229
0.000238377
0.00180195
0.00563773
0.00382056
0.00324862
0.00254842
0.00538851
0.00563625
0.0016087
0.000989402
0.000303752
0.00123473
0.000742756
0.00151328
0.000942215
0.00129628
0.00126881
0.00107263
0.00143354
0.000389568
0.000736691
0.00253171
0.0016819
0.000531982
0.000248222
0.000752158
0.000437016
0.00039795
0.000683067
0.0010873
0.00160679
0.000741966
0.00108795
0.0012285
0.00111104
0.000564868
0.000803813
0.000901107
0.00258543
0.00108815
0.00245801
0.00263029
0.00172895
0.00165618
0.00197121
0.0020258
0.00203129
0.00171254
0.00285518
0.00278572
0.000435013
0.000106242
0.000190079
0.00152803
0.00145828
0.000575454
0.00213358
0.0043517
0.000328379
0.000616767
0.000812736
0.00036831
0.000886026
0.00257693
0.00201112
0.00131008
0.00119411
0.000797572
0.00570694
0.00215813
0.00118149
0.00237075
0.00181413
0.0040564
0.00455969
0.00246951
0.00109308
0.00235882
0.00163517
0.00229789
0.00113965
0.00153097
0.00125361
0.00337469
0.000307229
0.00081206
0.000556417
0.000686064
0.00107309
0.0010074
0.000644977
0.000626526
0.000869072
0.000692745
0.000619475
0.000471911
0.000572267
0.000748199
0.0051996
0.00244625
0.00264493
0.00358257
0.00470309
0.00233029
0.00249492
0.00536491
0.00429194
0.0039968
0.00189612
0.00459282
0.000693656
0.000702259
0.000791578
0.000977335
0.00278067
0.00256999
0.00256952
0.00190977
0.00362838
0.00346519
0.00198491
0.00328185
0.00291253
0.00532355
0.000597081
0.00525949
0.00450476
0.00553462
0.00523217
0.00222115
0.00300384
0.00398568
0.00110993
0.00148204
0.000899034
0.00117286
0.00123815
0.00120713
0.00186422
0.000977199
0.00112608
0.000876914
0.00261724
0.000911876
0.00061086
0.00280736
0.000826364
0.00270192
0.000846018
0.000371237
0.000756903
0.000235512
0.00192512
0.000433713
0.000779264
0.00184178
0.000776727
0.00100359
0.000400272
0.00229786
0.000169607
0.00160377
0.00252745
0.00114416
0.0040882
0.00546555
0.00165082
0.00362335
0.00144632
0.00206715
0.00113408
0.00158482
0.00241888
0.00242563
0.00160626
0.00142754
0.00137071
0.00468103
0.0013174
0.00455878
0.00351927
0.00304968
0.00246823
0.000883293
0.000172146
0.00216932
0.000531165
0.00245788
0.00130682
0.00189127
0.00243259
0.00613495
0.000930304
0.00138662
0.00235129
0.000636173
0.00117589
0.000862767
0.00599953
0.00665528
0.00180202
0.00144934
0.000325256
0.00084981
0.00194248
0.000566642
0.00138939
0.000908508
0.00286596
0.00414241
0.00219642
0.00456411
0.00233377
0.00238718
0.00036695
0.000260671
0.000727876
0.000959552
0.00504953
0.00381677
0.000586117
0.000399968
0.000292485
0.000527348
0.000804247
0.000307799
0.000499373
0.000660923
0.000532882
0.000508376
0.000464907
0.000547339
0.000391345
0.000767984
0.000648704
0.000397016
0.000530289
0.001942
0.000359658
0.00146668
0.000883807
0.00200176
0.0023775
0.00418382
0.00351163
0.000499134
0.000815928
0.00400037
0.00111461
0.00106039
0.00228116
0.00147672
0.00208325
0.00102423
0.00154053
0.00112573
0.00141467
0.00107236
0.000655726
0.000610996
0.00489936
0.00175724
0.00292338
0.000636308
0.00458016
0.000868688
0.00160202
0.00318076
0.00330068
0.00022088
0.000865606
0.000484848
0.00045359
0.0011464
0.000580661
0.000861549
0.000497751
0.00121555
0.000842039
0.0025776
0.000459875
0.00288603
0.000688222
0.000726211
0.000849082
0.000332162
0.000721245
0.000606303
0.000667271
0.000729466
0.0010039
0.000742803
0.00498852
0.000335411
0.000442882
0.00159614
0.00216396
0.00245173
0.00137261
0.000442772
0.000319531
0.000520271
0.0012136
0.00152401
0.00153059
0.00147959
0.00161398
0.00142892
0.000901536
0.00128953
0.00122792
0.0012724
0.000847126
0.00115843
0.000833546
0.00305361
0.000225348
0.000382077
0.000403652
0.000489345
0.000394615
0.00026817
0.000401594
0.000392746
0.00414864
0.00398547
0.000455878
0.00137648
0.00234382
0.00138885
0.00182757
0.000959176
0.00105489
0.000472428
0.000665151
0.00104126
0.00150809
0.000355536
0.00151259
0.00509477
0.00565007
0.00582184
0.00266844
0.00290591
0.00183953
0.00225163
0.00448194
0.00166791
0.00164219
0.00154646
0.000975142
0.00258108
0.00305099
0.00181173
0.00151709
0.00380804
0.00118653
0.00429352
0.00124323
0.00193956
0.00428808
0.00283259
0.00176109
0.000753875
0.00198833
0.00149414
0.00302774
0.000962166
0.00136132
0.00118682
0.00191173
0.00145129
0.00124787
0.00065952
0.0010234
0.00231173
0.00146017
0.000522211
0.000422142
0.000993471
0.00083396
0.000335197
0.000444551
0.000859153
0.00167911
0.00189056
0.001434
0.00206096
0.00176135
0.001451
0.000630955
0.00223173
0.000871881
0.00141357
0.00167197
0.00108374
0.00220242
0.00152463
0.000918117
0.00103746
0.000622376
0.00183894
0.00150246
0.00198489
0.00428273
0.00129296
0.00104241
0.000640426
0.00125943
0.00139949
0.00563672
0.00517707
0.00388545
0.00383006
0.00322178
0.00394452
0.00135665
0.00141605
0.0010983
0.00162322
0.00269501
0.00334058
0.00301449
0.00456318
0.0036293
0.00501599
0.00124581
0.00148812
0.000388585
0.00407572
0.00167837
0.00457186
0.000351493
0.00213218
0.00559608
0.00459259
0.000489772
0.000595663
0.00112588
0.00161367
0.00360487
0.00182087
0.00257149
0.00227484
0.00335308
0.00190971
0.00251248
0.00361034
0.00298486
0.00301231
0.00612927
0.00564542
0.0111013
0.00365967
0.00512649
0.000239132
0.00110694
0.00156696
0.000185286
0.00175348
0.00184579
0.00147899
0.00217091
0.00166172
0.00097205
0.000512814
0.000515312
0.000484382
0.000115624
0.00104012
0.000479069
0.000772956
0.0027874
0.00340991
0.00092861
0.000883097
0.00256964
0.00464687
0.00266358
0.000624779
0.000561976
0.00186196
0.000901225
0.00226281
0.00223393
0.004019
0.002834
0.00252868
0.000740941
0.000408169
0.000998477
0.000671136
0.000106318
0.000412865
0.000625695
0.000651603
0.00258613
0.000683384
0.00193387
0.0019026
0.00195314
0.00196663
0.00213279
0.00223911
0.00105965
0.00213932
0.00311972
0.00425289
0.000936605
0.00111262
0.00122575
0.000758759
0.00061776
0.00088239
0.0031833
0.00416384
0.0019651
0.00184013
0.00155764
0.00179553
0.00209947
0.00398408
0.00301825
0.00239919
0.00336395
0.00221724
0.000492115
0.000250993
0.00132661
0.00133746
0.00731511
0.00367868
0.000960862
0.00279985
0.000792905
0.00297009
0.000732214
0.00367577
0.00152538
0.000725327
0.000314096
0.00117576
0.000932206
0.0029569
0.000866878
0.00234751
0.0027041
0.00129922
0.00426871
0.00164166
0.00155752
0.00407154
0.00172757
0.00491854
0.0058021
0.00130666
0.00348616
0.00276478
0.00639869
0.00200416
0.00531113
0.00479891
0.00462231
0.00294644
0.0050443
0.00243469
0.00277018
0.000294022
0.00166629
0.00273697
0.00239755
0.00208218
0.00175855
0.00457109
0.00283975
0.00275386
0.00242024
0.00161027
0.00120904
0.00131427
0.00209135
0.00249321
0.000237871
0.00191584
0.00172521
0.000948867
0.00116918
0.00131724
0.00189068
0.00369096
0.00330353
0.000942665
0.00017148
0.00213287
0.00605517
0.00430426
0.00122099
0.00211936
0.00200475
0.000392625
0.00057549
0.000925678
0.000776025
0.0006072
0.0022704
0.00155148
0.000681387
0.00213704
0.00158332
0.000342385
0.00199228
0.00203375
0.00215006
0.00299907
0.00147554
0.00209438
0.00244094
0.00235666
0.00376018
0.0015561
0.00133387
0.00119789
0.00157823
0.00193627
0.00176273
0.000458418
0.00257485
0.00284566
0.000452012
0.000278577
0.00430063
0.00170871
0.000454992
0.000670512
0.00037354
0.000413488
0.000322368
0.00104227
0.00129457
0.0024514
0.00154401
0.00115401
0.000250594
0.000799152
0.000676012
0.00226202
0.00061902
0.000605546
0.000320228
0.000346606
0.00109557
0.00023762
0.00048916
0.00350786
0.00501629
0.00019852
0.00147896
0.00505726
0.00249996
0.00167036
0.00145532
0.0011054
0.00221442
0.00126962
0.00119161
0.00107595
0.00094472
0.00319345
0.00310526
0.0039859
0.00328346
0.00269009
0.00482359
0.00215362
0.005048
0.00344713
0.00141529
0.00476115
0.00265714
0.00215806
0.00191513
0.0022552
0.00133646
0.000701877
0.00128765
0.00069321
0.000866975
0.00437974
0.000192939
0.0013691
0.000958056
0.00143038
0.00121307
0.000770409
0.000503457
0.00043775
0.00461445
0.00329404
0.0017094
0.000796141
0.000724583
0.000814288
0.000906996
0.000734054
0.000317401
0.00048818
0.00111898
0.00304512
0.000817599
0.00114059
0.000914417
0.000154006
0.0038198
0.000816226
0.00121415
0.000458787
0.00198073
0.00122561
0.00219382
0.00100749
0.000176276
0.000616179
0.00164197
0.000898466
0.000368278
0.000589367
0.000442701
0.00111522
0.00120569
0.000883474
0.000579899
0.00320348
0.000719238
0.000285392
0.00237412
0.000370727
0.00033559
0.00104649
0.000320876
0.000658286
0.000446699
0.00086272
0.0029076
0.00146939
0.0027181
0.00150272
0.00156984
0.00105271
0.00192172
0.0029721
0.00211641
0.000444014
0.000770989
0.000718246
0.00178024
0.00364362
0.00138243
0.000468186
0.000871456
0.000804334
0.000799083
0.000389561
0.0004326
0.00175365
0.000790303
0.000546665
0.000306807
0.000628151
0.0036747
0.00269063
0.00361945
0.00368608
0.00356678
0.00108235
0.000818157
0.00186283
0.00253293
0.000736186
0.00110074
0.00541241
0.000195049
0.000384989
0.00523158
0.00272035
0.000538574
0.000807898
0.00446937
0.0041254
0.00191621
0.00624425
0.00113689
0.00220562
0.000133469
0.000763416
0.000362817
0.000885188
0.00106918
0.000932771
0.00166552
0.00148285
0.00129156
0.000620375
0.000872842
0.00334209
0.00130202
0.00433175
0.00256183
0.00138065
0.00125435
0.000991019
0.00114166
0.00179572
0.00115734
0.00170985
0.00156094
0.000357882
0.000260278
0.000977449
0.000265201
0.000983955
0.000712278
0.000598113
0.00364579
0.000997865
0.000177781
0.00271673
0.000999626
0.00145134
0.00133078
0.00314092
0.00151487
0.00382124
0.00163639
0.000249146
0.000465627
0.000431211
0.000476942
0.00361713
0.00211648
0.00246035
0.00182957
0.00195984
0.00535612
0.00100446
0.00156288
0.000631815
0.00057017
0.000413046
0.000649348
0.00280413
0.000591711
0.000955763
0.0025383
0.00460727
0.000414198
0.00167048
0.00214144
0.00229581
0.00167651
0.00476262
0.00446768
0.00314826
0.00429571
0.00447569
0.00223254
0.00513172
0.00295158
0.000351156
0.00086102
0.00292595
0.000959317
0.000731276
0.00389115
0.00375151
0.0027023
0.00423875
0.00133369
0.00417924
0.0038165
0.0017778
0.00168278
0.00387936
0.00393252
0.00360922
0.00432439
0.0027128
0.0029031
0.00566412
0.0031603
0.000457745
0.00394078