/*--------------------------------*- C++ -*----------------------------------*\
| =========                 |                                                 |
| \\      /  F ield         | OpenFOAM: The Open Source CFD Toolbox           |
|  \\    /   O peration     | Version:  2506                                  |
|   \\  /    A nd           | Website:  www.openfoam.com                      |
|    \\/     M anipulation  |                                                 |
\*---------------------------------------------------------------------------*/
FoamFile
{
    version     2.0;
    format      ascii;
    arch        "LSB;label=32;scalar=64";
    class       volScalarField;
    location    "0.0882685";
    object      omega;
}
// * * * * * * * * * * * * * * * * * * * * * * * * * * * * * * * * * * * * * //

dimensions      [0 0 -1 0 0 0 0];

internalField   nonuniform List<scalar> 
3991
(
77.2342
81.4884
92.4995
457.495
61.5572
466.288
45.4049
69.8244
447.663
89.2152
197.806
486.481
45.6828
342.407
45.3531
1839.75
49.0755
62.532
640.304
119.457
224.681
45.294
394.877
658.724
174.028
739.871
208.927
573.082
74.3002
437.709
289.073
403.29
68.6374
98.7492
688.012
641.013
478.631
582.689
425.493
567.827
146.684
864.269
89.6024
844.868
70.9889
362.715
594.24
362.814
602.184
72.1072
192.05
173.187
58.7754
353.453
76.4902
267.846
142.937
663.902
707.557
499.728
53.4982
61.9565
339.911
532.507
259.538
498.78
1004.74
334.359
52.92
51.5189
534.851
102.844
126.979
195.055
54.7293
785.677
53.729
643.936
52.9784
93.9183
285.995
98.8776
136.366
310.27
209.591
914.563
524.635
56.1421
92.663
69.6664
66.3604
340.165
928.308
1079.58
834.056
53.1068
915.577
1046.84
78.8996
200.436
1099.85
579.6
601.822
642.591
107.488
50.627
291.425
46.1399
47.9644
45.9805
47.5675
45.3622
45.7694
50.3873
49.4749
49.6409
98.3904
96.7211
97.2094
126.962
79.0432
303.009
50.3854
174.919
604.153
172.086
159.33
77.5113
58.9754
51.463
57.0244
52.6875
53.3515
1017.27
782.176
479.485
52.5626
47.5777
49.438
53.4788
78.5029
1199.61
123.334
1075.21
552.397
54.1397
117.526
53.5982
653.475
52.5827
52.3718
58.9944
53.5349
267.714
554.788
351.308
166.22
587.735
1094.31
1059.77
72.7802
70.8741
55.7113
1276.45
394.152
1657.87
968.344
1170.63
1158.9
52.7392
57.4323
747.006
586.284
58.007
75.3614
72.2098
172.881
204.435
45.8469
71.1386
64.9804
323.706
693.514
59.3145
77.5709
78.1717
68.744
178.459
98.7416
57.6116
77.5018
117.929
309.824
86.1992
99.7611
408.688
74.1771
1977.35
52.2769
72.5636
575.504
115.452
1858.47
616.679
883.599
669.567
455.032
415.436
959.06
51.9017
2021.87
165.024
1400.38
93.4044
1074.3
67.6896
458.526
537.433
672.309
300.043
617.386
1285.87
387.092
219.919
752.611
654.671
138.145
314.168
252.03
86.2822
694.98
50.2506
112.391
49.6111
174.058
353.275
58.5562
666.197
230.785
69.6246
171
126.196
407.001
86.723
452.713
378.401
49.3709
212.287
44.5642
485.724
625.767
200.995
66.1816
92.4138
638.069
1378.25
133.641
167.014
81.2257
53.1835
141.412
74.0516
355.859
185.633
520.193
169.113
192.753
722.691
745.587
656.635
365.786
638.086
303.746
350.205
461.165
465.138
314.781
306.883
96.7025
215.893
167.599
575.708
259.632
214.912
400.519
317.847
303.4
102.828
80.984
74.7641
68.7632
47.8734
656.986
87.8531
318.787
631.722
486.368
45.1494
1105.89
50.7849
393.78
531.829
47.7891
952.585
346.395
279.978
960.069
79.3486
60.5511
489.279
58.6453
62.1516
510.527
59.6302
47.3436
47.093
198.975
79.2323
58.1838
68.2202
129.045
80.0167
98.0699
2033.23
84.6975
123.762
61.1174
50.5657
210.76
46.4099
170.344
132.709
155.693
100.434
341.508
569.223
215.46
67.457
55.0529
461.948
53.7111
49.0738
54.6614
55.7831
60.992
55.7727
52.0632
141.221
74.9346
531.8
923.218
49.5646
1009.35
114.096
58.7311
673.69
1765.42
577.679
308.372
83.1967
45.1455
95.5004
649.887
53.2496
59.2892
51.8203
1777.02
357.809
868.414
90.2698
65.2048
90.7186
506.187
899.069
801.398
48.0647
63.0777
730.477
83.223
52.7081
72.1023
89.353
603.679
48.9625
46.9635
50.4758
752.894
61.3643
48.0055
97.1587
57.4
928.94
52.014
85.0717
409.398
130.443
373.204
853.217
711.577
553.118
50.6448
218.425
592.861
361.825
72.0299
300.719
48.3442
766.674
445.755
652.155
65.8429
99.771
48.5186
64.57
48.8784
58.0405
189.3
113.113
143.912
48.8769
62.2779
92.1081
58.864
525.933
64.1949
155.709
54.8488
67.16
95.5498
54.7661
249.669
952.351
245.022
48.7816
80.3543
54.2316
266.406
361.746
72.5861
48.9721
89.4034
52.4169
70.0595
218.274
131.757
343.98
100.923
650.806
120.311
308.643
808.778
216.537
50.4725
63.0315
218.762
96.5046
52.3452
782.88
834.319
57.9018
754.95
46.5356
51.8279
877.081
71.6116
841.936
623.205
59.9569
53.7754
45.418
167.109
57.2635
67.0172
291.585
66.7535
175.51
98.1379
59.1952
51.8168
91.7214
52.8154
133.278
102.463
571.532
454.671
54.7678
64.6038
54.6243
52.6766
96.996
126.512
48.5864
162.296
49.5759
55.8621
48.6957
479.315
62.3905
307.309
53.5034
55.1147
604.932
66.2875
300.637
79.2475
56.3502
66.8945
426.851
79.5391
70.669
68.5507
885.365
690.343
341.426
469.488
488.736
91.1325
49.013
544.038
236.025
158.451
2416.98
1202.83
499.779
336.304
234.02
605.823
54.0454
80.0749
51.3478
95.8788
188.94
113.085
1447.8
1044.56
70.7869
193.029
56.493
51.8298
414.581
52.5295
1253.22
133.957
63.5994
54.5791
50.6958
224.085
1060.35
774.432
715.021
482.764
204.805
662.012
413.568
193.399
244.134
134.025
203.683
291.571
110.433
207.422
490.967
363.475
106.937
995.729
176.614
247.985
544.504
235.831
98.4379
93.5312
49.7945
47.1818
48.1802
49.2881
51.099
1317.63
126.939
97.2317
88.5863
152.401
89.9701
921.486
339.77
764.328
305.126
319.731
149.38
54.4396
67.9761
55.1922
50.3942
70.8685
82.8157
61.4482
46.8793
95.5517
60.9196
76.9952
49.2862
83.8709
65.468
1076.03
179.306
809.05
53.2056
315.332
367.538
157.073
216.708
50.5482
59.5537
52.8948
126.937
139.286
143.196
55.0555
57.7759
63.7211
67.4446
53.1191
55.7734
53.6055
48.5918
52.5977
102.113
69.0211
54.1245
347.401
160.674
621.657
55.08
110.581
241.175
93.9809
50.3019
53.5518
54.1494
52.4723
54.6636
56.218
68.0529
73.3164
61.9672
79.5656
67.6936
153.532
50.536
401.301
463.887
62.6979
126.661
463.416
71.8189
72.9498
78.5883
153.464
404.009
905.479
1173.23
376.014
952.834
1024.16
1089.31
679.19
50.278
50.2063
286.42
298.673
315.261
52.0907
49.8338
51.7027
757.686
51.658
67.9635
511.068
197.116
101.042
94.6584
75.9649
97.7839
48.3582
323.2
757.918
88.3996
56.5556
48.0276
47.5753
72.639
95.8032
57.0515
186.375
48.3977
52.3783
46.2379
93.199
53.2675
339.871
742.066
322.112
57.4444
66.0351
47.9898
88.5242
70.5056
552.207
331.037
234.118
605.846
45.8774
104.497
98.3647
95.8985
46.0125
290.541
131.128
113.529
75.0385
1020.41
719.875
1384.69
50.6605
396.198
128.746
1465.28
54.4596
157.29
645.883
802.178
185.933
416.37
76.5687
354.781
686.648
875.5
46.9709
129.09
54.2181
205.178
48.1755
62.2994
136.119
52.1267
562.336
889.519
401.071
419.402
606.607
497.826
73.8461
155.383
301.859
65.4124
319.736
320.211
383.185
1105.46
574.686
421.145
715.317
84.7799
408.748
79.935
1157.59
1040.86
1279.93
967.639
1332.18
525.998
974.662
591.207
1322.92
106.906
101.573
147.653
520.591
58.8355
58.7822
58.4149
93.5628
55.7638
177.4
289.148
128.733
62.2862
84.5316
123.59
95.8377
160.378
59.9782
64.1452
60.2059
52.1534
65.7791
98.7301
69.9081
92.6884
115.148
324.605
82.1274
404.798
59.3609
164.283
388.993
334.941
404.959
473.249
80.7361
105.105
54.8601
586.584
46.3275
258.501
247.07
73.2071
59.3984
471.176
61.218
546.458
251.48
463.04
405.74
422.22
59.9892
56.8876
500.951
483.129
128.116
299.501
73.9013
614.973
447.969
249.022
47.2583
76.6873
105.873
233.479
561.822
69.0447
64.2792
63.0083
569.941
264.271
52.5947
51.7996
79.451
53.9323
71.6478
77.8623
47.8022
63.857
65.3725
56.9132
343.443
374.716
762.356
426.081
404.922
417.444
301.623
427.908
484.386
561.105
373.47
66.7384
58.8186
101.865
74.8575
392.491
57.9114
185.01
195.353
467.271
431.5
416.648
172.373
270.546
563.65
210.977
968.037
1397.7
1275.8
903.015
1588.42
384.653
73.9262
57.325
1461.64
452.967
52.9911
69.4103
57.8789
57.0617
324.125
56.1483
73.538
50.7715
48.838
1814.9
119.842
51.7748
53.6699
232.734
70.3359
66.1977
52.9455
909.338
1514.15
319.374
254.059
937.955
270.996
68.4587
528.721
64.8882
122.196
71.42
58.1264
69.7801
49.5371
48.5571
83.3587
48.6127
49.9742
526.75
47.1587
60.6553
285.944
69.5328
72.3317
646.563
235.824
61.4425
92.0181
613.206
486.332
67.2636
141.763
52.8698
563.27
210.139
71.752
48.5156
136.303
94.4222
133.993
1095.63
490.052
269.358
216.161
87.7597
138.336
51.7227
60.8601
56.189
58.8404
70.7359
54.3788
685.636
192.639
594.305
1929.12
770.604
1326.67
857.919
584
944.66
652.979
1026.97
224.822
109.73
52.3702
262.798
73.2539
80.6951
105.175
51.4093
45.073
149.75
56.8222
96.7416
50.7242
59.1765
283.59
258.887
46.7809
540.077
47.5795
415.728
46.3348
47.8157
69.1337
111.059
72.736
58.4221
53.2444
745.173
76.578
838.818
602.15
462.942
1094.01
62.5393
130.012
1300.7
924.789
63.151
54.2017
104.956
431.994
66.1404
358.926
88.9383
83.0793
75.0444
162.512
71.2993
50.2115
87.6218
73.4205
109.695
47.1568
638.356
311.414
72.2547
1012.79
52.3815
46.8951
957.057
57.4045
401.353
1344.79
340.213
571.436
55.1591
498.685
357.541
61.3157
129.337
912.197
275.141
659.075
996.734
1039.67
740.577
501.158
1464.42
416.931
54.8583
648.251
495.318
1036.02
126.72
935.105
143.909
640.712
52.3034
53.3772
790.498
874.821
358.488
424.078
378.2
822.712
415.079
257.12
58.4699
434.663
269.002
599.833
226.067
376.841
363.133
441.688
47.8915
652.984
488.74
51.0348
56.5476
71.2311
376.185
64.7954
56.0437
132.72
71.8
53.1764
440.082
457.448
69.0699
844.378
72.6922
77.7438
120.627
97.8499
58.2763
136.058
376.448
51.1071
77.0277
47.688
56.256
48.1746
88.0879
84.2384
122.012
628.909
202.152
421.871
195.681
676.969
309.847
455.551
190.154
144.512
435.547
192.68
337.013
366.262
314.323
765.682
709.032
206.628
221.725
762.206
445.47
829.328
1170.28
78.2099
147.92
123.99
107.543
115.942
88.2035
78.92
185.449
58.7262
298.478
62.9788
257.769
348.602
53.3006
45.3917
589.973
230.588
49.0302
138.057
449.818
384.999
322.891
298.107
676.357
448.298
272.426
569.292
484.558
385.649
45.7813
48.5438
71.9398
47.3313
67.4931
309.015
1295.41
1294.68
679.474
369.714
327.233
218.689
77.1557
61.3346
72.7202
225.4
87.5494
66.282
52.951
147.813
182.681
131.717
47.629
100.862
77.1284
74.596
67.5963
82.5326
150.973
48.5762
548.574
56.1688
88.3535
130.587
348.096
634.474
143.782
108.576
80.6251
697.639
903.732
57.3936
69.7269
70.5418
596.002
661.308
105.627
179.729
113.207
49.2918
51.5545
49.6839
49.4283
50.4942
46.9827
46.1118
48.3044
49.4207
47.4808
52.9189
46.0226
46.1698
224.658
145.44
102.138
646.38
675.847
235.087
267.281
45.0968
48.7494
49.9676
58.5283
85.7886
129.238
435.658
343.606
711.785
247.897
1546.09
105.097
722.071
1029.25
334.042
1373.72
899.268
1294.35
527.549
227.346
1277.43
79.8967
739.845
121.862
1805.15
295.474
205.131
579.273
71.4335
329.049
1908.43
111.047
291.022
310.421
154.842
50.6119
505.65
113.644
670.471
762.795
762.065
87.5135
198.176
83.9816
301.799
89.094
320.613
570.528
812.329
63.8866
68.0345
309.913
368.217
2223.14
827.62
266.513
947.78
497.859
131.822
637.24
438.982
528.479
449.207
459.853
66.9297
62.3207
76.8564
644.419
65.8241
304.447
525.537
312.167
730.944
60.471
57.0898
85.1396
253.882
644.272
384.96
59.4781
755.717
92.4251
1024.46
1220.58
358.69
1224.16
1038.66
59.4563
59.4761
54.4151
224.059
1220.05
1171.67
2489.36
381.477
1032.46
53.0605
50.8081
55.5823
55.2951
52.4585
48.097
47.6746
73.1398
50.4814
79.3641
1050.65
728.198
182.924
54.4966
47.2765
58.2323
148.097
47.2126
66.1113
195.387
77.851
71.9072
69.2051
86.6605
688.496
57.502
555.035
694.385
106.048
49.8547
57.9594
164.437
49.3616
52.8122
65.9713
50.9531
77.0053
747.552
601.107
180.582
85.208
553.938
292.721
673.816
46.631
53.7803
669.632
276.187
594.411
1157.57
316.595
586.288
122.233
62.1922
602.476
315.159
185.912
126.921
106.297
558.199
118.57
149.513
103.528
957.407
827.98
60.9203
45.0849
123.493
463.4
79.5474
617.85
373.306
684.145
331.743
142.417
70.5274
69.2603
61.3571
89.1238
53.6581
79.1567
100.097
334.744
837.414
453.294
385.586
659.323
396.252
383.111
463.875
441.078
334.465
1059.43
56.8398
394.206
65.4866
60.7367
283.768
796.626
67.0529
92.4808
50.9213
117.208
64.0424
256.683
421.987
62.1053
87.2631
159.968
195.13
164.762
892.733
445.266
389.569
238.721
85.8928
47.3326
128.62
366.416
394.258
232.787
338.764
592.463
653.495
702.927
381.929
211.07
970.001
767.332
269.455
343.636
978.751
525.881
538.395
598.267
67.7415
56.5115
57.3018
65.2932
57.2901
60.0895
62.1481
167.318
81.8877
57.707
65.5757
65.7478
48.5405
449.548
444.137
414.159
428.64
95.0142
105.427
130.945
111.136
142.913
95.511
74.7976
96.2084
57.0786
56.8059
472.934
97.0367
535.831
87.2119
93.0764
64.8496
228.091
46.0648
667.449
131.878
343.006
150.642
72.4854
49.2848
1056.62
590.215
168.858
82.7711
406.405
84.5693
182.4
939.772
1438.2
408.453
988.837
1033.19
224.468
784.443
662.531
353.769
72.8626
213.572
117.969
67.3589
594.488
163.829
53.0007
1076.48
229.166
48.0582
230.176
411.084
46.5892
60.3084
50.9729
74.7216
567.764
131.745
323.659
54.993
493.018
55.998
313.015
392.848
284.877
686.19
101.704
257.769
273.77
432.12
689.385
367.766
351.165
411.009
535.807
111.976
99.8655
62.919
50.1526
62.5847
51.314
321.321
56.8617
48.1445
47.7609
48.1321
161.541
77.182
118.912
100.302
67.3722
61.2541
57.8335
53.2374
67.7648
48.7111
52.0278
47.9047
57.6001
71.5853
61.9483
79.3698
110.031
78.9871
155.114
150.814
62.4705
58.6466
65.991
578.327
51.7566
55.152
246.397
75.5293
47.8046
925.655
355.816
81.2108
46.9493
57.1183
54.3087
46.4921
140.898
754.701
76.6222
358.338
54.8302
50.0447
67.3375
757.65
1511.85
71.8214
727.327
69.0549
1791.97
934.914
67.2783
510.62
141.846
1559.1
74.5565
79.3191
78.7641
60.2531
51.5113
1776.26
1528.64
61.794
333.07
46.7375
59.9206
45.1581
50.0466
787.744
435.998
77.8216
66.6372
155.696
54.8564
72.6656
465.004
253.411
1061.69
50.8014
73.7185
489.99
83.5357
48.2531
56.41
45.55
48.9234
70.2585
71.1285
50.15
55.5836
71.6264
60.6337
110.597
61.5927
152.589
182.203
52.4904
53.535
51.8998
153.808
157.437
65.9061
471.599
976.992
206.263
672.111
46.8929
879.571
50.3476
65.9368
148.526
67.9724
395.692
52.1634
707.407
69.8399
82.4722
649.907
140.071
963.83
1762.95
2189.6
576.912
1729.84
2224.26
400.758
168.85
905.073
45.8355
68.74
1209.35
929.522
142.798
143.101
49.1128
405.809
73.0916
696.357
97.7821
88.4462
79.9023
1019.09
1101.2
534.764
1790.05
1909.27
487.243
708.029
57.7978
795.908
52.178
52.2506
48.8173
51.6567
53.157
46.9181
51.8966
52.3778
60.7191
1167.34
484.214
1040.17
62.1492
738.918
100.024
72.3596
56.8226
57.4642
271.968
80.3184
55.2481
135.035
315.52
1406.98
92.2552
238.743
1199.71
1259.66
1150.39
401.394
1084
714.136
53.6338
990.319
1424.9
80.8949
1883.29
534.097
575.409
207.6
186.166
596.063
648.827
610.824
586.433
699.522
672.937
101.822
158.203
398.18
1741.69
2239.7
388.041
53.7571
104.109
49.0648
66.4426
943.35
250.026
182.46
754.649
63.4005
48.6487
49.2553
58.8327
59.9783
136.85
47.962
224.914
112.417
69.6994
400.819
71.8683
59.334
55.2153
62.4049
57.5255
76.0648
47.9266
58.4371
56.436
55.624
48.4358
2312.79
101.97
94.6754
694.378
83.0043
382.86
110.886
275.706
770.378
278.628
342.927
172.269
83.7401
104.051
63.4815
186.944
172.641
49.2096
54.5195
68.6101
91.934
61.6443
81.2021
59.4894
63.1326
65.7103
1380.22
1316.47
1233.87
1286.54
152.912
114.399
113.091
161.224
48.807
54.9179
377.051
85.6259
100.85
57.0647
364.446
61.0066
59.6467
61.2386
69.7212
220.831
131.291
70.3717
594.641
121.225
150.093
86.1484
162.193
72.4678
58.9929
78.2245
458.928
562.692
450.378
518.744
903.044
413.902
629.428
401.24
566.4
862.573
589.502
1853.45
278.88
1025.69
905.658
398.018
142.044
110.304
193.761
48.865
2026.75
355.819
333.321
476.586
55.2014
50.4518
586.061
77.3176
60.1258
761.211
154.293
569.457
81.663
330.315
391.061
849.912
1025.84
50.0401
84.1876
50.0055
55.6539
50.3681
51.0664
135.439
1885.59
73.5709
179.326
319.917
70.1031
150.116
192.432
51.3631
131.613
430.545
412.332
677.221
249.655
587.56
48.1419
46.3059
574.464
576.603
279.848
96.5239
521.817
148.144
109.792
95.4073
105.752
74.2082
132.337
67.3444
129.071
126.326
356.395
383.593
184.1
133.547
57.7377
73.2811
169.41
606.949
837.908
156.318
139.974
626.336
160.801
85.1865
130.888
167.924
245.028
275.571
319.259
120.013
124.374
729.477
182.671
135.099
247.03
614.751
169.558
57.1634
53.2624
68.101
55.938
257.279
158.822
79.963
68.8076
158.161
51.9276
55.1551
51.2201
56.195
50.6653
58.8095
61.2134
70.9695
221.63
423.232
59.7914
183.441
96.9634
391.583
85.0683
1244.92
57.6466
321.903
313.97
1315.8
556.65
935.685
104.551
692.117
118.15
84.8779
270.47
57.6354
82.045
313.906
197.486
340.319
93.7054
187.936
79.6171
600.132
142.095
209.447
117.153
96.3734
210.212
137.131
57.9279
1023.52
771.362
49.0625
47.5705
48.0592
54.097
1235.67
1142.45
270.789
752.313
55.9846
55.4308
58.2401
459.027
472.43
664.538
445.642
58.1042
451.048
628.119
493.776
509.094
45.0272
1250.71
153.031
223.901
189.611
707.959
759.193
392.511
201.378
57.57
60.7678
389.557
57.4116
46.7971
384.187
267.647
239.469
220.606
447.539
78.794
90.4905
57.9559
711.653
57.6672
55.3302
50.7266
49.9611
47.9735
45.141
58.9402
51.2277
47.4532
64.0781
69.731
77.3547
72.8203
47.8936
51.0565
50.7963
738.65
74.1567
586.579
66.2172
229.867
170.333
65.5097
57.624
137.544
1347.56
256.835
63.8202
53.9126
68.6631
67.5292
80.943
385.975
71.3107
74.6626
297.442
93.5865
56.3416
63.1949
195.661
191.886
464.64
239.283
1127.43
421.837
630.043
81.6121
75.4599
126.571
64.8391
86.6043
64.0327
387.754
46.196
103.599
110.524
298.392
126.063
54.9642
657.163
862.919
825.077
986.659
402.309
750.466
734.113
53.8002
807.122
122.205
80.171
68.4313
64.1831
55.0107
56.0972
74.003
72.7968
50.1382
73.2337
541.862
557.404
767.196
779.65
154.546
68.4784
67.8581
83.6299
46.5685
46.4007
516.958
181.605
500.962
46.4442
515.464
44.9581
742.86
220.292
57.1732
69.7029
979.925
190.079
612.564
58.96
77.2242
924.886
58.859
61.9187
45.7559
47.2644
51.6029
79.2974
47.8584
315.202
47.3642
331.788
380.261
78.9064
55.7838
828.377
67.6652
50.3116
1325.82
134.669
53.7257
50.0724
89.3042
54.6366
268.309
455.82
252.829
278.686
1805.17
483.095
855.91
197.226
362.549
434.191
667.417
889.69
55.142
57.5967
57.4523
243.571
300.614
164.076
880.905
275.212
127.688
95.8588
73.0773
52.0381
239.383
1275.88
124.467
120.06
1776.06
247.555
309.382
771.408
55.7599
103.73
60.5883
81.9125
84.6074
350.734
263.407
265.278
446.638
266.002
94.1893
48.3465
74.7638
56.9438
50.9124
752.714
211.512
253.505
332.475
331.123
45.846
48.0535
55.2327
53.0537
55.9991
78.8435
58.2395
254.909
294.006
429.218
469.64
470.133
334.223
209.21
357.184
324.557
811.513
216.874
592.887
327.266
518.535
82.906
431.713
100.414
562.842
451.477
604.771
124.836
169.33
343.438
164.641
71.68
92.8881
171.451
773.479
72.3618
326.142
74.6365
52.5453
107.018
353.79
292.106
50.8291
259.505
61.0789
62.3346
60.5636
49.4614
57.7038
208.969
169.03
875.447
115.177
178.587
530.023
273.738
444.046
71.6651
384.926
431.981
496.389
388.764
561.913
509.783
367.296
324.927
2599.92
665.754
638.336
1078.26
662.27
67.4793
53.7824
55.2585
51.4366
69.1942
1121.03
53.6195
48.7107
60.6117
295.133
147.908
147.502
1413.04
154.816
600.563
1326.63
655.096
161.43
208.561
891.583
70.4733
68.8732
345.645
70.658
63.8109
92.9729
57.8152
177.263
54.1691
56.4641
48.2596
48.9975
77.5927
418.357
108.111
332.454
62.9135
654.584
791.559
537.971
63.1808
176.606
2051.89
80.6296
74.1022
115.362
122.778
359.286
191.447
273.94
64.7593
62.3607
71.8656
67.5747
135.21
2064.21
1011.14
102.652
48.6854
150.511
248.748
1059.87
635.922
564.287
1377.36
149.966
90.407
269.115
1390.16
456.165
49.4399
79.3864
596.253
852.404
911.967
93.8536
795.758
82.6749
608.289
186.253
46.0814
53.7078
53.5934
54.9761
51.1285
48.6138
131.862
56.2206
81.949
133.249
60.5457
53.2597
46.5108
46.5826
52.9418
58.1628
114.411
423.778
126.668
261.139
363.719
1543.92
261.831
1209.21
69.6326
82.1845
229.795
181.496
1909.97
45.8765
45.6757
54.9423
705.758
179.874
247.316
74.092
335.075
300.556
231.441
61.587
46.2671
865.651
502.416
102.125
1839.09
46.8118
124.747
56.6088
318.365
48.1814
55.8265
50.4103
63.2895
781.946
368.722
137.215
106.746
1800.19
625.542
1046.17
614.616
706.503
2796.72
199.536
48.3157
83.8309
1076.46
48.8493
296.962
202.51
118.335
581.078
403.694
260.013
65.721
49.4299
129.374
49.0632
54.1581
153.238
86.8646
97.278
52.0404
53.844
532.679
366.7
122.716
49.5696
300.191
61.5202
261.639
267.089
882.281
365.019
934.741
633.856
57.1521
72.3523
219.267
2137.27
490.734
107.642
320.139
97.8613
73.7261
84.8843
74.0166
406.918
366.273
231.796
524.275
546.104
54.9897
1236.68
303.061
405.785
474.176
198.921
294.054
54.1306
53.0062
272.307
390.991
767.194
424.622
1627.59
174.183
610.542
1038.74
625.405
983.302
536.35
653.444
161.816
334.25
823.751
55.7125
417.058
50.4485
76.0998
64.1964
718.035
1047.86
668.918
56.5593
77.3281
63.1745
564.437
1391.09
1008.49
1509.79
3237.72
1293.79
1234.41
266.64
56.485
111.107
1442.57
101.488
1044.69
93.5534
456.151
98.6892
208.771
73.1766
393.777
780.364
1241.01
1123.76
1105.83
78.6553
109.204
80.3224
100.32
130.031
53.3189
62.8132
62.272
1454.6
642.525
910.365
1247.97
221.188
115.576
206.717
52.1579
50.3361
529.898
51.3278
88.3991
137.783
50.9335
73.9827
47.7461
48.0931
71.6706
76.1774
49.7106
52.3923
279.969
1195.59
793.012
99.0213
668.025
94.4416
81.0745
82.2044
55.1955
59.8446
660.637
67.1116
46.2399
48.6881
56.7085
72.1047
71.3115
77.8945
52.1466
53.0817
57.2468
51.7587
52.2851
855.047
73.0321
59.0153
305.516
1017.16
313.713
540.059
531.728
690.474
691.136
530.327
164.449
285.118
977.612
172.175
911.394
510.486
1529.42
688.913
578.893
759.428
698.149
842.617
66.3987
159.61
393.937
582.476
45.3276
434.24
565.723
56.9764
156.73
1971.43
570.763
1079.06
118.439
767.34
168.857
318.427
114.594
47.8102
296
332.246
320.387
732.271
329.735
312.635
355.75
689.047
353.024
540.805
69.6539
680.569
755.281
429.844
962.87
806.96
1283.15
77.2675
379.336
48.4161
64.6834
69.9899
54.3944
120.73
49.9333
49.6951
64.1044
49.0985
101.223
48.4314
49.8933
96.8313
100.883
55.4257
92.6846
51.0693
65.0227
53.4131
604.125
384.726
234.81
635.614
95.9577
135.19
60.0058
380.578
523.787
328.323
391.229
80.1682
748.315
72.124
45.1773
162.634
946.887
270.184
101.092
356.409
47.3858
45.068
81.6667
58.7432
77.1405
624.783
402.504
454.948
156.105
694.597
327.899
357.785
268.568
174.487
1898.04
811.424
55.9831
50.1898
47.4032
833.104
59.2663
53.6056
51.5335
1002.94
59.7286
56.5689
46.9419
49.6477
164.471
348.277
562.547
342.128
797.779
73.7685
79.5481
71.2474
263.135
59.7792
406.437
102.417
1191.84
62.532
707.016
1312.97
420.377
558.169
517.874
473.321
675.986
618.749
463.526
710.274
304.197
67.7832
1290.69
1748.54
939.327
806.47
606.827
548.118
756.839
1104.21
319.269
1348.41
54.7508
54.465
51.5593
55.2879
219.598
52.3246
61.3092
1316.82
274.962
83.2353
690.995
126.593
65.727
90.056
253.401
83.6143
49.1715
45.2036
123.664
154.941
48.6689
445.945
104.803
814.356
1256.98
45.9017
886.164
1233.21
773.577
847.025
645.602
544.748
575.415
1012.04
157.168
850.29
74.2573
268.705
363.343
299.583
129.62
195.727
124.673
127.457
1640.7
86.2799
1563.02
1519.23
1405.68
92.4756
349.822
543.337
72.8432
124.434
73.2258
583
511.556
120.41
390.22
137.414
72.7621
101.724
91.0485
175.904
807.217
115.828
73.8475
299.32
116.131
119.138
112.844
168.382
49.7916
109.541
59.6259
45.615
49.2228
159.312
603.083
69.5015
353.081
296.97
67.0898
106.506
604.778
625.416
437.317
499.864
765.729
563.63
316.737
181.328
89.923
1518.26
1137.39
288.785
520.132
347.443
334.944
480.061
359.102
744.014
173.9
336.366
888.108
1166.66
63.4588
49.9898
237.343
64.8838
72.8658
48.8813
49.4808
55.7583
67.6912
191.829
56.912
566.254
692.267
719.498
729.771
1290.33
423.559
47.2366
604.538
717.664
136.06
67.9947
80.1904
54.8372
296.272
118.47
358.265
500.724
814.749
567.077
730.476
298.522
610.95
716.459
826.141
661.819
1901.79
1115.26
1106.02
1018.72
650.808
1395.69
277.281
408.21
1940.19
55.6359
60.2444
95.4329
58.0112
53.6501
69.7111
55.3482
196.063
49.7628
74.4777
124.219
52.8713
56.3097
50.8394
102.241
53.2805
90.8464
1349.03
925.601
223.892
69.8842
2198.52
1292.2
1169.04
1786.09
735.26
669.079
615.465
1007.01
940.717
327.357
406.011
207.226
54.9066
55.1084
48.9334
62.2911
68.2095
54.7595
71.8182
65.0751
53.8958
49.8646
66.5959
71.1376
71.0927
1844.44
107.148
1872.37
388.084
492.002
79.3056
46.9356
66.3465
134.531
73.4025
48.3136
66.5916
73.8946
65.2494
70.1801
75.8046
553.605
451.365
835.748
93.5644
197.517
1423.31
1349.05
45.7076
59.9599
112.981
309.365
1294.05
47.7854
56.2134
46.147
51.8788
90.3381
168.53
1171.31
74.6361
388.077
204.813
99.3784
97.8261
81.8982
46.6389
61.7624
47.3783
51.998
73.0255
47.0268
1215.66
243.804
771.264
434.829
247
225.289
142.635
885.454
477.555
57.1052
457.673
322.959
565.172
322.982
311.484
498.304
48.393
504.48
83.6278
70.2985
53.4786
45.8495
280.597
73.0361
74.7186
623.964
46.7507
51.9251
46.171
51.1401
47.6373
52.7802
91.4298
63.6077
49.4474
389.767
120.79
118.325
58.1517
53.7159
90.9051
89.5163
66.1737
445.353
190.89
625.809
167.132
64.3314
586.524
63.8561
372.541
100.094
57.8916
147.862
68.3288
70.473
154.663
126.497
59.68
56.7844
52.2941
68.051
67.7482
63.0027
108.565
621.841
379.899
507.331
206.624
456.904
155.718
883.961
512.782
433.914
49.1278
454.306
584.703
458.955
1405.4
538.172
1276.14
865.521
1187.87
1158.65
1279.01
661.549
574.004
75.2772
56.4389
58.1042
50.4974
720.751
49.1432
812.659
73.9995
76.9434
186.807
51.6697
52.9669
54.8966
57.5731
1987.52
553.644
940.63
159.572
57.3203
343.466
47.6736
54.8613
53.5202
640.33
76.0007
2050.77
186.653
365.153
455.115
184.175
608.571
57.3519
68.2406
591.857
356.753
338.018
913.295
1245.08
656.236
728.229
441.985
124.852
854.619
44.2
57.5375
45.5327
101.975
176.226
666.77
214.675
141.092
873.514
646.05
560.328
342.666
207.003
530.001
445.224
367.028
291.774
282.172
286.974
355.014
288.143
404.493
548.756
287.479
313.846
322.008
431.246
444.534
442.915
46.5972
71.2921
70.3387
62.5561
68.713
68.7284
65.1578
68.4261
77.7053
99.3668
92.8658
63.1761
60.8955
56.8634
67.9141
60.289
112.795
92.5723
140.209
53.5548
87.4049
76.6269
145.463
67.5062
78.7055
150.728
104.72
60.3763
67.3626
147.229
133.329
62.7141
70.045
101.472
321.399
1095.54
135.83
247.723
1439.13
1887.43
1259.71
327.225
83.6249
76.9923
648.446
143.858
398.216
1399.73
1572.95
1462.39
750.912
381.585
608.194
570.179
542.962
290.921
569.191
308.011
398.775
611.487
667.969
1158.46
293.927
944.734
144.556
508.73
565.757
307.72
1764.59
293.868
550.634
140.395
454.336
584.758
72.5597
59.6974
67.2228
482.214
59.9505
56.4964
94.2749
174.363
385.043
149.341
257.003
227.67
57.3912
93.3283
50.2187
125.686
49.4232
51.381
52.0847
49.9889
50.1931
55.6101
88.186
200.286
124.107
85.5275
537.443
153.336
87.3329
116.647
81.5516
66.9323
61.4497
98.7192
150.753
64.7386
621.556
714.085
676.763
699.733
293.748
458.739
101.003
50.0363
176.71
435.4
52.5761
55.9377
466.242
870.364
55.8778
55.5611
49.5598
84.2427
539.03
62.1463
52.4469
367.03
53.685
303.135
347.69
187.604
61.0785
78.3237
378.476
84.8008
51.3318
606.403
50.6958
59.7266
55.7896
246.24
409.713
364.18
102.213
162.032
61.4288
165.912
563
60.5785
137.077
61.9883
56.5999
60.7623
106.274
61.3685
1783.04
1829.79
82.6076
118.226
772.847
1045.9
1031.14
817.149
128.679
224.475
736.092
743.992
968.958
598.532
425.254
48.1029
84.0045
55.0671
48.3376
589.296
612.385
82.3203
1186.6
641.081
863.176
1010.32
759.144
1255.58
415.908
1995.16
193.244
441.446
336.653
52.2141
139.351
121.258
108.705
380.678
183.15
348.281
700.303
308.546
179.944
824.695
395.12
129.464
71.5896
82.8528
51.6681
48.6635
67.1596
380.7
451.407
750.038
196.835
575.788
84.9336
870.306
267.376
163.346
70.1835
354.267
57.3004
265.259
659.336
219.289
71.4179
87.6186
652.176
164.452
154.068
53.8665
81.9493
75.9834
158.042
80.995
68.5497
78.2155
79.7656
114.601
77.7512
98.4199
97.533
107.712
60.1544
110.946
131.287
506.214
333.653
194.31
1497.88
2459.09
700.372
533.64
303.745
54.3072
49.086
50.6153
46.6226
47.5592
1323.19
335.992
116.691
543.597
673.641
268.091
953.895
224.251
508.374
337.429
252.438
292.3
147.857
69.0017
56.7172
55.4417
56.629
55.9304
985.734
645.364
2323.09
51.166
70.2145
49.6701
73.0247
49.8519
176.197
97.069
64.9852
107.366
63.5775
65.7934
51.815
675.435
563.079
763.81
92.5203
197.784
79.7443
100.628
46.9893
45.6319
67.1973
52.3136
49.7225
114.797
52.911
50.4686
68.3934
74.256
127.131
354.259
223.071
171.613
117.218
303.434
114.21
591.86
75.5322
48.019
49.5253
593.361
166.059
597.785
687.539
1051.74
505.182
708.417
583.132
643.476
62.8862
55.0828
191.479
132.741
63.4364
55.1092
120.816
351.083
78.372
71.998
46.5574
55.0759
50.8276
45.8405
62.1317
63.7839
49.9499
68.4387
69.0351
66.7147
52.6793
77.4571
84.2548
72.4187
54.2275
59.3233
55.3004
49.0423
348.94
202.552
1566.98
846.142
165.777
59.3624
64.727
49.6534
492.08
56.004
49.5496
100.886
197.442
102.118
150.132
2395.35
99.7077
785.433
186.762
48.5596
57.3511
48.8469
730.528
807.771
417.435
851.653
95.0031
109.265
98.8968
73.8575
188.253
198.715
1477.25
50.2391
68.1285
92.8484
840.603
103.489
81.8833
206.871
1160.32
461.055
759.79
216.148
163.04
704.35
536.505
104.176
94.9576
74.0783
72.9713
1170.02
420.155
47.2471
51.0946
121.725
45.9024
45.1418
55.462
143.01
51.8385
47.6885
48.0447
55.7814
54.7086
73.7669
48.5078
519.858
885.828
711.177
563.671
889.802
63.5621
55.1758
88.0561
67.8125
105.183
1380.66
231.057
300.597
212.107
1331.21
65.7682
48.345
58.2736
91.7613
49.7813
55.107
66.7117
207.999
905.705
258.022
304.635
992.065
81.4618
296.598
420.11
612.184
347.59
377.071
704.912
828.123
769.78
877.758
1382.37
748.39
249.965
693.926
221.506
53.8925
953.457
52.8031
51.1718
252.365
192.21
88.3295
239.303
48.0013
136.38
206.491
454.046
340.65
267.59
114.402
614.458
433.658
340.336
65.094
75.8969
67.356
530.738
89.0554
88.3201
574.066
927.731
835.945
308.63
867.241
733.435
337.166
438.668
1061.42
1936.79
1760.42
2060.91
68.5147
66.358
73.8075
963.713
62.8782
132.194
310.911
144.531
61.1171
512.9
327.431
434.779
689.812
1541.16
54.6044
101.503
86.4153
308.196
60.2302
53.9208
1263.88
1306.28
543.634
1749.92
517.3
964.556
443.228
555.878