/*--------------------------------*- C++ -*----------------------------------*\
| =========                 |                                                 |
| \\      /  F ield         | OpenFOAM: The Open Source CFD Toolbox           |
|  \\    /   O peration     | Version:  2506                                  |
|   \\  /    A nd           | Website:  www.openfoam.com                      |
|    \\/     M anipulation  |                                                 |
\*---------------------------------------------------------------------------*/
FoamFile
{
    version     2.0;
    format      ascii;
    arch        "LSB;label=32;scalar=64";
    class       volScalarField;
    location    "0.0882685";
    object      p;
}
// * * * * * * * * * * * * * * * * * * * * * * * * * * * * * * * * * * * * * //

dimensions      [0 2 -2 0 0 0 0];

internalField   nonuniform List<scalar> 
3991
(
1.66039
-14.5274
5.68492
-52.0465
7.93539
-34.8291
-0.311741
-14.9983
-53.1799
-11.1564
6.3241
-34.8233
4.22825
-51.7907
13.9347
-45.4635
-1.62127
10.9972
-51.3702
-5.64385
40.6072
-4.08133
-52.5018
-36.7222
-20.1951
-46.4057
-20.6697
28.3394
-11.9648
-51.8794
-10.8571
-49.7879
8.61571
-1.12834
-40.5796
-49.7341
-52.1793
-50.2616
-48.0829
-51.3119
22.6519
-48.7329
9.05622
-50.1393
-13.2754
-44.3081
-45.8963
-51.1753
-32.5934
-14.7505
-1.25969
-22.1277
-3.5935
-44.6568
9.03576
-21.0571
-21.7685
-50.7492
-51.5193
-52.4581
-2.38336
15.4591
2.65371
-38.7266
0.163826
-52.021
-49.9884
41.2368
18.939
9.67934
-40.9229
-5.30834
4.37367
-24.3805
-9.82086
-48.2696
10.0496
-45.8416
-5.73551
7.59389
-19.3623
-9.83084
44.7432
1.69863
-16.4569
-51.3363
-50.3616
-9.8733
-18.0444
-14.658
31.6477
-5.43034
-49.3647
-47.3672
-48.306
9.5548
-48.4047
-44.3649
4.43533
-30.2143
-45.4553
-48.4055
-48.7065
-45.9374
-9.74652
6.65422
-20.5057
8.01216
9.60835
3.48219
5.4941
5.75907
5.69261
6.87597
8.73347
9.58233
3.24215
0.507604
1.80757
0.257154
-2.45096
13.7611
-0.135736
20.8071
-3.21338
8.54095
2.74462
-3.29814
-3.14259
-2.45238
0.638631
-0.298045
-3.20611
-53.2161
-50.0416
-30.2262
14.1543
-5.44199
-9.07348
-10.0233
-15.2371
-41.3721
-6.81341
-39.8397
-41.7789
30.03
6.70864
7.52842
-31.0695
0.750255
0.147524
-2.22811
-2.19145
-31.0138
-38.6992
-34.2139
-24.8345
-45.8544
-42.4816
-43.8939
-7.9003
-9.54165
2.17552
-46.5349
-51.4633
11.2608
-37.6187
-42.3167
-43.6925
19.4252
-10.5786
-38.6847
-35.1327
17.7257
7.66034
-14.5121
11.0056
-24.3275
7.90979
7.01879
27.9578
-23.7093
-51.1067
-2.36784
-7.0863
-4.81537
-14.3984
34.3709
-13.4877
1.15466
-11.6963
-6.99233
8.48662
-10.5952
-15.7482
-50.7961
-14.8925
-46.0896
-5.46122
-12.7974
-30.9123
37.0088
-44.908
-51.7588
-35.0292
-43.6507
-49.489
-52.5889
43.1335
1.0372
-43.496
26.8583
-43.7164
3.59467
-45.6836
15.1935
-52.7143
-49.0893
-47.3999
-49.1708
-46.9082
-46.2554
-47.3207
41.6294
-50.0289
34.1301
-15.6443
-54.1849
45.5152
-2.60935
44.512
-8.38724
-13.4947
5.76042
44.3765
52.9177
0.0385805
-44.013
43.8139
-14.3116
-30.634
-21.679
-42.0167
-10.7195
-34.5924
-47.3543
-5.52431
46.5928
2.56316
-45.6714
35.1232
41.6055
-5.72707
-16.2069
-46.6146
-45.3589
-4.33024
17.1936
19.2362
2.90945
20.2292
-3.00821
-32.8294
-28.4566
-43.9151
12.8471
-24.2799
-27.4601
-116.696
-42.2722
-47.8746
-43.328
-40.0289
-52.9126
-53.1285
-52.3271
-53.2027
-53.2081
-20.0182
-23.2789
-21.3764
-34.7375
-25.153
-24.4143
-28.7879
-29.3053
-29.0011
-18.9866
-17.1638
-13.2627
-9.38971
11.5659
-48.8513
-6.46585
-35.4885
-40.8532
-52.4103
7.80541
-53.4263
-6.87572
-37.5631
-42.0041
-5.24986
-7.21561
2.82229
-2.35903
-12.4648
-8.03043
-9.72199
-40.0464
-9.9448
-9.7086
43.192
-12.2988
12.9715
12.0798
-35.8789
-9.74948
2.23213
4.97193
-14.0323
-3.63555
3.34185
-46.431
-14.0874
-22.329
16.3127
-1.8398
-4.722
0.923061
-26.4307
-20.0882
-6.85552
-8.92271
-51.9941
-52.2278
-26.3549
-15.3528
-12.4335
-34.6895
-1.75449
2.54482
-3.19803
-4.53386
-7.74731
-10.0701
10.062
-21.1202
-15.7397
-30.5893
-40.6387
-3.44109
40.0889
0.91909
-5.43862
-46.6958
-51.1037
-30.0602
-53.2736
5.42663
1.98772
31.8704
-46.6309
-7.59077
15.8017
2.21712
-47.0304
-24.8871
-46.5011
-15.209
23.0736
-4.02948
-48.6125
55.7371
-50.9023
-7.67465
-0.34398
-29.2834
-5.26908
13.4632
-6.38997
3.46095
-43.601
-8.40602
9.99146
-4.72964
-25.5823
4.87173
3.38054
4.19871
2.02263
6.28518
4.04857
-17.6614
-50.0832
-6.51263
6.89117
-20.2111
-49.3805
-34.2909
10.782
-25.5993
43.6405
-47.5623
6.93895
-31.0971
5.13996
27.5571
-30.956
-46.7423
-10.0447
9.01742
-2.16943
-12.2973
8.47432
18.024
-21.6651
6.85446
-2.47246
-2.63766
-7.67339
-18.1565
-3.03716
-40.4887
-0.675943
28.2681
-7.33184
-5.08631
-1.9788
0.214294
-26.2921
-48.4977
-23.1633
0.443817
13.0597
1.918
-20.5262
-18.8031
29.0135
-5.15412
-8.35201
7.61564
-1.8672
29.2579
40.8529
-18.6846
-12.0713
-32.826
2.8117
28.5097
-30.2933
5.78066
-4.56703
30.905
36.6577
-18.6938
17.3781
-28.7576
45.5709
-9.874
-46.8084
4.88138
-5.41873
-37.7234
11.62
-26.93
-51.9163
8.00835
6.0849
17.3308
49.4783
4.37122
5.03423
-48.6082
10.8358
-29.6101
-15.191
20.5055
-6.33357
3.50277
-9.77489
-16.0031
7.96632
11.3172
-27.9609
11.8834
-11.2747
-8.23781
2.08288
-8.94434
-11.8997
10.855
3.82434
9.85638
12.5096
20.2252
-51.9104
-11.297
-53.512
3.88374
3.3883
-20.6304
-7.99494
31.2787
-10.6335
20.6888
-6.32537
-38.8671
-9.83772
-11.4794
-10.5154
-51.0121
-51.947
-52.6108
-18.4988
-31.1419
-13.5783
-7.23759
-31.2891
-0.586056
-21.328
-55.4948
-35.0553
-7.32112
-27.9094
-8.96745
-40.0562
3.49561
-6.92212
-7.69037
-6.3946
-25.9196
-1.15914
-69.7087
-47.5056
-9.00403
-2.89405
3.1208
-3.47962
-26.9935
-2.35082
-40.3891
-15.0082
-1.07509
-4.59422
-2.71916
-3.8707
-49.013
-46.1443
-46.4365
-49.966
-8.85742
-26.2443
-13.375
-4.6361
-23.8363
-3.90559
-7.37908
29.5002
37.8376
31.615
-41.5721
-53.1324
7.51522
-65.73
-8.56417
33.3069
-50.2113
-30.0097
5.94713
3.87387
1.57966
-1.37388
-3.12157
1.88488
0.298239
44.4077
15.6993
9.65768
13.6887
25.5975
16.3127
-32.0305
-49.8606
-46.7056
-47.4647
-51.0821
-2.11138
-0.892797
6.72222
-10.1215
23.5187
8.55806
-7.43842
-4.38908
1.02167
-3.31895
1.21256
12.5606
-7.54218
12.6563
13.667
-52.4918
43.6366
-44.7376
14.2761
-32.1364
-41.8212
38.0412
-28.238
-8.8884
28.4785
24.5466
39.6909
47.3337
39.6622
4.72483
4.79599
0.893385
2.99125
2.59644
-2.02837
9.63011
13.4167
12.9435
27.7015
16.4423
18.4417
30.0512
-10.2691
-47.3411
-1.74451
29.0162
50.0402
43.2396
2.99506
-2.72149
-1.34531
2.2553
-1.7314
-3.00568
-13.0198
-17.1734
9.86785
-20.998
-13.3698
47.7419
8.02837
-47.3899
-49.9684
-9.94231
-21.9925
-34.8747
-7.31403
-9.36528
-6.26241
-1.05895
-49.3385
11.6328
16.9128
9.02469
14.1923
-6.59636
-44.5504
-49.6848
20.1646
12.3329
-29.0894
-47.2717
-53.6539
3.0392
2.9421
0.126885
-51.4462
1.16224
4.98533
-52.5683
30.4006
-3.44589
-7.00205
-5.57694
9.63773
18.8926
-23.6365
-37.157
-1.92263
-4.8078
21.9543
12.1485
14.2833
7.24384
-0.028669
4.76715
11.9918
-3.82311
13.6571
31.2939
-2.40877
-52.7757
-28.947
-53.3565
10.6242
16.3151
8.30251
10.0435
-0.315285
-51.6628
-9.44812
21.1976
-36.313
0.675123
-17.3781
-3.26313
-14.0494
-2.68089
-33.8814
-7.99717
-24.6248
30.6302
-61.9086
-49.5498
-34.595
15.1899
-54.0177
-4.0686
36.1897
-2.56827
-22.8988
-50.9514
-30.441
-20.7403
-37.9414
0.31475
-20.13
-46.638
-50.7224
14.7247
-7.50214
1.09893
-0.379262
8.67975
-2.44099
-3.40517
5.15999
-43.9586
-52.1326
-52.2293
-52.2949
-51.6431
-51.1785
-15.0563
-17.1629
-17.3668
-10.2264
-24.8038
-53.3121
-53.4811
-35.9098
-47.6673
-48.586
-49.9751
-16.5951
-48.4743
-3.1409
-36.1284
-51.445
-42.4169
-17.2673
-52.972
-17.4939
-44.8233
-8.31309
-51.4101
19.7261
-9.69056
-1.27633
-44.0223
-10.2561
-8.25307
-13.0369
4.96027
-10.954
-20.2135
-24.8132
-19.6614
-13.0674
-19.4343
-21.3944
-16.9928
-21.0109
-4.43248
-9.95818
-4.62817
-5.96526
13.8484
10.0013
31.7862
-17.0203
9.99172
-52.6665
-6.49351
-52.7087
-1.63521
-5.41555
-54.9372
-52.3498
-42.7147
-45.8306
21.9021
-17.2141
-2.19198
27.9568
18.3637
11.0856
36.6683
-12.7808
11.1288
-37.9389
-7.00691
-52.0955
-23.852
-40.8674
-26.5363
-40.1038
-0.615759
-7.7398
-18.0948
-33.7262
-20.6114
-53.5689
-6.35335
-39.1716
-38.8884
14.5891
-6.27046
-6.56698
18.2142
-5.34429
-35.2154
-14.4982
-9.57171
-10.9087
-44.6761
-26.0666
-4.22629
-4.65582
-1.92629
-1.78617
-4.42213
-6.35117
16.5911
0.595128
-2.35522
-1.43517
-51.5158
-50.2513
-50.3448
-50.8167
-51.6371
-50.9207
-52.6498
-50.8888
-51.3576
-51.2397
-52.2036
-14.0926
-11.3465
-19.2228
-18.5284
-38.8379
10.5106
-23.1927
-19.1174
-49.5488
-39.6486
-44.5406
-28.6595
-37.0254
-40.664
34.1353
-37.245
23.1688
-45.4174
-33.0622
-55.8515
-53.1958
6.77603
6.64673
-41.5198
-30.5199
6.44265
0.896576
21.9694
11.8605
-50.9981
13.5972
33.903
18.9119
10.3079
-47.1197
2.4426
-2.71605
-4.6732
1.0096
21.1074
-12.8819
-3.43269
-47.6304
-43.1926
-19.3224
-23.7868
-50.3606
-32.8996
-13.2388
-47.8808
-2.27701
-7.92762
-4.06215
-8.60465
2.36239
9.31893
-4.92844
-11.6891
8.09842
7.39002
-34.7796
12.5166
25.037
-32.0106
-10.0151
-9.53312
-34.1118
-23.2087
-10.2474
15.0488
-47.1572
-31.9276
0.663626
-16.1601
-4.46632
-33.4583
-11.4245
-1.66546
9.16238
-11.5236
12.9048
19.8175
9.17396
-47.1232
-28.5459
-18.9981
-1.74138
-14.8551
-0.892083
3.34951
9.73055
2.57277
-13.5628
-9.00718
-40.0078
-23.4887
-42.3527
-46.2993
-52.1351
25.94
-41.0733
-52.2354
-51.0996
-51.4181
-48.9322
-18.0541
12.8096
6.28394
-31.9981
-5.91657
-0.51859
8.4308
-7.39517
0.801386
-15.8418
-11.6899
16.5668
5.42963
-6.62916
-52.2954
-9.58604
6.09221
-47.1806
8.64609
0.88515
9.54514
13.8489
-1.72292
37.9378
-0.0964188
-7.48734
-5.28942
-41.7455
-16.4388
-23.6385
-45.2639
-27.7223
-49.6478
11.8188
-14.0216
-46.2969
-49.2412
2.03099
2.07387
7.04288
-48.5942
7.72629
-10.7797
-12.815
-14.6239
-13.866
-27.2523
-11.6872
-4.82067
-15.7576
-10.9965
8.60298
6.27162
-48.0856
-12.1908
21.7338
-19.8625
-2.25013
7.37544
-50.2507
16.8557
-53.1786
-50.2083
24.6553
10.8653
-7.36939
46.2508
-17.8296
8.36419
27.332
-43.7906
9.82196
-26.0835
-41.3952
-39.0616
-48.7022
-51.1531
-48.1541
-53.0342
10.5425
-32.4436
51.6533
-49.5837
-17.8537
-50.5602
23.6091
-50.2182
20.8283
6.77059
-45.4354
-47.3896
-50.0442
-50.6118
-48.9964
-47.9566
-52.3155
-34.7939
8.12899
-52.7657
-27.4677
-52.0683
-29.576
-42.0177
-36.2806
-46.2514
-2.30773
-51.3994
-52.4683
-9.22067
5.99169
14.9424
-51.7504
2.97649
-3.8758
-12.8845
-15.0994
2.54389
-52.202
-50.12
9.24042
-53.7548
-7.31973
1.49135
-7.47774
-4.76707
3.16562
-24.9142
-46.6603
2.01207
6.25309
18.0087
-4.02121
6.41834
13.41
-9.40972
-4.13366
-52.3629
-29.8626
-52.4183
-14.053
-49.6094
-49.3669
-45.5218
48.781
47.314
-52.1861
-24.6528
-53.3372
-53.3383
-41.6579
-46.108
-45.2154
-2.69735
50.6841
-32.3557
-48.1662
29.6158
-34.0667
-16.4538
-17.715
-19.8278
-1.96683
-18.3956
-7.6057
-11.223
-4.56248
-9.51497
-52.2016
-3.94207
-29.1357
-34.4967
-1.92538
0.0162398
-36.3653
-24.4011
-4.15199
-25.8678
-49.1274
-50.2181
-27.443
-54.0785
-51.9274
-31.045
-23.1071
-36.9075
-51.7881
-31.2436
7.89941
9.20035
-8.42638
10.0481
-6.37624
-47.0407
-60.7201
-50.3893
-35.2574
-23.3661
-53.7217
49.8099
-0.554706
1.72598
-11.214
47.6392
-13.773
0.0949154
1.44152
47.8893
49.1221
46.4553
-6.90382
35.6264
31.4728
-3.10691
0.738743
-1.2698
-1.33246
1.90018
-37.2247
8.9358
-17.5551
39.349
51.5416
-51.5948
38.8875
36.8129
34.1932
-51.0385
-51.9085
21.3009
26.7274
27.9179
-51.5287
-51.8727
-9.47384
-2.36091
-0.911201
1.2722
0.644283
0.530698
0.598621
-0.406631
4.67258
6.20743
2.21512
2.77244
3.92638
6.50807
1.43374
13.0733
-8.00571
-4.51749
-0.750103
-46.4217
-44.807
1.09262
-5.41151
0.944994
0.469053
2.41135
-0.104
-7.63236
-22.586
-53.0302
-53.5633
-46.9234
-26.0976
-94.0131
22.6579
-43.0125
23.5769
-34.7525
-43.4281
-50.04
-49.3114
-52.3117
33.7596
-7.54556
20.4839
-146.531
-1.71831
-109.419
32.4294
-38.732
-52.8183
-9.75156
9.86248
-43.5758
26.2648
43.5179
-39.8697
46.2645
17.4888
-45.3984
7.46443
-21.1695
-48.2559
-41.8271
-5.26258
46.7341
35.5426
23.6773
39.2174
-53.7538
-50.4758
-50.2785
19.1226
1.86906
-10.6338
-50.3029
-44.4388
6.6479
-16.3265
-39.3862
-32.8082
-14.204
-32.2268
-50.183
-48.2891
-47.9936
-49.8159
4.2129
3.51687
4.00675
-49.7746
2.73947
-53.7917
-50.6694
-39.8968
-44.0021
2.72016
7.83946
-17.128
-21.7946
-41.8135
-52.4422
-7.156
-51.5963
4.9024
-50.5888
-51.9296
-52.7838
-53.1416
-51.2334
-6.51503
-4.74365
2.77775
-12.6286
-11.363
-32.962
-72.9729
-13.6306
-23.9982
3.79685
-1.18924
2.01822
4.50566
4.5348
3.81752
4.8267
-15.0213
2.22049
-14.8
-32.6269
-46.5904
-17.9056
1.10616
14.8227
13.9143
-7.26489
15.4713
-1.85089
-2.57053
-7.64665
-2.22159
-4.0926
-7.91524
41.9735
6.49207
-42.5118
-51.8829
-5.3492
-6.03041
-3.21019
-11.6804
-1.84323
-0.847004
-10.4282
17.9202
-16.8089
41.4688
-29.5376
-3.26953
-3.59497
-43.8861
-27.6839
-43.5203
-8.1707
4.20296
-49.2668
-21.7781
-47.3719
-48.7924
-28.955
-45.149
-19.1504
-10.389
-30.9998
-53.1822
-18.2714
43.1685
16.464
49.6792
39.4063
50.0198
1.92023
-43.8458
-41.1033
12.4178
3.53049
37.3625
-32.3402
-9.86658
-43.0434
-61.2976
-47.9567
-51.7989
0.259371
9.05765
-4.64092
-0.243158
-15.6794
-9.09717
-13.4253
-10.6751
-53.5184
41.1441
-51.2574
-50.4533
-53.6949
-52.522
-49.8163
-52.6819
-51.6749
-53.4571
-48.4258
-8.48952
-50.7701
-7.21211
-10.7055
-2.60913
-33.3331
-12.4553
-18.6856
-5.86047
-5.81901
-4.07115
45.6881
43.6921
3.80954
3.99731
12.8806
14.4315
10.9104
-41.3043
-26.1419
-28.9118
-23.5472
-4.04173
1.10964
-18.3245
-51.2584
-51.925
-27.0117
-25.2772
-40.7063
-50.4009
-49.9949
-49.4027
-29.4703
-49.9713
-40.0704
-23.9397
-34.0703
-37.9763
-36.8156
-42.2208
-45.4785
-12.9508
-2.5434
-1.20447
-4.00703
-2.46092
-3.39777
-6.09161
16.2661
28.2944
5.88372
6.29732
7.1799
10.535
-51.5418
-51.0104
-49.8319
-46.0738
6.42853
5.00472
5.45594
6.56726
0.804187
1.02874
3.2688
2.11059
5.42845
8.70983
-53.0831
-16.6836
-50.232
9.17161
1.99431
-12.377
-34.4337
12.8976
56.1296
-10.2882
-42.3893
0.220882
0.828974
22.3774
-34.197
-39.4339
45.3506
1.20893
-51.5855
3.28314
5.28524
-36.2965
-40.6996
-52.3987
-46.7269
-47.7878
-29.7912
-53.3877
-42.783
-23.5472
-7.66811
-15.8114
-6.78816
-13.4039
-44.6293
-15.592
-8.56631
-46.5761
24.2519
13.9807
-21.3229
-35.7917
16.1257
-11.5445
-9.52577
-15.9429
-47.6531
-20.3741
-53.7185
-9.5122
-27.7987
17.2736
-30.9639
-34.8971
-33.9064
-44.8178
18.1335
53.6437
-21.5207
-48.9279
-47.8706
-51.2107
-43.1412
-33.791
-39.0999
-10.172
-10.1177
17.5967
7.24926
-3.28514
8.70066
-24.2781
9.08154
8.90416
9.58806
10.4779
-20.7702
32.2787
30.3964
-14.9
-15.2212
16.5478
-7.96023
30.4838
5.78757
1.14615
-2.64436
4.03648
1.24681
-0.220967
5.27267
21.8452
-1.85892
5.10769
-14.4527
-1.47035
7.86331
-1.73965
3.53736
-36.5635
-4.80125
-6.88951
-23.3967
-15.4009
-0.235379
-36.4832
-29.025
-6.99229
0.518103
-12.9485
-11.2953
-5.65801
1.54751
-45.9156
3.28427
-50.9113
5.93444
-0.918427
2.36455
-50.3957
-44.7765
-14.641
-39.5815
-2.3436
25.9109
-35.8998
12.4022
-30.9189
-14.7484
-54.5351
-15.2931
-13.3116
2.58915
13.5401
-8.09797
-43.5164
-52.0658
13.5705
15.4537
13.1221
-12.1184
6.24341
14.1871
-36.49
-28.5785
4.40154
-4.47247
-19.2802
-9.46267
-14.0705
-31.7612
-18.3773
-45.4084
-1.32107
-5.16814
-46.0346
-17.3254
-6.91259
7.73627
3.87463
-2.98741
15.5442
-5.86953
-1.26937
12.0065
-14.1099
0.815019
-9.10472
-11.2412
1.79928
0.000597844
-1.66892
1.15355
1.92988
-11.9922
2.81251
-0.774106
-47.941
-35.2226
-21.1013
-47.175
11.7874
-51.2037
-6.5169
22.3769
8.78415
5.32237
-53.6242
-1.49924
-37.3322
-6.28859
-12.2495
-49.7694
32.129
-51.8395
-101.173
-63.7549
-49.408
-83.389
-80.0536
-52.5088
-20.8099
-52.4205
11.4986
-2.15462
-35.9407
-50.5957
6.77549
-13.6935
-2.19153
-27.0171
-15.2443
-47.2302
-6.10024
-1.51837
3.34247
-51.5992
-48.3488
-51.6663
-47.5714
-69.4019
-50.3038
-34.7529
9.21472
5.08439
-1.46169
-0.332496
-6.88765
-0.604628
-1.03564
2.67193
-6.0125
3.97878
1.74941
-50.1891
-30.4414
-35.4698
-9.80734
-31.8926
-8.37945
-4.5582
7.26362
10.7721
-5.84089
35.8338
7.09119
-19.7288
-12.7185
-4.67771
6.49493
35.172
-40.1709
-44.882
-48.0144
-51.1528
-38.9045
-43.4131
22.7331
-47.222
-45.629
9.96684
-46.1162
-51.3687
-51.99
-22.5417
-26.7996
-40.1508
-46.4417
-36.2433
-31.6593
-45.1869
-47.5783
-8.0929
-19.3178
44.2612
-94.3377
-57.2774
-45.0134
16.0883
25.4672
14.1759
9.6485
-71.2403
0.541738
-11.2701
-98.9554
18.9397
4.23046
12.6236
4.32693
9.98242
-4.67934
5.40155
-31.7455
7.65755
-10.5385
-44.1239
-3.07315
-1.68906
-6.59217
20.3118
-7.7681
-12.1043
1.16846
19.4571
-2.41543
25.2381
-3.33431
-56.0045
22.8477
37.529
-30.6307
26.129
-25.3884
-2.08425
-3.80596
-33.4818
6.24055
-12.2784
21.2194
23.3176
18.304
-11.2703
-24.4972
-26.0794
-10.335
-0.425959
-16.8402
-18.5154
-13.3415
-15.7033
-12.3803
2.80066
-14.5668
-40.6142
-46.7267
-40.3775
-46.9863
-19.4312
-0.493767
-1.40682
-2.0044
14.1164
-5.26325
-52.8942
-3.43856
-8.86908
-11.0848
-5.40708
-9.62839
-12.0167
-7.49544
-14.7011
-30.6489
-21.6611
-3.48043
-40.85
-15.7565
-13.1095
-12.1983
-19.1812
-11.6605
19.2433
-2.75014
-52.4269
-51.1486
-49.8881
-55.0439
-47.0111
-47.0269
-51.0134
-47.8644
-51.2928
-50.8295
-50.847
-66.8123
-26.8607
-51.0914
-28.3547
-52.3797
17.6606
-12.3667
7.92621
11.1567
-54.0757
-33.0672
-53.9889
-51.4409
-11.8272
-9.03489
-32.2788
-6.90234
-9.62984
-44.0329
-20.5251
-47.8473
-14.8851
-51.8696
-30.1033
-44.0343
-42.7383
0.905254
-12.9
-3.55123
-8.43358
2.26189
-1.6444
-12.9804
-57.8983
-15.694
29.493
-48.5043
-6.47873
-23.7487
-25.7401
-7.44014
-13.1585
-34.8834
-48.8369
-49.3969
-21.9251
-51.6327
-7.87931
-7.12685
-30.4454
-33.8781
31.5488
7.05722
-45.1059
26.5812
3.05378
-1.61043
-4.13119
-0.983425
-2.92914
-0.0124391
-2.75533
0.159977
-4.94902
10.1152
-3.74863
2.03167
-7.76828
-2.7392
39.025
39.2729
22.9019
32.3372
8.12789
-14.3879
9.56793
18.1338
15.4059
-0.134234
-1.04268
-5.27008
-12.1277
-1.11763
-3.43837
-16.826
-7.43917
-8.20787
-1.68618
-36.2981
6.10933
9.02556
6.39813
5.30506
6.10355
41.2908
46.0864
-7.84418
8.5833
15.5265
12.2264
15.4382
13.9994
21.6011
23.2036
25.8439
23.3356
28.7111
52.9916
49.283
-6.90974
-0.0091996
-0.610814
50.7805
-12.5117
-55.4412
1.75869
-47.855
-49.4058
46.0071
-51.1941
-51.8913
24.4389
-41.5088
25.0847
20.5113
17.604
30.5378
27.9033
-51.3851
14.6789
-36.3632
23.5942
36.6537
28.4598
-19.9904
-11.7293
-5.67852
-2.42797
-0.920423
-16.1564
-6.11852
-3.0111
-21.8147
-11.6607
5.87487
8.39548
6.89493
3.39814
-51.439
-31.371
-2.84717
-44.7092
-2.46256
15.5594
18.2878
-43.1693
-50.9259
-49.3713
-47.5028
17.7576
-50.8987
-51.121
-49.194
-42.5436
7.20812
-10.2466
18.7293
14.3038
20.5331
31.807
23.5159
35.7653
4.85479
-2.6237
-1.08645
30.9957
11.2364
12.3028
-25.3868
-23.0497
-18.6253
-20.3046
29.8079
7.60469
2.93278
1.90573
23.7349
4.46949
1.07634
0.0517388
0.00791431
7.77677
5.12046
-6.7586
5.65306
0.423087
-9.59907
-9.35549
-9.39704
-8.59638
-6.07699
-7.30599
-6.52536
-47.0457
2.2557
-39.8902
8.1962
-23.1535
-21.4947
1.41563
-4.48123
-21.5788
-43.4028
-31.6575
-8.89556
-8.29968
2.292
6.24683
-8.10123
-44.7367
-2.2868
1.26058
-9.98841
-0.116409
12.259
9.13306
-4.81265
-2.79426
55.6501
48.6343
29.2021
22.6838
57.2515
-16.3888
-14.4714
-19.9942
-10.6166
-16.2187
-10.1128
53.3863
-1.78582
35.4087
-16.7416
-25.7744
-17.9121
-7.37365
-48.4007
-46.1815
-47.9822
-52.4745
-51.0678
-47.5783
-42.3557
1.06881
-51.3098
-15.4047
-1.85407
-4.94392
-4.00415
-7.98754
-0.43056
-4.98711
-4.96399
-4.4945
-6.54779
-38.591
-39.714
-47.6617
-47.6508
-21.545
-15.6392
-12.5208
-11.9767
-3.68451
-2.44939
-31.7752
-20.2984
-0.937873
-3.95942
-30.3405
1.25164
-133.404
-27.3509
-7.13141
-11.99
-49.9016
15.7588
-28.4949
14.9154
-3.32716
-44.0328
-9.06159
-11.4889
14.7613
15.9853
-3.79328
2.73255
9.41986
-52.3666
9.98279
-46.0873
-41.7203
4.93541
3.6831
23.503
28.0356
26.0808
26.7373
-1.34833
26.2599
11.7829
-17.9019
0.649857
-20.4045
44.8036
31.8647
33.1177
23.6035
-50.2048
35.2343
53.0403
-52.5277
-47.4591
-30.3599
-47.5332
-5.83771
-7.77163
-8.39937
-17.2763
-18.0431
-4.11597
-36.6388
-23.6255
-6.50216
-14.2837
-16.0757
-4.79611
-18.1921
-48.4187
-3.32768
4.74838
40.6258
-3.84644
9.92796
-46.0174
10.2303
18.0341
14.5687
0.640048
-4.83319
-34.8455
-27.2449
-24.6948
-42.7293
-7.56806
9.5463
12.5762
32.4102
29.9647
27.8452
41.9322
47.8196
22.5716
-51.6967
-53.0333
17.0256
20.5825
22.5895
18.2249
2.5302
-3.81291
2.29243
-28.6068
-48.3539
-44.634
-96.4064
-71.1181
-38.098
-14.8101
-34.8452
-50.9601
-48.9213
-24.1481
-49.8768
-52.168
-40.1906
2.85728
-40.6845
24.7589
20.3004
-52.2174
-51.1997
-22.6595
48.2641
-53.0585
-17.5807
-8.53681
-13.9047
-27.9324
-44.6958
-8.09091
-30.9759
-7.14138
-10.0389
-18.0436
-50.7382
-52.9872
-7.26162
-22.0485
-10.277
-7.10213
-10.8782
-9.84419
-5.94902
-13.9233
-12.01
53.541
1.67576
-26.5571
-42.1813
-30.7541
-26.9841
-13.2355
-50.3
-49.7827
-47.3727
-50.4571
-49.1105
-50.1531
-45.4998
-45.971
-51.569
-48.5687
-53.3086
-45.7897
-40.5201
-2.40368
3.65009
0.986283
10.1076
20.0224
-57.58
1.39746
-0.0634897
1.99628
-8.6425
1.93254
-2.06709
-43.3935
13.9347
-51.711
-47.6915
-47.4616
-31.6475
-22.6169
-49.6239
-9.36868
-8.29668
18.566
-13.4294
-4.4618
-21.9591
-7.15387
-27.7122
-9.12596
-10.7724
1.82959
-1.0921
-15.289
-27.8761
-14.7153
-25.262
-7.73572
-38.2685
-46.0126
-47.1436
-13.2658
-8.54037
-39.0961
-10.8802
-10.1965
10.6443
0.948149
-4.59751
5.56686
7.3834
10.0274
9.21727
-13.1057
-10.3873
-18.4712
-46.5398
-35.3446
1.12063
13.4144
25.92
38.5529
32.4224
-105.258
-30.084
-34.0375
-6.87562
-18.7674
-37.547
-62.3522
-52.8135
-2.35252
-15.9738
-47.313
-48.6213
-47.5555
-18.527
-51.8058
-15.645
-26.2307
-14.0241
9.1227
-1.81597
0.217259
-7.04622
-6.94481
-6.02188
-5.10041
-1.21367
4.03974
-17.0441
-5.56491
-8.26537
14.738
20.1325
-1.64057
11.3543
28.8923
-29.3977
-3.39915
-22.1522
-35.0696
-59.9743
-21.2895
-45.1491
-9.71026
-1.07914
-6.89876
17.8105
-45.1697
-6.67269
-5.34764
0.160733
-28.8694
33.0934
-17.3922
-0.234162
-20.7706
9.27097
26.9282
19.5894
-3.56398
-29.2088
-27.2875
-6.32338
-51.3854
-1.13902
-10.8019
26.1436
42.4462
21.3602
16.2415
19.0011
23.1075
-89.0209
-22.0823
-20.828
1.02438
-52.8575
-51.852
-51.3459
-37.2013
-46.5663
-52.5534
43.1879
13.0559
25.8742
19.7487
7.93389
11.3452
29.9046
47.4952
21.8131
54.9423
-5.49932
12.3238
4.30882
2.3113
15.7114
13.8121
-20.2515
-10.4553
-18.7216
-4.86368
3.50334
-17.8338
46.614
32.3484
17.2699
-29.6432
11.8967
31.8796
-16.0092
-50.2516
45.7876
37.3302
-19.3714
-6.35304
5.63838
11.4586
-45.1684
41.036
-16.5115
-53.2753
-17.8613
4.75617
-17.4448
6.05846
46.1366
-19.7628
-25.6455
-6.22039
-47.1665
-9.13268
-4.60505
21.8466
-47.1267
-41.6774
34.2902
57.0547
-9.29062
-8.10858
-29.2357
-48.1791
-40.9502
-50.6867
-91.0547
51.6867
35.9057
-42.5001
-49.2577
-47.4489
-32.0903
-39.7885
-21.5643
-19.4868
-37.7492
-9.94816
-26.2734
0.383754
-12.7049
-5.6398
-38.4717
-45.6042
-34.2273
-8.07757
-7.28342
-9.50786
-36.5941
-45.6572
-51.7596
-48.0404
-53.774
-48.2085
-44.292
43.4728
-6.15312
26.7816
20.3084
-18.4426
-42.9961
-17.8172
-31.6042
-9.63547
-22.2317
-3.78956
-51.0693
-115.427
-49.0494
-50.141
-48.0725
-5.62778
-21.1029
-17.3441
-20.1582
-22.4512
-3.41286
2.08664
-1.08421
-46.9728
-17.8074
-51.8025
-36.9525
-24.9021
5.53232
-17.5534
1.42155
-9.06074
-39.6847
4.17276
-2.58987
-3.94208
9.73527
-11.9758
-0.286417
3.69128
-9.64543
-13.3577
-2.17134
5.8608
-29.8637
-39.955
-31.0883
0.56057
-27.4112
-2.53904
-9.71774
0.0606655
15.559
14.1324
-54.8796
5.4935
-1.31838
18.2672
23.623
-1.21702
-0.982578
-2.23178
11.8289
12.5646
10.4027
12.6904
13.6493
-51.0798
-3.7808
-4.83483
-46.4434
-45.9868
-49.4597
-42.9921
-46.5161
-47.6368
-45.4802
-44.4897
8.78284
-16.005
23.6444
40.885
-51.707
51.2314
-51.7486
-43.5911
-40.9237
-15.0917
50.5762
49.7357
27.8078
43.2135
-48.5419
-50.665
21.5827
-51.0223
-34.1008
-4.75218
-13.6007
-44.4289
-41.905
-44.8756
-19.7194
-22.2579
41.7146
34.1925
-16.3408
10.5757
-53.2073
-51.6735
-52.7419
-51.9102
-52.0213
-53.1957
-31.8092
-41.4294
57.4754
54.0396
-2.02596
-48.7156
-50.3687
-42.0669
-49.5999
-31.5146
-40.5967
1.98816
-24.4354
0.0356492
0.29016
4.8345
14.0409
-6.61563
-2.60626
3.18133
6.03913
13.8329
-7.95092
13.8157
-3.92266
4.49872
5.15618
-2.79178
-18.1735
-2.9971
-7.34573
-7.70013
-46.9567
-52.0252
-27.8424
-38.7678
3.19601
6.61901
5.34054
-52.0769
-52.9392
-53.5239
-52.9011
5.1791
-42.7781
-3.7124
6.90829
30.9386
-42.8265
-24.2959
0.343883
14.1531
2.86401
8.5307
2.19206
13.6797
-8.78377
-51.8176
-44.2657
-43.8129
-22.8298
-47.1089
-52.9891
28.9561
-5.87031
41.0706
-71.9129
-26.1566
14.1615
3.98363
18.5462
-47.1558
19.8397
0.96213
16.8847
-29.0499
27.728
-6.5252
6.70762
-7.47109
-5.50949
-27.5975
-48.1004
-36.7507
-50.199
-10.777
-2.38775
-14.2097
-24.9768
-7.83797
-53.076
8.3143
-41.6626
-14.0034
-36.3664
-67.4515
-51.2951
-50.8585
-52.0288
-35.228
-45.6972
-32.1874
-37.3755
-40.8567
-26.9602
-13.8414
-49.5323
-42.9926
-33.2208
-46.1627
-40.7662
-49.533
-48.3385
-45.1265
-12.8484
-42.484
-3.79353
-5.66871
-4.72748
-8.3918
-15.956
-5.71816
-5.81475
37.1586
45.3026
-7.37216
26.9957
-5.2384
19.9997
-4.72282
13.4157
15.963
6.96359
15.1928
9.13739
-18.8796
-8.24112
-26.0823
-5.99624
-32.5765
-38.8017
-1.2559
-38.1466
-44.0623
-49.4481
-47.9684
-54.0936
-38.1969
-48.2526
-47.5179
-22.6822
-47.7284
-12.5909
-22.5506
-24.9096
-25.8251
-12.4622
-17.3754
-12.2316
-15.3175
-42.9641
3.1159
-46.4675
-46.216
-47.7002
-14.4257
-50.7473
-48.8719
-14.2601
-16.8571
-16.0069
-44.9392
-44.6987
-19.8224
-49.9311
-10.7361
-19.9707
-13.326
-19.4887
-4.16131
-42.436
11.4996
17.8939
15.1854
8.58721
3.72685
5.74883
-18.5848
17.71
32.2811
-5.08711
4.9551
1.51816
-18.4627
-43.4092
10.9468
-35.1269
-27.9562
-0.929504
-1.01828
-16.912
50.851
-52.3989
53.5975
45.7979
38.8154
-53.3625
-22.4465
-19.0892
-46.9602
-31.4428
-52.7851
-35.7097
-53.002
-52.2934
-46.4372
-50.83
-52.1174
-14.0932
-34.9276
-46.862
-63.4336
19.7603
-0.425019
0.109691
20.6694
33.4632
11.6797
12.7775
-4.10598
-13.3875
-25.8164
-6.3254
-45.2943
-47.028
-47.9033
-49.6634
-44.1361
-31.9966
-3.03436
-35.9487
-46.1783
-3.10258
-6.73004
-14.3713
-11.0851
-32.7861
18.9047
5.91057
-44.7046
-50.3955
-37.9195
-3.03538
-49.4729
-43.3397
-50.3816
-58.8212
-28.2613
-42.8537
-45.4521
-45.9763
-35.6048
-47.1098
-46.1883
-22.8388
-24.98
-44.3952
-6.53342
-7.28094
-13.6643
-7.75495
-7.70886
-11.931
-9.40266
-1.41124
5.29644
21.561
-8.86545
1.03161
4.56565
10.984
13.6414
0.694035
24.1343
-29.8571
-35.5342
-17.3082
-2.6302
-44.3591
-52.9245
28.5479
-37.3634
-30.8526
-37.9795
-46.1042
-45.8005
-44.6338
-51.9612
-53.5039
-23.1422
17.3519
6.8862
5.13389
-3.57837
16.1168
-3.23587
-3.76779
-2.61422
0.734596
-3.8373
0.402534
-10.715
2.40594
-44.5047
2.11925
-61.519
-19.774
-25.4611
7.06322
15.5714
-1.25886
47.4072
8.79791
5.80388
1.40932
-15.055
3.32567
-10.745
-5.46739
-38.1979
-30.8347
-38.6813
13.9084
31.6435
-55.1927
-21.3751
16.6081
11.8547
19.6881
-53.6189
-69.6879
23.1001
-2.99626
6.56971
10.1682
10.3742
7.67131
-48.0018
13.5546
-28.8181
-13.196
-2.02922
26.9375
17.4562
14.4158
9.88913
9.61606
7.63139
28.6714
21.7754
-50.6006
21.1428
33.5912
55.5539
39.3969
32.4344
28.7818
-50.8265
-51.2396
3.03307
-52.3317
-53.3758
-49.7043
-50.9601
-49.4899
-50.9643
-5.09764
-53.3282
-16.2859
-15.8097
-10.4026
-2.56621
-25.8885
-15.4297
-2.99942
-38.7012
14.5774
13.1052
23.593
15.3003
16.3782
-4.91895
0.234169
0.598599
-3.21378
-55.9755
-21.5331
-5.8651
8.10047
2.55105
-10.6058
8.76128
5.92234
-51.9889
-21.7188
-43.8243
12.3998
-8.50599
-49.8426
10.2966
27.4334
5.67409
15.6554
33.0822
-1.96589
3.72311
-1.55107
-23.323
15.3495
30.5787
25.387
31.3228
24.7801
31.5752
31.275
-35.3493
-52.8362
-51.9237
-19.6367
-25.809
49.0548
52.94
41.2873
-33.3682
-5.58305
-49.3665
-52.0164
-51.765
-50.5977
-49.0922
-34.0606
-38.1319
-46.4676
-44.4356
-45.51
-31.994
-32.9427
-16.2499
-5.24802
-6.68467
-4.96808
-36.2539
-6.6886
-39.0141
1.63079
2.12306
-2.43175
-4.18219
-5.75301
-1.89959
3.55737
-44.6082
-34.8688
-24.4523
-18.1909
-8.99474
-26.8093
-6.87531
-8.9481
-11.2364
-38.2126
-17.1998
-41.1156
-18.709
-39.642
-51.054
-25.4588
-38.1924
-6.16236
-5.9319
-34.2726
-24.0199
-53.581
-47.1082
-49.978
-47.0724
-46.0552
-51.946
-11.4843
-51.1538
5.45736
-2.69114
-0.931019
-18.367
-22.885
-41.5087
-24.5644
-24.2551
-50.6322
-36.2439
-38.4147
-53.1718
-25.1532
-51.9186
-52.7068
-52.1514
-53.3109
-52.9043
-52.9276
-52.4901
-53.872
-51.9248
-47.6288
-52.7329
-52.4377
-52.5217
-51.7202
-46.5401
-46.1292
15.6688
9.94092
-7.00407
-10.2598
-11.465
-10.4373
-10.4458
-11.2915
-17.0831
-18.0543
-16.2969
-7.24837
-1.9081
-8.69121
-6.42953
-12.1321
-7.01073
6.85093
-20.42
8.63939
-11.5268
-16.4993
-3.2317
3.94349
-0.113071
7.12494
4.05308
8.60171
4.64414
8.05043
7.09211
-4.03935
-0.795939
1.85909
-52.8305
-36.7107
-17.4028
10.1398
-68.2262
-85.5547
-42.3541
56.1432
21.4476
25.6486
19.5461
36.8007
42.6671
-63.6611
-71.8128
46.1267
-50.3584
-21.2827
-50.6446
-50.1087
-40.4639
-52.6687
-48.777
-51.9431
-48.4325
-50.5291
-48.7412
-31.711
-10.4233
-34.0903
16.3816
-30.9322
-38.2338
55.4157
-70.8116
-50.6692
-49.9195
30.8752
46.2088
45.4649
-13.6477
-11.4124
-12.6032
-50.6927
8.12216
-4.76618
2.44171
-24.6147
-46.1243
-20.827
-19.9789
-15.6487
5.57886
5.13308
9.23042
-7.39287
6.91758
8.46484
7.38852
4.53414
4.50569
2.82401
3.31945
-26.2183
-22.7182
-17.8808
-44.9027
-23.9421
8.7815
3.70505
-6.57764
-3.99349
-6.4103
-20.0918
3.52664
3.15151
-97.4159
-29.231
-22.3361
-31.0879
-38.6142
-52.0442
-15.8711
3.40519
-0.668273
-40.1209
0.725507
-3.02175
-35.2151
-52.671
-10.0044
-7.66529
-4.43948
-14.3602
-21.432
-12.1843
-1.3305
-52.0994
-3.99298
-53.4777
-28.3972
-26.3043
22.5363
19.8235
-12.8103
13.4189
11.7032
-37.0078
-8.61943
-12.3005
-7.4811
-29.4538
-44.1647
-35.8943
-9.74775
-26.7702
-12.8383
-25.6102
-39.7362
-9.86873
-5.99941
-12.4544
-7.64765
-11.2167
-20.8726
-6.3174
-44.4414
-54.4251
-18.6504
48.6664
34.9257
40.0658
46.1857
29.3353
-22.9609
26.413
15.2901
-1.51663
-25.1042
-51.0227
-52.6315
9.3292
35.3102
20.6761
17.8893
-32.4366
-46.65
-8.73246
-44.8856
-49.1664
-49.4036
-50.3254
-51.6634
34.9303
-49.5272
-45.4345
-23.3755
-38.8808
-47.745
-3.10682
-4.61604
-16.5279
-8.08854
-53.0475
-19.4637
-52.4718
-49.3207
-44.1148
-11.0483
-47.2592
-42.8565
39.9316
-12.6446
-5.69879
-12.4704
-3.9511
-8.77727
-52.6871
-52.8081
-52.179
-29.125
-49.3337
-8.35571