/*--------------------------------*- C++ -*----------------------------------*\
| =========                 |                                                 |
| \\      /  F ield         | OpenFOAM: The Open Source CFD Toolbox           |
|  \\    /   O peration     | Version:  2506                                  |
|   \\  /    A nd           | Website:  www.openfoam.com                      |
|    \\/     M anipulation  |                                                 |
\*---------------------------------------------------------------------------*/
FoamFile
{
    version     2.0;
    format      ascii;
    arch        "LSB;label=32;scalar=64";
    class       volScalarField;
    location    "0.0263738";
    object      k;
}
// * * * * * * * * * * * * * * * * * * * * * * * * * * * * * * * * * * * * * //

dimensions      [0 2 -2 0 0 0 0];

internalField   nonuniform List<scalar> 
3927
(
0.343934
0.392153
1.01838
0.54522
0.351493
0.839618
0.779081
0.373408
0.360137
0.390994
0.35475
0.35832
0.362794
0.477506
0.35914
0.764461
0.374203
0.362335
0.388108
0.790411
0.544108
0.673838
0.546822
0.447031
0.384799
0.378983
0.355392
0.356207
0.763262
0.399211
0.393979
0.355879
0.389127
0.359685
0.375632
0.3642
0.406305
0.363
0.463364
0.377685
0.362225
0.580898
0.366807
0.408201
0.375318
0.578737
0.404882
0.586439
0.358271
0.378787
0.364334
0.479424
0.570665
0.35117
0.354252
0.356754
0.40522
0.494631
0.363983
0.379769
0.523668
0.364765
0.430098
0.376906
0.36667
0.361415
0.358544
0.376294
0.479775
0.672832
0.362917
0.373259
0.63828
0.443371
0.569168
0.515803
0.493543
0.420173
0.410822
0.399329
0.350424
0.686047
0.379135
0.37288
0.417756
0.367464
0.350809
0.744063
0.875678
0.584354
0.805213
0.527499
0.348691
0.360177
0.359309
0.646148
0.863769
0.377181
0.366264
0.521301
0.481423
1.20186
0.408732
0.8885
0.386606
0.36182
0.359714
0.371467
0.385077
0.369607
0.366173
0.72415
0.437122
0.3506
0.54079
0.829997
0.362782
0.380292
0.500865
0.351481
0.403158
0.354557
0.375512
0.741494
0.366134
0.368863
0.35977
0.356765
0.358454
0.34491
0.347171
0.679841
0.781047
0.800389
0.800869
0.484367
0.425586
0.472973
0.816818
0.385785
0.827384
0.859646
0.387904
0.42553
0.355788
0.90199
0.861567
0.851892
0.381362
0.38704
0.360839
0.366447
0.363026
0.363589
0.404539
0.348439
0.849769
0.389712
0.3737
0.368868
0.403472
0.357136
0.385407
0.361588
0.645591
0.503082
0.546082
0.758997
0.453125
0.730958
0.404272
0.988175
0.804258
0.874367
0.519052
0.756199
0.858111
0.712662
0.843399
0.424091
0.357329
0.626925
0.403917
0.915771
0.565863
0.410379
0.381799
0.752829
0.559249
0.39485
0.395285
0.469893
0.717148
0.359386
0.362955
0.690136
0.383436
0.896426
0.782645
0.377031
0.437412
0.46122
0.354137
0.458934
0.541889
0.510075
0.40623
0.858804
0.357758
0.367683
0.433914
0.667081
0.530062
0.940609
0.455793
0.439557
0.538864
0.73253
0.536978
0.451107
0.7831
0.418659
0.490227
0.411626
0.77603
0.906096
0.469359
0.575186
0.461411
0.361686
0.383641
0.3601
0.378947
0.379711
0.37502
0.388518
0.574181
0.354461
0.366004
0.451032
0.394707
0.588811
0.808463
0.681928
0.382347
0.784452
0.360434
0.467155
0.370934
0.368502
0.60056
0.398955
0.370141
0.352755
0.351348
0.387347
0.379939
0.450488
0.419271
0.424777
0.380283
0.502473
0.377047
0.46603
0.42625
0.49439
0.651701
0.620411
0.565173
0.360433
0.55731
0.605187
0.379849
0.374409
0.36707
0.451323
0.381573
0.34891
0.398796
0.379851
0.700078
0.405014
0.373396
0.571192
0.45174
0.624467
0.44725
0.784953
0.649453
0.394721
0.775977
0.620323
0.419502
0.373851
0.382565
0.421213
0.628442
0.757638
0.567529
0.684257
0.423326
0.643777
0.652401
0.43695
0.397079
0.414317
0.48413
0.462622
0.777067
0.393079
0.399156
0.609665
0.424859
0.403183
0.353089
0.416041
0.596482
0.39863
0.350576
0.438289
0.583218
0.862841
0.403239
0.469885
0.445846
0.362466
0.519428
0.430334
0.611753
0.416167
0.457211
0.377936
0.930921
0.726711
0.759398
0.361497
0.724268
0.640601
0.344752
0.369877
0.786501
0.394437
0.692225
0.495702
0.358706
0.413501
0.405446
0.478119
0.586245
0.645489
0.403595
0.447769
1.10431
0.666041
0.408102
0.448745
0.358196
0.739417
0.800381
0.38464
0.466215
0.570747
0.654162
0.383021
0.488741
0.501084
0.405463
0.600917
0.925482
0.782461
0.658404
0.435562
0.361451
0.506164
0.394816
0.41027
0.439235
0.422211
0.685541
0.734469
0.438232
0.678429
0.864951
0.479209
0.402717
0.433496
0.44956
0.530153
0.354393
0.6764
0.458321
0.598269
0.443246
0.554734
0.752867
0.40684
0.716028
0.393842
0.465773
0.825296
0.5079
0.637414
0.758837
0.446438
0.577653
0.388407
0.583306
0.358016
0.436115
0.841335
0.462159
0.417082
0.353171
0.474421
0.353118
0.348271
1.02006
0.590059
0.769632
0.396176
0.556015
0.344074
0.461121
0.451098
0.35959
0.458394
0.705904
0.478546
0.414347
0.844402
0.50199
0.481005
0.584819
0.48383
0.469849
0.559316
0.67492
0.447495
0.356293
0.505457
0.358773
0.365785
0.698907
0.813059
0.361263
0.699597
0.361194
0.489844
0.371056
0.386748
0.703178
0.381884
0.499055
0.737841
0.527613
0.483369
0.391819
0.609313
0.404483
0.531078
0.765679
0.434479
0.635117
0.368472
0.672161
0.539923
0.424262
0.808694
0.9376
0.646415
0.630029
0.450966
0.864178
0.411624
0.557862
0.731398
0.671618
0.397513
0.390632
0.360863
0.371782
0.377652
0.354117
0.378381
0.38232
0.366997
0.777357
0.423776
0.504555
0.377905
0.637153
0.366365
0.366929
0.371025
0.411718
0.590659
0.642936
0.495453
0.676376
0.761249
0.501485
0.621631
0.788593
0.893734
0.414298
0.857169
0.705246
0.423774
0.429192
0.424083
0.488526
0.422564
0.490923
0.379163
0.397974
0.443355
0.665839
0.395642
0.371908
0.649524
0.904368
0.697293
0.506642
0.713604
0.391985
0.49947
0.818982
0.360651
0.535891
0.424999
0.409591
0.404112
0.541612
0.424206
0.451645
0.448582
0.36803
0.384448
0.441039
0.465966
0.496187
0.425167
0.531625
0.532418
0.645944
0.477485
0.503582
0.596947
0.531272
0.363226
0.519143
0.638408
0.670483
0.36387
0.376888
0.514313
0.578821
0.534878
0.491621
0.463374
0.716854
0.56054
0.780541
0.597655
0.514659
0.907477
0.86462
0.460337
0.553989
0.593116
0.388497
0.492365
0.351136
0.355034
0.352119
0.351374
0.35233
0.3572
0.355125
0.351484
0.37665
0.366981
0.359087
0.347672
0.349099
0.35374
0.355283
0.666104
0.880835
0.461059
0.366494
0.387156
0.34225
0.430283
0.34141
0.427486
0.406415
0.519602
0.662496
0.508602
0.607139
0.448753
0.644498
0.720891
0.520708
0.518467
0.582772
0.549499
0.548833
0.538311
0.77659
0.704926
0.371848
0.352219
0.345331
0.36944
0.364898
0.374625
0.350695
0.420317
0.51226
0.438816
0.420961
0.424822
0.430976
0.542102
0.520203
0.356555
0.554771
0.587541
0.576489
0.645157
0.665134
0.484748
0.424588
0.450091
0.404948
0.428874
0.415116
0.421777
0.375756
0.36241
0.370472
0.36797
0.364246
0.35378
0.385892
0.378808
0.358648
0.353188
0.525175
0.425519
0.689747
0.367362
0.367349
0.377212
0.558464
0.562589
0.740655
0.917126
0.372845
0.660674
0.512775
0.500638
0.510512
0.5256
0.77329
0.349709
0.382862
0.384923
0.348731
0.351604
0.349308
0.37577
0.356205
0.366995
0.368309
0.355552
0.35831
1.13429
1.16993
0.981091
1.0962
0.720274
0.572707
0.652688
0.557582
0.663028
0.595613
0.465992
0.498656
0.356206
0.377691
0.373517
0.455213
0.528549
0.459544
0.422038
0.426913
0.404156
0.39645
0.401262
0.525627
0.399153
0.434779
0.389887
0.358746
0.394482
0.405812
0.365574
0.361907
0.398818
0.376548
0.362671
0.405007
0.408102
0.389331
0.391849
0.399204
0.386757
0.396478
0.393919
0.362575
0.353689
0.355033
0.876937
0.715301
0.659742
0.931033
0.730007
0.537388
0.594329
0.36501
0.578648
0.48813
0.44548
0.460312
0.520587
0.501742
0.369732
0.607367
0.350597
0.877952
0.866377
0.740739
0.781368
0.665728
0.587561
0.563194
0.366754
0.778746
0.425924
1.02236
0.744842
0.660122
0.463672
0.409424
0.579458
0.539118
0.448724
1.01465
0.513429
0.586065
0.51103
0.443341
0.4695
0.857385
0.432344
0.43847
0.520583
0.732013
0.928951
0.614138
0.746968
0.473199
0.443515
0.396012
0.48712
0.380295
0.412195
0.388376
0.406855
0.674395
0.554141
0.522164
0.458701
0.563431
0.774169
0.910641
0.519587
0.50004
0.520948
0.959333
0.696883
0.406606
0.476722
0.600977
0.491919
0.574798
0.807072
0.88959
0.60318
0.358725
0.730995
0.669289
0.603698
1.06687
0.890106
0.366353
0.762482
0.581955
0.587793
0.726963
0.378379
0.70279
0.700783
0.754398
0.60612
0.42656
0.490845
0.387525
0.366334
0.344961
0.375685
0.375768
0.35925
0.381623
0.356163
0.360107
0.385747
0.743945
0.887469
0.380852
0.818295
0.421013
0.356353
0.402749
0.436246
0.425605
0.451227
0.436745
0.4188
0.879824
0.375254
0.354181
0.414601
0.444856
0.365934
0.750468
0.495917
0.78566
0.346385
0.5796
0.701281
0.554365
0.391797
0.553599
0.367566
0.496946
0.635034
0.587853
0.437465
0.444811
0.424453
0.405383
0.537951
0.410422
0.435227
0.472646
0.4587
0.367109
0.466754
0.898921
0.379781
0.470649
0.417037
0.548744
0.426831
0.483287
0.717408
0.615049
0.404559
0.34716
0.418877
0.368149
0.416863
0.519109
0.743991
0.771155
0.779843
0.522023
0.667002
0.531505
0.851455
0.571313
0.588593
0.357688
0.547346
0.384555
0.36728
0.745881
0.376037
0.369871
0.384067
0.672214
0.541835
0.360317
0.359219
0.469711
0.883886
0.356763
0.591654
0.577359
0.385412
0.412153
0.396387
0.904061
0.727393
0.372278
0.37951
0.418724
0.548658
0.35508
0.363812
0.519444
0.428273
0.389045
0.409637
0.513466
0.492563
0.361467
0.392858
0.367305
0.344647
0.66253
0.362408
0.525952
0.544497
0.708173
0.549667
0.441499
0.493154
0.531466
0.380719
0.352371
0.375666
0.609645
0.533912
0.622644
0.440643
0.649358
0.557902
0.709816
0.476945
0.357803
0.371777
0.365531
0.406088
0.910478
0.358212
0.419032
0.384742
0.382207
0.373286
0.499802
0.741622
0.361066
0.891863
0.353259
0.402816
0.377462
0.369692
0.442145
0.36109
0.438209
0.421984
0.37747
0.342651
0.802928
0.351224
0.922759
0.979639
0.392828
0.385419
0.45596
0.455346
0.54171
0.482549
0.379997
0.345106
0.369945
0.526403
0.504866
0.566224
0.450411
0.832555
0.592511
0.808354
0.780177
0.358082
0.917523
1.01242
0.734783
0.537468
0.371059
0.54977
0.391929
0.767989
0.536795
0.366457
0.466902
0.582517
0.480414
0.432456
0.505962
0.363962
0.476008
0.444603
0.878923
0.542309
0.466298
0.578133
0.386726
0.370669
0.369922
0.517441
0.368449
0.379625
0.667728
0.59978
0.46586
0.521475
0.425917
0.80681
0.414143
1.08723
0.745092
0.505355
0.366398
0.375989
0.375385
0.80572
0.491804
0.985409
0.515613
0.37364
0.968166
0.468963
0.75314
0.883305
0.338123
0.389555
0.399785
0.370361
0.531813
0.867233
0.391002
0.785197
0.516514
0.743654
0.556678
0.742413
0.406307
0.356534
0.53531
0.822102
0.723856
0.40922
0.595078
0.602082
0.373803
0.571025
0.753989
0.605571
0.35509
0.489434
0.764476
0.709857
0.45393
0.420647
0.369346
0.362205
0.887513
0.799853
1.08643
0.388854
0.622036
0.928883
0.376671
0.907067
0.713777
0.757786
0.40814
0.36192
0.359673
0.37592
0.931133
0.838436
0.81402
0.852777
0.493421
0.856722
0.373446
0.411837
0.377628
0.813496
1.10712
0.735291
0.57165
1.00114
0.34852
0.387632
0.383617
0.390234
0.658967
0.408802
0.378388
0.424358
0.523613
0.372508
0.406836
0.339833
0.431831
0.373201
0.507925
0.36894
0.413542
0.793286
0.597036
0.488945
0.761559
0.361638
0.714129
0.395374
0.993696
0.416769
0.348971
0.828171
0.542328
0.713843
0.343057
0.363768
0.64808
0.627295
0.529188
0.54222
0.684851
0.696524
0.540884
0.571893
0.393939
0.37604
0.42908
0.385515
0.447988
0.346473
0.380879
0.387833
0.40376
0.402139
0.383855
0.397145
0.595877
0.593365
0.368262
0.509128
0.519763
0.929811
0.846491
0.68632
0.61699
0.357803
0.686766
0.362916
0.373092
0.367247
0.488449
0.394033
0.376608
0.361877
0.493085
0.650311
0.679015
0.465388
0.407984
0.615193
0.427326
0.409048
0.348732
0.490371
0.414029
0.443543
0.646364
0.501078
0.645316
0.537941
0.718214
0.444498
0.380926
0.849221
0.375112
0.778089
0.39872
0.644058
0.560243
0.4523
0.409839
0.649013
0.82799
0.738839
0.409285
0.431317
0.370545
0.39558
0.372873
0.360834
0.390613
0.400758
0.540687
0.588651
0.678333
0.400413
0.491187
0.445901
0.392414
0.463448
0.400277
0.408135
0.508641
0.525722
0.572678
0.803384
0.584918
0.785934
0.423078
0.791215
0.559474
0.456815
0.735706
0.548344
0.507045
0.360532
0.42059
0.360606
0.359633
0.35755
0.356795
0.357314
0.409967
0.388137
0.659838
0.750335
0.729126
0.684317
0.462812
0.359023
0.63807
1.19805
0.395099
0.362934
0.455531
0.740896
0.482514
0.828113
0.398837
0.368185
0.360993
0.909911
0.500568
0.724134
0.416892
0.400153
0.420576
0.456789
0.468158
0.624363
0.428623
0.639272
0.57884
0.593009
0.357667
0.37786
0.529884
0.373519
0.373177
0.378184
0.37124
0.355372
0.442769
0.355325
0.362468
0.363057
0.464436
0.386516
0.433739
0.351903
0.646473
0.631955
0.707047
0.785927
0.962195
0.364374
0.45556
0.41579
0.437487
0.399719
0.5583
0.609283
0.397911
0.72971
0.75683
0.566313
0.353965
0.447696
0.550026
0.697622
0.684119
0.369261
0.364982
0.358381
0.388434
0.365914
0.361927
0.354897
0.357961
0.353564
0.358398
0.355793
0.371698
0.38107
0.413613
0.364962
0.367572
0.352743
0.416036
0.358926
0.367492
0.355611
0.367778
0.372021
0.359478
0.363404
0.35916
0.365391
0.426517
0.347339
0.361736
0.365348
0.378008
0.361097
0.351775
0.357566
0.352843
0.499394
0.390435
0.351678
0.401017
0.350009
0.357687
0.356842
0.435228
0.447298
0.360449
0.373749
0.349837
0.354911
0.363926
0.376944
0.354155
0.371608
0.747518
0.515286
0.557743
0.364806
0.369762
0.361924
0.3708
0.607295
0.389203
0.841293
0.788573
0.380766
0.363079
0.362406
0.708483
0.349862
0.390856
0.36417
0.398337
0.85669
0.709639
0.350468
0.475836
0.729368
0.887544
0.657641
0.775009
0.557076
0.958122
0.780667
0.608485
0.628002
0.552637
0.429052
0.803068
0.367244
0.918833
0.717969
0.725801
0.736778
0.817947
0.538304
0.966155
0.494468
0.413204
0.603095
0.839976
0.390443
0.727427
0.86366
0.546395
0.372637
0.450418
0.752299
0.715122
0.679729
0.744046
0.717297
0.625715
0.751035
0.720032
0.66569
0.651172
0.583505
0.601102
0.415775
0.794682
0.363706
0.808467
0.365007
0.360366
0.361436
0.723232
0.626537
0.785162
0.845825
0.4693
0.365599
0.35739
0.370179
0.341641
1.27594
0.579471
0.912379
0.99395
0.570125
0.888635
0.772714
0.879758
0.375115
0.367798
0.384114
0.753774
0.869218
0.355545
0.352089
0.63451
0.38239
0.423142
0.385965
0.484785
0.380342
0.688166
0.716416
0.521629
0.379451
0.811257
0.440169
0.506444
0.363031
0.372231
0.34488
0.874147
0.857788
0.870315
0.769108
0.346723
0.964914
0.72869
0.506653
0.961493
0.917689
0.806097
0.568321
0.802011
0.516507
0.595743
0.422276
0.388577
0.478344
0.518547
0.601799
0.433956
0.837179
0.418316
0.420592
0.366291
0.3491
0.357107
0.356001
0.349323
0.348094
0.38325
0.600785
0.619505
0.796786
0.747725
0.457435
0.369025
0.35849
0.356206
0.368131
0.410961
0.350315
0.432475
0.394625
0.347846
0.369537
0.668962
0.55772
0.484115
0.471328
0.508626
0.408645
0.437964
0.747582
0.412958
0.410611
0.451078
0.387048
0.406822
0.348736
0.63427
0.719382
0.349719
0.398524
0.351839
0.350001
0.378296
0.385737
0.37782
0.358238
0.352405
0.409869
0.405102
0.699316
0.358533
0.427531
0.359962
0.367047
0.362624
0.363583
0.356044
0.459243
0.664548
0.42945
0.395996
0.383247
0.486184
0.377064
0.369686
0.425819
0.687778
0.466319
0.46284
0.388372
0.404104
0.483766
0.642751
0.929302
0.411731
0.636734
0.639358
0.389194
0.413516
0.344669
0.7553
0.500497
0.577491
0.382482
0.374535
0.390631
0.826582
0.862023
0.86264
0.352577
0.353752
0.369318
0.628411
0.358939
0.511784
0.391245
0.51773
0.351679
0.567312
0.812349
0.802944
0.740158
0.388313
0.58485
0.681933
0.660411
0.417825
0.412769
0.379849
0.584084
0.411379
0.574075
0.498232
0.382876
0.370203
0.421702
0.381464
0.364831
0.412045
0.695694
0.408909
0.911178
0.79568
0.474929
0.815979
0.532638
0.867191
0.391054
0.435154
0.490901
0.80264
0.364265
0.768928
0.56427
0.464677
0.863701
0.831366
0.486068
0.644598
0.66693
0.858026
0.701538
0.431424
0.860939
0.369473
0.357305
0.707711
0.588662
0.760784
0.625639
0.576783
0.746063
0.955485
0.736874
0.871204
0.56741
0.958871
0.364465
0.390581
0.762114
0.498965
0.470102
0.961926
0.463416
0.348186
0.370087
0.375244
0.741891
0.413377
0.389306
0.419628
0.665419
0.868075
0.913382
0.850405
0.584071
0.384482
0.380867
0.430405
0.89872
0.416476
0.422637
0.351658
0.361582
0.473088
0.633268
0.430013
0.398819
0.905135
0.575053
0.350507
0.880703
0.553755
0.761279
0.477655
0.595508
0.360478
0.444612
0.53336
0.39257
0.346092
0.360742
0.389649
0.356879
0.387246
0.358558
0.495442
0.713724
0.712606
0.743935
0.794497
0.398219
0.354041
0.373814
0.406646
0.353925
0.423055
0.417143
0.804611
0.394558
0.414279
0.445861
0.644196
0.39746
0.400374
0.761984
0.834453
0.683388
0.856454
0.794704
0.713792
0.76691
0.772245
0.685146
0.749534
0.418712
1.08337
0.39049
0.708656
0.394433
0.417911
0.389131
0.369861
0.34491
0.353077
0.370453
0.363984
0.380502
0.706753
0.765854
0.794568
1.09088
0.623509
0.456818
0.448543
0.465414
0.612043
0.435499
0.569255
0.55819
0.647046
0.574769
0.520032
0.358736
0.713598
0.357223
0.362611
0.361301
0.468512
0.873023
0.852426
0.796661
0.452879
0.77379
0.646191
0.349701
0.34724
0.373101
0.849562
0.914019
0.664672
0.347158
0.476718
0.622898
0.460693
0.69364
0.754125
0.897414
0.706096
0.410931
0.382875
0.429041
0.387882
0.499177
0.507073
0.968508
0.409114
0.367598
0.346733
0.383409
0.429734
0.786123
0.825562
0.945925
0.636136
0.365037
0.377305
0.361203
0.435359
0.70599
0.787169
0.364735
0.359602
0.397698
0.351523
0.362949
0.361279
0.358947
0.364952
0.361206
0.365378
0.406981
0.40949
0.384213
0.437113
0.367295
0.363119
0.363677
0.371341
0.351392
0.487324
0.664262
0.726727
0.509765
0.42739
0.405833
0.639992
0.424358
0.473972
0.61845
0.401801
0.462366
0.516546
0.562055
0.572333
0.530507
0.859711
0.790345
0.542775
0.376745
0.364512
0.386211
0.392303
0.430885
0.487314
0.396914
0.483508
0.476939
0.424829
0.378718
0.491837
0.456885
0.413486
0.474882
0.444824
0.642618
0.442388
0.786601
0.90991
0.950134
1.03477
0.733361
0.826918
0.369483
0.362401
0.364048
0.392496
0.361706
0.358205
0.355444
0.441377
0.371908
0.647234
0.456456
0.436468
0.547635
0.714451
0.491226
0.484605
0.445936
0.569094
0.445877
0.670017
0.571453
0.408169
0.50153
0.499316
0.50506
0.403889
0.673793
0.542758
0.494297
0.50086
0.705673
0.370277
0.365018
0.385779
0.369986
0.365729
0.369391
0.367619
0.351825
0.369116
0.364715
0.367771
0.3887
0.376015
0.36713
0.531363
0.365383
0.389678
0.36972
0.412548
0.355183
0.38334
0.782364
0.362717
0.378457
0.34099
0.373631
0.37327
0.576077
0.648152
0.352408
0.379504
0.364863
0.844948
0.361345
0.361563
0.695063
0.38072
0.426292
0.728646
0.411802
0.576479
0.491006
0.439997
0.400529
0.393736
0.38676
0.352029
0.67497
0.394167
0.392143
0.377706
0.549721
0.349606
0.440452
0.399272
0.384061
0.580298
0.359962
0.340527
0.359618
0.37096
0.363806
0.665404
0.402442
0.370179
0.376173
0.384615
0.501432
0.345832
0.357302
0.358482
0.361666
0.389128
0.52878
0.611586
0.8502
0.818244
0.815762
0.839694
0.775701
0.55456
0.825788
0.663086
0.980074
1.1405
0.851515
0.446641
0.686502
0.822175
0.622294
0.634493
0.399755
0.580789
1.00973
0.941823
0.800072
0.693457
0.399094
0.64064
0.461892
0.529816
0.63595
0.916315
0.754537
0.882706
0.517298
0.91071
0.641571
0.672534
0.577879
0.610125
0.799794
0.528596
0.520233
0.521182
0.769291
0.714586
0.404412
0.487484
0.661988
0.815099
0.486942
0.475777
0.460104
0.602509
0.480184
1.02057
0.428285
0.897919
0.872717
0.900774
0.872055
0.841337
0.711625
0.883081
0.480205
0.886618
0.461167
0.466052
0.486446
0.551182
0.894501
0.896131
0.880024
0.892708
0.472548
0.830208
0.894231
0.739923
0.783237
0.916933
0.810091
0.766909
0.61556
0.978154
0.360241
0.379746
0.374866
0.371163
0.361707
0.380735
0.355141
0.613692
0.521604
0.555342
0.406619
0.354668
0.553475
0.377327
0.359047
0.380509
0.35497
0.657721
0.362891
0.354542
0.533894
0.683225
0.868466
0.54705
0.564435
0.495925
0.621537
0.66684
0.73127
0.695666
0.651536
0.693259
0.864487
0.49534
0.703642
0.512901
0.361048
0.359548
0.370495
0.353928
0.628813
0.425363
0.377933
0.730309
0.357969
0.539089
0.480953
0.34481
0.368871
0.351018
0.381318
0.364197
0.771329
0.365828
0.372752
0.557015
0.387646
0.417083
0.442664
0.345468
0.507386
0.360671
0.351544
0.390719
0.392564
0.425378
0.449493
0.437288
0.504838
0.454061
0.413077
0.387466
0.387557
0.47021
0.427504
0.403797
0.624346
0.381109
0.700562
0.741642
0.478147
0.454982
0.521321
0.733999
0.51579
0.473854
0.714033
0.634902
0.527944
0.599694
0.580356
0.512551
0.610197
0.897061
0.611339
0.786272
0.803345
0.921299
0.468754
0.44944
0.450835
0.403407
0.373776
0.781714
0.466132
0.397621
0.807715
0.467064
1.13627
0.471116
0.477173
0.437933
0.551459
0.577575
1.22354
0.634594
0.523422
0.420003
0.834529
0.73107
0.449548
0.532255
0.433745
0.722256
0.74342
0.730208
0.361245
0.642898
0.375897
0.716529
0.688487
0.360717
0.454372
0.379648
0.533868
0.484403
0.88077
0.73613
0.652502
0.429322
0.447673
0.402613
0.446716
0.405847
0.367451
0.353132
0.47323
0.859755
0.706139
0.569627
0.463287
0.415972
0.480423
0.769307
0.434962
0.568204
0.383503
0.386442
0.501087
0.423445
0.382444
0.404555
0.627036
0.686981
0.379933
0.406575
0.880379
0.451243
0.822552
0.676393
0.69647
0.395783
0.400569
0.34159
0.370775
0.836805
0.923586
0.786766
0.771606
0.446825
0.365978
0.354521
0.392991
0.680461
0.506219
0.525672
0.358815
0.364574
0.384804
0.387402
0.672353
0.760411
0.728967
0.795724
0.592679
0.755963
0.804779
0.383569
0.378881
0.373651
0.37465
0.817602
0.379704
0.757799
0.727317
0.863946
0.546414
0.916825
0.611591
0.460008
0.537169
0.372303
0.374355
0.829269
0.564895
0.5346
0.459573
0.439653
0.351941
1.05365
0.375526
0.377155
0.359406
0.641074
0.380521
0.860525
0.598009
0.727297
0.617413
0.479007
0.470951
0.602238
1.01526
0.347575
0.362705
0.341985
0.361159
0.357529
0.653171
0.365711
0.414526
0.94557
0.387308
0.50482
0.439641
0.7226
0.485386
0.437803
0.478798
0.448891
0.467621
0.399058
0.529002
0.842037
0.485719
0.475313
0.715211
0.420486
0.360922
0.366024
0.433637
0.358489
0.36104
0.366754
0.357559
0.431919
0.376165
0.4047
0.398269
0.363415
0.409706
1.11494
0.358672
0.676215
0.405669
0.649972
0.43158
0.396229
0.483536
0.566189
0.452434
0.759526
0.695346
0.756542
0.80927
0.682726
0.41929
0.901617
0.387305
0.425651
0.45917
0.841029
0.494413
0.466509
0.363696
0.872194
0.669343
0.365138
0.49318
0.369284
0.4876
0.40676
0.414541
0.353632
0.356522
0.38666
0.407596
0.842473
0.816606
0.364539
0.493823
0.360035
0.728095
0.75452
1.04384
0.893102
0.6672
0.914591
0.396141
0.363527
0.79715
0.38019
0.376927
0.384132
0.34811
0.468349
0.973416
0.370649
0.357753
0.417535
0.502528
0.455404
0.362725
0.450505
0.364881
0.361723
0.435219
0.461516
0.448806
0.420292
0.358397
0.495598
0.413547
0.477256
0.370498
0.370193
0.46661
0.53158
0.636777
0.815247
0.360692
0.45659
0.518054
0.37163
0.767436
0.541647
0.361975
0.906443
0.543064
0.444977
0.651607
0.609872
0.655677
0.446915
0.351097
0.486558
1.06491
0.395861
0.36615
0.435666
0.505075
0.418893
0.399464
0.855428
0.488322
0.841229
0.357761
0.408871
0.384188
0.389288
0.378875
0.46983
0.908041
0.549219
0.586916
0.464939
0.446715
0.369071
0.437677
0.427261
0.345388
0.3662
0.413411
0.595975
0.46372
0.786355
0.392308
0.573225
0.699523
0.533497
0.616693
0.56881
0.757627
0.353654
0.67796
0.50807
0.468791
0.865895
0.447989
0.750424
0.432707
0.878679
0.593824
0.378605
0.354444
0.799335
0.771357
0.357273
0.495056
0.372975
0.782955
0.795466
0.513215
0.405753
0.354059
0.580394
0.36602
0.45739
0.383343
0.374868
0.383258
0.432778
0.425503
0.640041
0.401153
0.697544
0.489519
0.402283
0.672087
0.423775
0.395128
0.694911
0.433199
0.505269
0.440388
0.383585
0.585076
0.472833
0.612833
0.713109
0.424297
0.946008
0.417308
0.363887
0.756259
0.486505
0.44914
0.533489
0.682259
0.650227
0.669885
0.591345
0.627602
0.378586
0.736185
0.724278
0.585812
0.849337
0.648535
0.589077
0.694187
0.538264
0.486189
0.59944
0.511998
0.75323
0.365724
0.438671
0.825647
0.450578
0.573826
0.737265
0.91579
0.537656
0.38571
0.439476
0.46071
0.365069
0.414554
0.350235
0.343799
0.371717
0.408082
0.357434
0.341496
0.468883
0.513967
0.698194
0.371845
0.351346
0.355137
0.384445
0.875905
0.365767
0.355124
0.363889
0.356393
0.371905
0.350951
0.381718
0.355862
0.45839
0.515043
0.422243
0.813925
0.390246
0.379736
0.555035
0.651959
0.559643
0.516349
0.512656
0.81312
0.43943
0.815641
0.748749
0.364859
0.368963
0.351901
0.404772
0.715655
0.868899
0.819943
0.352499
0.354342
0.372862
0.348549
0.498136
0.487849
0.511559
0.444875
0.501405
0.374198
0.39
0.381031
0.374706
0.358716
0.348105
0.356087
0.381469
0.366594
0.497181
0.446828
0.517096
0.713253
0.434864
0.517558
0.766109
0.554292
0.499958
0.370595
0.374137
0.363314
0.361389
0.356516
0.710052
0.479159
0.909135
0.37582
0.369966
0.373125
0.35046
0.351252
0.350894
0.350283
0.346815
0.354423
0.378
0.358591
0.370614
0.361423
0.365344
0.40058
0.4084
0.404609
0.351904
0.754491
0.363907
0.675232
0.559545
0.36473
0.367671
0.368472
0.459276
0.46959
0.619754
0.394142
0.358839
0.371059
0.361721
0.528228
0.489888
0.514604
0.3629
0.39373
0.440937
0.412138
0.478031
0.355187
0.373059
0.353874
0.946591
0.806334
0.730114
0.747561
0.360339
0.370253
0.3799
0.509183
0.507095
0.480975
0.680711
0.759162
0.520859
0.592029
0.487691
0.740903
0.894902
0.888203
0.903208
0.391032
0.357886
0.401005
0.349412
0.367881
0.408616
0.39519
0.37352
0.37425
0.364771
0.360413
0.378286
0.382174
0.630439
0.568981
0.718073
0.394963
0.384008
0.357702
0.365515
0.342808
0.355045
0.367666
0.354197
0.349828
0.345478
0.371725
0.372023
0.34891
0.355529
0.875397
0.636699
0.883645
0.848731
0.938006
0.561343
0.930372
1.15558
0.956277
0.363538
0.366652
0.866096
0.358649
0.355272
0.584135
0.526454
0.387303
0.713504
0.466087
0.501167
0.726798
0.738427
0.729137
0.846903
0.93513
1.24451
0.684795
0.660498
0.493727
0.73683
0.773152
0.767725
0.687177
0.520006
0.393882
0.711675
0.458708
0.736435
0.753727
0.59319
0.576382
0.44562
0.45148
1.03246
0.53455
0.917769
0.639654
0.91952
0.948462
2.11672
0.846699
0.745909
0.755122
0.732307
0.351332
0.351228
0.370074
0.358049
0.356318
0.723755
0.38414
0.358565
0.38379
0.352522
0.377925
0.37534
0.389173
0.383373
0.370413
0.373639
0.416358
0.426572
0.380683
0.385726
0.403491
0.370044
0.418794
0.441413
0.41884
0.43904
0.374516
0.342932
0.356901
0.389949
0.389383
0.51301
0.50285
0.443443
0.391606
0.39086
0.421983
0.588072
0.405844
0.678273
0.352625
0.345404
0.354599
0.367586
0.358119
0.901158
0.836233
0.430187
0.591801
0.403049
0.436606
0.390048
0.679642
0.412438
0.448563
0.4507
0.431781
0.416918
0.615494
0.784234
0.430006
0.544275
0.681771
0.369274
0.36873
0.38336
0.373318
0.369863
0.418419
0.471852
0.359936
0.36924
0.359364
0.353314
0.369404
0.367932
0.37852
0.393742
0.392971
0.365102
0.350514
0.490995
0.665724
1.04263
0.40327
0.379178
0.362737
0.356158
0.366656
0.414784
0.431691
0.443166
0.350876
0.372017
0.368423
0.353671
0.393809
0.378076
0.458155
0.412993
0.483566
0.40578
0.626386
0.690818
0.456116
0.800719
0.359946
0.36027
0.423304
0.357201
0.413693
0.382259
0.350807
0.357287
0.3651
0.368386
0.364772
0.426081
0.39458
0.399376
0.447656
0.485469
0.45384
0.526809
0.399774
0.392211
0.72498
0.452347
0.815633
0.606161
0.453831
0.587068
0.729144
0.434396
0.48656
0.449464
0.691993
0.422007
0.913048
1.11421
1.1224
0.431103
0.541919
0.930035
0.571359
0.71944
0.447562
0.571109
0.639184
0.453028
0.409797
1.05165
0.389076
0.518246
0.415212
0.42372
0.355225
0.809483
0.619582
0.755534
0.962535
0.439552
0.660557
0.809584
0.610978
0.618201
0.454657
0.38492
0.436837
0.409082
0.917308
1.05961
0.87366
0.493213
1.0357
0.820816
0.345248
0.492474
0.3455
0.570294
0.473358
0.37205
0.517482
0.494449
0.344672
0.366223
0.342572
0.576998
0.487553
0.399922
0.390715
0.556176
0.491684
0.430316
0.360672
0.690284
0.502689
0.807329
0.554587
0.370312
0.80524
0.35982
0.578592
0.850267
0.805535
0.904652
0.799316
0.780464
0.796551
0.538669
0.701407
0.374737
0.351563
0.343987
0.430525
0.549016
0.704011
0.537775
0.831814
0.989212
0.543582
0.579547
0.521602
0.751161
0.442992
0.434838
0.499708
0.959392
0.61281
0.357783
0.36171
0.753701
0.515117
0.500851
0.38292
0.496591
0.4708
0.41235
0.371962
0.44438
0.534087
0.347701
0.515263
0.408117
0.397538
0.39523
0.35909
0.464528
0.379763
0.98146
0.371328
0.345636
0.347189
0.785693
0.432784
0.50235
0.55379
0.898521
0.776772
0.443353
0.718375
0.413747
0.497837
0.351211
0.392817
0.639941
0.53226
0.371752
0.558699
0.543973
0.513959
0.364199
0.365735
0.404083
0.359044
0.367157
0.383979
0.385983
0.756659
0.736177
0.491033
0.900817
0.666673
0.891329
0.369786
0.35649
0.371358
0.424834
0.513515
0.491869
0.685244
0.704886
0.639546
0.68251
0.403397
0.67521
0.812329
0.370101
1.0047
0.647607
0.794555
0.424344
0.386943
0.63903
0.349962
0.350704
0.920638
0.369723
0.582484
0.511145
0.387102
0.415419
0.931588
0.961565
0.601965
0.898484
0.359222
0.776715
0.585545
0.719829
0.626288
0.819114
0.743054
0.508441
0.869704
0.360792
0.361512
0.498952
0.708719
0.764616
0.558095
0.394967
0.354291
0.372533
0.390649
0.497453
0.507615
0.4332
0.431387
0.399383
0.361316
0.364314
0.364079
0.76456
0.384223
0.407629
0.381867
0.377751
0.347438
0.348245
0.379553
0.365637
0.381445
0.426842
0.465345
0.386048
0.383549
0.446462
0.404332
0.594857
0.368738
0.59954
0.382252
0.420348
0.421384
0.468476
0.442343
0.570102
0.437674
0.372284
0.543169
0.64712
0.738798
0.448118
0.571624
0.715484
0.406886
0.36914
0.396629
0.387101
0.370676
0.41889
0.392169
0.467544
0.601577
0.608186
0.799234
0.610498
0.644586
0.421252
0.358245
0.53126
0.482351
0.387692
0.430716
0.360973
0.359047
0.355132
0.700648
0.405825
0.366546
0.553625
0.655173
0.689928
0.381839
0.356245
0.356279
0.381149
0.477574
0.37788
0.430601
0.445108
0.463461
0.446154
0.549073
0.474445
0.90001
0.468991
0.353695
0.387666
0.366381
0.365848
0.376028
0.353373
0.518934
0.367118
0.425354
0.691759
0.363732
0.35309
0.366343
0.370039
0.385477
0.352496
0.359888
0.400146
0.398508
0.382503
0.501658
0.428137
0.366548
0.38002
0.374898
0.411368
0.521185
0.469645
0.46529
0.702808
0.481429
0.65924
0.379725
0.446497
0.555377
0.670244
1.15812
0.357025
0.698311
0.662306
0.370158
0.380208
0.350887
0.379482
0.362559
0.369231
0.362559
0.360684
0.366702
0.357112
0.353832
0.342251
0.461859
0.37901
1.07801
0.495161
0.906938
0.73792
0.726984
0.590075
0.757826
0.57454
0.681122
0.68395
0.717059
0.44542
0.765833
0.865216
0.41298
0.376336
0.784198
0.903061
0.979174
0.424218
0.361286
0.874453
0.986057
0.745056
0.508726
0.360052
0.504673
0.526601
0.494541
0.49468
0.481922