/*--------------------------------*- C++ -*----------------------------------*\
| =========                 |                                                 |
| \\      /  F ield         | OpenFOAM: The Open Source CFD Toolbox           |
|  \\    /   O peration     | Version:  2506                                  |
|   \\  /    A nd           | Website:  www.openfoam.com                      |
|    \\/     M anipulation  |                                                 |
\*---------------------------------------------------------------------------*/
FoamFile
{
    version     2.0;
    format      ascii;
    arch        "LSB;label=32;scalar=64";
    class       volScalarField;
    location    "0.0501868";
    object      omega;
}
// * * * * * * * * * * * * * * * * * * * * * * * * * * * * * * * * * * * * * //

dimensions      [0 0 -1 0 0 0 0];

internalField   nonuniform List<scalar> 
3926
(
91.3382
44.2245
91.8617
230.193
128.895
495.286
702.234
908.145
402.419
835.408
713.379
99.9331
43.8946
145.467
45.9082
45.4346
85.5023
45.8385
125.606
71.2254
97.6408
165.428
147.464
130.737
58.5095
121.378
116.753
229.277
253.281
180.427
198.405
68.655
168.717
112.743
73.2954
122.061
662.083
63.8034
45.9192
80.3906
206.571
946.012
64.044
49.3419
44.3665
832.536
62.1451
108.028
725.828
61.7638
92.8844
993.166
359.907
735.803
48.1265
68.7585
1042.27
377.718
77.9977
337.042
49.0394
282.452
699.875
66.6616
663.676
506.369
624.933
317.559
443.771
600.277
396.945
44.535
388.434
50.0376
84.6407
547.954
69.0312
287.225
81.2512
45.809
134.005
66.7325
545.426
1079.94
96.0249
59.9932
54.2221
126.534
545.505
46.3059
46.0133
70.7662
111.238
264.875
60.0566
1038.45
63.0862
73.5071
352.983
89.4449
204.852
62.3761
91.556
65.6248
249.009
184.948
69.3786
56.7006
60.3124
53.0015
100.941
66.4961
54.9553
63.641
46.6585
406.486
142.277
44.754
572.565
608.526
63.8231
64.1139
46.5025
97.0954
56.1127
73.4684
309.844
56.3
216.108
83.0872
64.7329
64.3372
59.106
63.5984
813.885
779.636
671.044
537.038
679.919
108.591
87.1296
45.1877
82.5395
113.732
54.39
209.275
77.8822
157.011
66.2289
74.357
89.5976
101.311
74.9674
120.868
160.146
196.403
73.0851
226.99
151.374
194.003
102.71
57.49
65.0537
282.654
434.879
62.7601
48.7521
43.8372
60.5214
162.471
1126.29
82.6761
48.2139
45.5181
63.3478
92.4887
63.295
410.667
164.466
68.9343
1046.09
80.695
560.678
103.176
45.4524
80.7655
91.7565
51.7645
112.277
90.869
504.974
61.2943
237.623
53.7045
55.5485
45.8713
60.4159
50.7692
55.4675
760.059
72.2934
747.208
388.603
57.5265
53.7692
158.674
47.5239
762.235
69.3104
50.5578
44.4753
51.4643
93.5575
114.099
47.1847
170.196
50.5214
93.956
85.2848
120.661
62.2917
100.628
78.954
565.091
71.0375
529.27
859.886
80.3446
46.63
68.9574
61.619
205.418
103.59
51.0599
86.7335
87.8305
75.0496
146.922
753.054
84.4676
651.179
59.3679
202.355
316.933
44.8822
72.8976
735.234
71.8401
45.9905
1003.3
524.222
1040.11
989.971
180.212
64.3994
559.986
826.673
79.7065
146.301
886.961
645.908
617.171
63.398
337.596
440.524
71.7121
48.6979
96.3083
83.1919
617.692
482.593
794.697
59.9796
91.2576
65.9118
129.007
47.6836
80.5828
45.2171
49.7595
396.914
737.527
97.3082
50.6169
220.86
412.06
267.134
385.485
648.951
193.547
146.535
44.6925
53.8459
331.344
44.298
115.257
54.9091
77.7107
69.9465
789.024
1010.93
167.63
53.841
103.421
55.2848
235.165
1022.25
81.9818
51.9882
539.591
716.487
203.573
233.491
50.0327
106.301
86.9379
62.565
72.9282
197.457
82.0216
257.908
49.077
852.06
161.714
181.209
65.5566
444.603
128.43
759.043
62.2786
112.784
48.8213
51.7884
44.3897
53.1285
44.0817
92.1344
603.813
447.529
514.2
227.596
652.409
83.5135
46.6623
60.1256
92.3449
385.301
239.369
396.752
524.362
517.082
542.986
516.584
598.537
442.263
624.086
444.226
587.087
85.1606
48.2273
56.3003
44.657
137.252
106.289
538.98
146.636
91.9763
50.3979
175.544
85.4291
135.7
48.7204
454.743
49.1409
222.324
64.2154
93.6707
52.7903
348.123
73.6582
47.6245
107.357
93.6576
140.121
60.3282
51.0774
157.01
240.688
98.2392
77.4268
608.16
52.876
877.959
94.9052
69.4277
84.0816
92.5768
44.2206
80.458
61.7959
84.0561
82.8849
53.8241
51.6089
109.911
120.459
85.7284
48.1952
109.755
121.05
47.2203
721.892
205.672
130.887
60.6812
57.727
68.2491
600.439
54.8692
47.8684
47.4016
97.3162
81.5915
117.629
62.3976
51.4875
67.9555
46.7423
81.3401
64.8774
84.0199
89.0718
177.358
69.0553
44.9495
46.4851
76.7915
55.5992
450.821
48.4514
57.2138
856.9
927.16
89.4968
295.786
773.491
186.777
506.824
50.6258
44.5274
941.475
73.9029
106.616
577.726
98.1003
233.676
206.847
87.8775
80.4432
151.414
115.415
157.48
109.745
53.539
69.6281
47.4492
57.7557
833.174
77.9296
76.1134
146.611
66.0569
59.8688
58.4998
129.488
124.29
67.8476
126.51
49.8193
184.645
163.417
97.2923
44.2954
57.9742
47.5195
69.2906
416.163
153.206
107.051
996.847
72.6281
155.719
744.28
779.866
98.3989
182.224
272.993
84.5052
170.699
481.909
110.218
440.367
80.9102
110.705
172.139
575.321
52.9511
117.716
46.8702
369.484
130.187
919.359
802.057
94.9574
161.516
270.911
682.802
143.051
912.492
508.156
683.205
663.179
490.773
270.312
735.179
91.6404
105.384
317.48
374.415
107.569
48.4664
47.1385
60.8055
44.7939
414.41
474.103
733.752
868.574
146.727
93.9321
137.496
419.748
707.449
943.806
1111.03
497.491
391.892
85.0593
81.6791
96.726
93.9606
110.327
255.339
46.3885
48.4456
276.355
110.447
212.679
279.253
82.4581
77.591
113.339
70.0522
62.1044
62.4497
66.0339
579.012
475.308
343.325
1112.23
58.1817
54.4714
52.0439
52.0352
51.2194
282.922
114.724
84.654
593.452
55.0768
383.046
69.6066
109.558
53.077
112.443
151.414
653.609
50.329
48.7345
49.2364
268.289
84.3491
545.081
624.156
692.156
44.839
165.226
632.47
349.108
260.263
146.068
59.9192
68.0013
53.2287
44.5597
44.818
62.5644
197.164
165.087
370.614
282.064
107.046
220.456
50.8297
45.1816
46.8526
45.4527
96.6612
46.0972
48.5101
49.6721
140.955
98.2676
63.5521
564.59
446.891
262.888
56.6506
65.1716
57.3199
48.5682
65.1113
50.5377
53.1089
204.951
52.3696
47.8379
210.601
152.261
472.448
118.658
95.6199
64.6084
91.7403
452.197
68.6961
74.1768
96.0295
90.6251
128.152
48.3471
84.6617
81.7792
74.6195
49.5587
122.526
91.0121
79.1716
83.2322
156.803
181.409
73.5296
56.8908
83.3629
100.518
90.4766
75.5767
769.962
87.9374
57.3431
71.8005
44.4457
44.5054
66.3561
66.8731
71.9266
137.929
75.3434
56.4722
100.007
48.8815
54.2422
103.465
383.367
122.956
54.3603
46.4727
45.7591
44.5263
44.0068
108.823
79.5377
251.543
111.019
90.4058
45.7701
45.1973
45.0917
179.718
61.2004
59.0613
59.4526
73.7758
49.967
55.6761
49.5726
58.4401
80.9829
183.647
129.703
50.1819
51.5546
48.7935
51.9812
44.5165
53.4064
48.2906
101.343
132.2
124.22
55.3541
55.9435
47.3945
51.0107
46.6099
46.4114
44.597
44.6372
44.5396
77.397
52.656
62.6692
77.7957
53.5327
60.7119
85.3195
61.0543
92.5054
49.0958
47.2492
50.0224
53.439
319.401
53.4226
47.5863
49.8494
53.3255
51.0243
51.003
44.4416
43.9285
43.8144
44.2444
44.259
68.9705
80.8481
538.174
93.3701
475.47
63.1414
769.785
62.5351
79.1544
60.2542
244.508
72.9804
302.662
250.166
69.2983
870.828
45.1027
760.704
802.985
125.215
44.7706
234.269
268.86
45.4738
44.953
81.5808
77.8634
381.821
84.2367
74.2946
44.6086
46.2807
46.7099
49.7586
118.572
56.262
53.0659
47.7288
48.8754
191.918
72.9836
60.4039
74.896
44.7386
52.4335
86.2276
258.741
78.2895
568.511
58.6702
81.5938
998.406
726.5
79.5587
75.5362
70.1048
50.1339
332.029
57.4581
58.0623
92.4099
49.6186
44.5805
47.4854
57.7116
49.2827
308.884
171.786
783.915
105.489
77.4706
58.1766
87.231
1071.74
140.648
1061.21
44.5694
44.7298
622.938
596.003
267.826
80.6612
44.6093
69.9651
44.6342
811.52
52.5427
50.2098
484.932
57.9051
52.6852
103.457
204.905
96.5069
78.9731
118.418
63.2983
837.543
82.5555
49.0908
811.837
252.426
51.5625
378.316
682.77
50.0923
770.631
45.9985
49.462
55.8396
170.926
59.2424
60.8024
45.5165
966.79
634.609
836.453
111.796
510.843
103.63
48.0411
80.0606
57.3897
55.9047
285.594
145.467
357.676
49.4323
45.8533
124.448
72.1217
107.028
511.073
71.525
78.0165
99.7667
96.2438
48.8296
63.0623
82.7499
406.645
47.0667
298.311
54.2935
46.5187
86.2835
204.556
708.597
145.912
79.0323
214.738
56.0128
71.4389
54.9667
954.969
155.14
72.6574
1215.58
44.1525
85.6971
55.8878
77.327
872.061
193.681
353.025
112.382
110.705
46.5543
87.7738
183.318
52.7811
49.9906
427.018
185.283
256.67
139.169
116.176
91.9727
1034.46
436.814
69.2674
64.58
119.543
48.0535
868.819
868.513
86.325
44.453
56.6988
44.1883
45.1302
80.4421
58.6073
58.2752
135.507
770.657
351.199
150.502
48.3547
89.767
648.985
289.41
725.576
314.194
71.7935
46.6755
125.93
212.146
574.075
80.1043
64.9873
105.531
81.1441
411.669
51.4051
621.452
674.087
119.12
109.256
47.3591
85.1558
113.973
427.523
197.949
90.4357
68.9286
63.8949
52.8959
78.0633
88.6631
168.925
61.6066
49.4813
47.9819
97.1657
571.56
86.0578
591.445
876.983
483.216
275.492
129.368
58.6745
55.8321
124.669
141.292
126.257
57.431
589.957
452.688
79.2733
69.4
90.4897
78.6452
794.14
73.8292
61.0444
65.26
128.165
78.6607
276.699
88.6514
223.638
49.1051
47.4796
68.136
777.745
143.173
88.0788
786.846
861.241
164.731
65.4234
92.6207
78.2795
45.0761
44.6743
44.1615
87.7712
50.6416
57.6584
233.248
59.0078
747.042
128.702
72.2868
50.982
560.039
49.9851
56.8043
80.1602
772.056
59.2981
87.1424
47.3685
891.473
55.5797
103.412
66.9847
551.41
233.178
542.479
58.6293
254.695
423.9
172.482
60.2831
232.938
265.26
923.457
56.3131
50.2119
56.9667
60.9941
55.5808
820.571
60.5437
64.1973
354.994
175.238
895.756
117.026
46.6471
45.9431
295.926
123.945
86.4895
55.3916
45.1666
44.6832
46.3866
44.9761
44.8004
44.7699
46.7256
46.6205
54.7195
126.434
53.8255
53.358
45.8535
44.7189
44.1614
121.499
47.089
46.6309
44.4246
44.1322
46.4157
53.0116
918.527
615.077
70.7407
579.985
52.9734
48.1651
46.4046
50.4607
51.8958
48.4912
623.207
953.665
999.393
64.9803
52.5356
259.105
362.276
89.1657
67.9976
155.264
100.79
612.011
174.358
60.464
83.257
58.6814
428.196
230.808
156.821
459.924
85.1811
180.359
86.4267
59.7596
499.14
359.436
59.4363
1040.17
532.193
212.929
209.396
251.585
86.1932
656.631
99.5944
49.3115
310.277
141.614
444.376
402.629
311.782
494.038
310.886
364.484
180.137
44.0631
909.961
86.6111
265.95
134.005
55.9952
46.0003
968.51
940.329
445.31
512.141
623.916
76.6869
333.572
1048.61
132.883
808.943
885.567
229.847
147.506
105.694
47.547
54.6597
81.2729
56.1876
405.992
912.178
710.544
965.311
738.289
1065.2
417.8
901.042
68.5595
45.9105
48.1617
48.9273
45.1287
71.6654
144.218
388.522
367.81
591.541
99.0589
47.7164
613.588
851.998
770.87
537.29
174.956
61.8546
902.035
1139.73
1069.14
58.7297
307.267
45.6099
418.099
266.837
409.19
334.877
78.1371
142.454
165.284
667.796
786.767
569.177
931.03
671.161
804.553
966.464
946.07
178.521
113.327
138.531
80.8301
68.0198
44.0971
81.671
54.8797
68.2527
55.6512
45.5732
54.4161
46.844
130.429
49.8597
48.9703
44.8284
49.1413
197.639
46.3608
106.252
69.2074
70.5724
57.5712
102.307
85.2204
148.449
65.994
108.468
201.763
426.686
218.956
275.667
48.8983
56.2263
50.5426
63.2771
67.1594
68.4487
51.083
45.5947
87.4995
462.594
47.6783
177.719
59.17
75.5503
99.35
65.1132
753.377
64.8638
71.998
78.5397
54.4824
55.7377
90.9097
49.7265
290.112
159.655
46.9438
56.16
78.4574
100.306
927.977
185.937
47.5944
199.792
162.073
171.28
662.108
257.516
131.807
246.104
189.961
801.855
70.7643
56.692
93.1962
53.2264
140.843
51.0013
70.553
45.8797
44.3238
43.8976
46.5535
91.3727
89.5643
47.6982
46.736
50.388
108.617
71.0797
107.943
45.8342
49.2301
123.487
113.877
1049.66
171.071
163.517
1050.32
691.34
446.295
278.812
95.9257
68.6799
49.4268
50.0705
83.6917
82.44
517.687
78.7941
276.135
782.809
278.251
375.459
101.525
46.3931
92.8271
51.9969
52.1079
68.8559
63.9214
60.7081
60.0312
53.9076
67.4038
58.7447
100.592
367.041
1035.34
70.1681
71.1569
85.0888
44.4576
47.048
46.7588
64.7885
76.7958
363.407
57.7685
52.9844
162.579
79.5607
44.7752
61.6185
44.3145
418.104
188.79
69.3119
61.8992
46.8933
48.3158
414.451
51.2661
116.763
501.268
59.4949
235.45
240.095
62.5409
266.255
51.1952
51.2094
834.443
63.0661
53.0312
55.0609
51.6269
63.0279
65.8413
47.1652
58.6699
44.3001
215.739
308.983
1037.65
191.582
167.295
82.4251
1021.36
45.2384
53.3877
93.8347
82.8612
50.7929
44.3822
47.2169
59.5754
52.7164
59.668
416.326
90.2027
208.19
99.8622
277.066
196.049
71.1304
190.869
450.7
239.032
90.6572
82.0626
1006.3
1025.55
294.691
101.525
92.5048
450.73
105.62
228.085
156.272
82.9855
81.4394
216.99
51.1418
134.897
46.9894
362.655
133.152
111.037
349.195
692.475
71.445
64.9238
92.076
353.722
96.9479
55.6822
658.045
604.282
153.301
66.964
48.7823
48.4061
109.86
46.0248
66.9534
108.059
60.1634
388.743
627.537
67.2294
89.3542
133.508
99.1483
643.532
48.3796
851.301
952.65
46.1796
69.8671
47.4759
68.7548
427.734
59.1341
431.669
57.8933
62.8146
615.742
58.8761
182.502
426.379
71.9839
84.3165
73.0298
110.714
51.0118
44.7483
130.841
56.5441
62.5092
127.748
50.2101
70.7255
215.305
245.382
854.495
633.209
136.089
387.096
50.5644
68.3411
76.8486
72.7832
57.4828
54.3068
77.1135
46.0969
63.7706
96.288
79.2885
100.874
81.6555
115.346
47.7052
47.4562
95.903
49.8614
371.104
64.1421
55.4207
53.2138
71.5796
57.1263
57.1763
170.251
202.442
180.518
197.878
228.578
357.052
72.3835
63.3362
61.3335
54.8455
604.431
58.2069
56.712
93.5915
46.5124
690.62
217.069
69.9943
81.6219
90.9874
422.858
55.761
46.1262
84.2325
67.9759
708.525
63.2211
69.7594
303.478
48.8588
162.95
47.7627
187.807
158.331
152.72
73.0419
422.341
78.2995
779.499
54.5393
728.883
344.603
170.39
51.5186
60.1154
104.955
120.91
364.839
715.211
369.327
53.5712
159.468
623.143
129.246
448.187
364.533
276.295
687.856
60.5415
46.2391
46.8995
47.068
541.274
871.808
96.2311
248.057
1113.65
117.344
110.69
122.367
176.638
327.809
59.3383
137.168
83.6297
48.7343
48.979
48.0335
58.5725
46.6901
45.1017
255.91
182.277
269.872
211.088
214.446
770.834
174.459
223.428
239.81
200.46
224.429
199.892
171.572
43.9917
83.2479
373.906
61.1457
57.0033
268.024
667.601
277.161
967.936
61.7362
889.917
499.218
1100.92
762.842
84.9921
1020.46
723.44
363.444
969.365
933.388
615.239
162.157
700.564
79.8513
405.497
48.6899
656.391
440.742
259.073
251.3
530.944
610.146
143.709
204.811
197.989
575.35
587.531
311.421
1019.09
121.539
243.712
365.752
615.863
559.02
64.8529
48.0137
198.467
87.2884
161.707
245.387
107.837
712.915
724.599
451.194
276.165
391.871
370.561
45.0564
1007.63
62.5147
1106.07
1174.32
114.514
946.33
98.9039
853.366
373.371
174.985
81.8576
51.0524
47.8778
58.499
77.7658
380.503
665.579
411.907
67.7215
763.686
809.058
1258.03
343.081
46.4056
1078.74
1360.26
641.019
1046.6
44.7364
799.885
829.597
826.44
53.3145
45.3264
319.246
56.3841
80.5389
462.114
347.981
62.3729
58.9191
105.823
77.0643
53.6921
82.6222
58.9881
62.8009
53.7553
58.7613
51.9061
220
944.643
90.0001
159.922
200.057
79.3302
63.2984
47.7552
70.8017
68.3376
72.9692
90.0861
93.7277
74.6414
63.2564
81.2051
75.3319
46.1948
252.489
51.0954
44.5232
77.2634
1026.66
53.0596
75.9294
55.0881
62.0138
448.26
371.621
179.205
690.218
44.8718
45.6634
178.779
303.317
1084.21
406.761
578.779
957.395
478.776
465.745
731.207
57.1646
379.335
382.958
439.028
70.3674
690.812
48.0635
50.2076
104.21
78.8664
73.4827
163.873
149.346
73.7377
67.6658
51.2133
127.77
205.345
837.497
287.978
334.752
170.317
229.185
417.692
402.153
187.568
126.713
1148.95
48.7119
189.687
469.785
46.9289
55.6566
92.54
127.065
91.0616
64.2574
405.821
82.0841
60.151
695.74
86.2629
272.061
167.824
53.0534
61.3795
66
47.904
158.937
829.335
48.8781
63.3753
47.9802
50.0114
52.0432
47.9589
47.6508
44.0127
90.553
49.4314
54.2643
74.5141
50.0298
68.5223
60.0347
47.3383
1067.77
96.8025
63.3878
266.647
71.7263
56.2864
77.6871
208.777
70.2117
86.3861
58.2353
56.744
101.654
65.1854
44.9043
50.512
44.2395
45.6578
281.049
278.69
65.8639
53.6818
700.243
59.4117
101.207
110.053
268.117
273.547
259.873
219.133
1037.82
1030.41
789.528
985.77
770.078
146.006
58.3904
63.7581
67.7436
438.964
95.4874
415.052
51.3346
52.6835
74.9173
115.06
66.5644
54.0847
844.488
60.5223
85.0667
493.188
89.4507
81.2357
89.5298
70.4149
128.96
145.66
870.474
64.3212
155.652
92.0136
57.2247
50.3885
44.4102
44.0209
105.445
79.3044
50.6546
44.4225
64.9027
45.8059
76.3609
54.8467
55.5258
151.343
69.9909
110.144
66.555
51.6316
868.122
234.276
196.011
172.121
1243.28
190.576
50.5916
73.1371
63.3544
874.099
74.7539
49.3574
68.9296
52.7868
135.389
542.96
75.577
67.9388
119.662
76.0743
66.8953
775.785
50.6632
96.3762
51.7885
55.0591
463.079
76.9768
874.404
225.038
49.2596
46.5821
47.6821
73.8812
120.283
283.848
772.138
586.113
100.691
90.6032
158.226
729.184
169.999
150.984
518.099
211.59
1183.49
1052.39
93.7342
1293.21
1040.58
991.063
893.116
49.2112
127.424
67.3985
44.0386
45.2754
48.4013
164.982
54.0767
449.645
59.2653
824.038
265.973
44.9789
51.0162
54.0293
61.7023
61.387
85.9505
351.972
807.291
220.332
813.291
992.347
138.284
237.349
64.1806
59.7386
213.09
840.203
409.404
73.2288
45.9533
50.6873
56.8545
46.336
53.2832
44.1885
57.2637
47.1278
65.2764
95.2442
63.599
50.8679
53.6222
68.9434
161.89
255.497
866.328
960.145
69.2496
243.428
75.3296
744.784
117.857
435.653
87.5059
106.728
654.706
74.5378
75.2757
79.2958
101.29
82.436
977.284
1199.88
64.6405
499.575
617.267
836.666
966.839
80.4034
118.296
151.826
49.9664
73.7978
55.3443
60.8591
680.023
86.6957
136.713
62.7341
58.3423
225.226
624.767
961.408
168.669
621.271
447.812
595.526
433.335
59.8531
51.8533
344.816
56.2126
557.442
103.4
293.657
58.7681
60.7682
55.485
114.125
145.004
85.6782
94.9228
46.7613
72.9876
76.4901
61.7015
215.993
287.278
148.212
895.907
180.933
849.494
394.213
554.81
127.416
80.0653
47.145
61.8128
46.5795
44.3013
55.9075
64.4864
98.4889
60.5954
76.693
58.9206
856.586
126.53
57.582
735.189
283.724
157.421
271.927
76.2316
510.362
178.789
504.992
55.3476
198.325
481.675
483.536
175.847
996.429
115.422
303.892
52.1511
61.7986
67.6223
55.3976
52.2292
49.8193
151.308
52.9041
453.622
45.6347
221.994
153.783
906.915
426.69
77.1926
71.2561
303.438
48.2069
104.24
168.339
135.563
53.0627
479.849
64.7794
77.2955
63.6492
154.597
50.262
92.8182
48.8438
129.573
160.227
100.055
95.6583
45.263
44.7477
51.5973
48.1616
47.4348
136.844
108.344
811.789
533.239
705.338
941.42
84.0873
94.145
119.04
936.318
91.6323
522.035
902.313
143.471
47.8403
124.477
253.444
480.372
45.6788
134.473
49.4
56.99
53.608
121.13
129.622
81.7304
146.039
70.6986
61.4938
67.3965
74.6417
87.9341
103.929
589.13
306.842
177.796
359.891
238.802
182.699
211.382
164.402
156.564
51.7667
63.8765
50.4952
58.8538
56.8832
140.279
67.3866
58.0205
48.121
61.4043
61.7117
54.9133
44.9496
54.0304
78.4654
55.5114
755.504
77.2514
44.3133
45.3025
426.698
876.105
371.847
421.142
58.1822
85.9235
78.6738
80.2558
85.1709
87.3125
70.0382
945.43
506.785
199.622
85.23
432.775
53.5753
736.492
62.7589
903.745
138.07
291.168
483.094
1028.02
1191.46
666.669
680.039
369.525
91.4726
84.784
799.838
68.332
71.0841
51.3355
457.393
56.1786
49.7258
45.6589
50.0102
56.9599
219.131
912.423
119.068
71.274
51.7509
44.4411
44.6748
179.955
151.882
83.4556
187.835
44.9207
44.5812
63.0507
82.1594
85.1435
676.986
157.829
455.962
415.702
849.117
377.479
838.731
850.101
820.493
652.795
753.136
867.736
800.679
334.888
767.107
248.168
324.933
57.7134
317.037
54.9579
103.159
69.0002
79.7921
81.9368
184.581
44.596
148.116
228.715
148.815
193.265
169.694
841.584
89.5874
565.16
516.914
79.0957
379.881
95.2751
797.923
803.704
47.6277
47.9631
51.9742
50.4186
47.3488
48.5737
45.5512
69.942
132.4
689.251
1011.26
140.146
352.78
98.6016
65.6019
64.1944
994.667
280.044
70.9254
67.8989
59.2322
879.86
81.152
61.505
58.5352
577.067
349.204
319.173
69.1496
68.4401
84.4783
100.026
97.8936
871.427
98.143
227.669
868.677
263.508
73.6339
90.0212
601.388
78.3561
151.393
44.471
43.9244
48.9779
95.0167
69.7917
63.1312
61.6397
213.131
220.489
407.686
513.235
331.114
311.914
162.767
100.018
104.68
82.0556
61.306
75.0597
56.1978
65.765
65.5979
60.11
89.6273
178.979
55.2924
56.551
94.1491
47.3984
47.4942
51.0497
49.4
48.7035
44.5071
45.0817
83.9385
91.8657
159.401
56.9363
73.9962
98.9085
70.8399
78.4841
67.1512
70.2977
44.9787
151.427
80.6625
68.9057
260.527
53.5859
301.327
61.5481
48.878
50.3146
49.3187
69.092
754.464
45.5202
641.634
125.455
81.3266
84.67
51.5654
81.2576
138.17
43.8376
57.9949
88.9532
70.6536
69.9201
83.2438
69.7673
67.2194
133.576
541.354
73.3486
66.839
74.9327
61.701
151.392
241.519
210.677
107.727
157.233
76.2033
162.204
294.096
49.5545
46.2046
48.5297
55.8229
45.9931
357.831
44.7552
51.4208
56.8416
1134.87
798.298
356.244
772.894
110.928
707.09
829.424
146.636
486.269
61.8659
89.7355
111.733
136.796
193.348
97.4873
82.3434
47.6603
63.8507
89.2961
286.496
49.554
58.6722
84.4533
87.549
503.687
61.1177
57.8287
76.0977
54.0962
48.3321
100.076
53.4762
48.4038
45.6813
44.5306
43.8152
44.3277
44.5062
48.7002
67.2888
45.4773
45.312
46.8066
44.632
89.183
51.7362
51.319
64.3048
50.4366
61.2688
76.8701
57.861
224.357
65.3893
71.8931
45.0745
75.3761
55.6106
55.4794
52.2491
46.4412
49.8901
50.6011
161.522
48.8507
119.233
279.806
45.319
107.356
80.923
79.585
48.6596
62.8392
63.6749
128.325
86.1881
104.087
90.8444
53.1108
44.4309
49.9733
44.8579
50.1737
48.0443
44.035
44.9201
48.2128
47.1198
174.27
45.5482
50.6109
157.829
116.641
131.907
306.906
77.3911
64.1145
64.1602
45.8148
46.3309
122.588
49.0007
48.0094
48.6649
56.4197
111.065
47.8214
102.737
45.8903
47.9584
72.977
187.087
88.4012
202.521
57.455
56.7997
68.5373
91.5715
70.5711
47.4938
46.8161
46.6442
48.6238
50.7147
153.551
67.7956
75.3158
61.3977
68.1394
113.459
44.5119
52.4822
49.6062
52.6724
55.3046
72.904
496.846
135.157
891.595
267.898
51.7104
119.346
80.8131
676.774
89.6381
44.8394
44.6674
50.7831
51.2679
56.4827
45.9979
46.3837
44.682
53.1298
535.042
278.417
45.2899
45.1006
51.2481
58.2313
412.571
204.157
196.454
63.4624
160.933
92.1311
136.292
125.616
215.579
489.337
61.9274
78.3293
72.2418
76.3179
364.101
397.391
76.675
70.6672
626.585
54.6429
45.5994
100.093
45.1234
88.6464
66.4511
56.8032
55.6895
126.785
46.1784
97.3064
320.623
72.9968
44.7876
44.723
55.988
44.5779
90.2113
44.2271
44.4647
46.1585
219.472
53.5399
49.0562
71.666
125.721
53.3472
53.265
50.9166
143.98
81.1006
97.1391
72.5087
718.136
246.737
71.9149
428.172
155.894
551.559
45.4638
82.9908
135.694
69.5363
76.4491
137.427
67.5557
87.8323
930.936
198.672
43.9475
62.9651
95.3842
48.7124
50.435
44.1147
97.2667
127.036
63.6079
1090.62
76.5725
118.236
69.9398
121.994
145.41
79.9585
106.89
71.0599
67.5918
163.469
119.76
72.965
102.674
63.5288
193.347
68.0924
78.5021
128.332
315.982
53.9919
44.7135
44.4623
50.7881
54.0578
163.01
47.3015
60.392
468.726
119.182
173.44
330.446
103.38
98.6938
65.3294
56.4782
52.1215
47.7575
59.241
49.7107
43.9896
91.7614
77.7822
833.703
986.01
74.68
62.8124
61.81
138.743
543.295
666.713
121.626
657.979
208.22
83.3852
183.858
181.347
105.214
940.362
106.098
87.0755
447.611
519.747
49.3273
78.1825
51.1023
44.5863
85.9969
44.584
44.647
85.0607
66.3732
723.013
458.11
62.4278
304.405
169.382
82.7353
104.582
464.117
548.168
93.4296
133.024
144.575
59.2014
45.8377
46.0432
47.2342
97.0557
57.4026
57.593
947.369
243.61
127.658
70.3341
77.9625
360.438
59.3831
70.0897
66.3172
45.4385
58.2062
268.461
165.643
199.063
63.4411
58.7751
55.7544
66.0331
703.145
88.7377
85.9323
60.3535
86.242
80.0079
186.483
211.938
83.4717
122.702
56.1971
62.2055
175.931
50.358
93.5395
56.9766
65.2688
66.5052
430.016
232.317
131.323
84.5497
111.652
767.732
826.203
123.186
71.5168
244.373
547.022
76.2797
752.55
195.686
347.587
54.0872
177.413
103.803
55.7464
99.4653
60.0829
60.9763
211.177
49.3204
54.1381
71.7116
477.954
64.6608
59.2177
56.1399
46.7945
188.008
358.048
731.963
79.7505
60.9913
336.835
175.318
76.8032
317.141
52.6707
51.7678
47.256
207.019
151.718
76.2932
48.6952
102.445
502.657
202.833
46.3311
49.5536
75.9288
228.494
53.9263
141.86
726.664
980.84
855.576
80.5254
90.3965
68.5547
124.674
793.828
140.612
126.768
111.182
168.014
50.6332
44.6964
44.6449
60.6457
71.2083
230.711
74.9775
65.6816
79.2947
91.6403
165.483
510.32
500.285
80.6744
142.457
707.883
143.544
308.648
216.261
129.974
174.192
62.7819
608.668
175.782
151.969
82.7365
470.372
54.0303
77.97
66.8139
49.4116
614.582
59.456
618.769
58.4413
85.6558
65.4396
110.858
64.1544
350.985
222.595
73.8364
51.8288
47.2894
138.11
325.319
732.579
633.894
52.5871
443.911
48.3434
67.8695
344.339
74.9257
438.51
885.782
44.6211
524.355
62.8722
63.7592
50.7811
57.4996
54.0544
134.446
460.336
61.8461
336.118
131.681
421.216
60.0233
119.219
61.0923
61.5618
50.0051
708.666
262.337
47.6792
417.489
43.9348
69.0479
112.073
259.361
699.918
71.4223
125.724
237.604
148.37
179.08
79.2956
81.211
189.352
938.63
142.001
351.627
935.595
95.8751
114.23
83.6244
71.9579
897.581
47.3121
51.2794
590.432
93.4082
708.103
45.8414
45.494
46.1639
49.4637
46.8756
58.3091
63.2387
99.7666
63.6007
64.2211
79.6967
47.4261
47.5633
265.27
768.947
47.4053
805.777
134.504
93.0733
85.2266
71.9028
249.339
101.888
212.915
234.75
77.1311
602.957
57.2691
44.1097
45.2113
50.6142
172.153
79.0833
162.978
208.92
75.2567
100.294
937.723
53.5901
53.3105
839.802
999.744
223.829
469.386
615.34
326.275
597.174
335.119
432.367
149.085
296.506
200.268
160.354
882.99
749.403
784.182
257.839
83.036
978.232
432.61
345.955
85.6016
323.257
695.871
147.147
264.941
167.196
80.1703
231.311
155.377
896.908
778.062
1062.5
149.813
77.7958
677.383
441.089
616.127
56.6966
49.6709
1011.01
786.908
75.5628
63.1453
61.4208
841.898
1160.17
1088.93
50.7422
52.4779
56.6014
69.4856
49.3896
93.052
50.8669
353.775
349.677
892.398
982.911
690.172
802.256
545.319
119.021
83.6137
57.4017
214.069
213.898
85.512
48.5399
51.1021
169.216
129.484
583.77
43.7869
70.4595
121.239
94.1658
64.7763
115.226
68.8394
208.98
81.2841
629.218
579.748
67.5765
49.8022
91.5824
1048.24
723.241
935.533
85.0193
799.344
743.735
44.8089
886.64
864.749
1003.48
94.6422
47.6152
53.256
47.3134
59.1603
47.2529
50.1312
44.8561
44.5278
770.581
590.248
656.118
502.719
538.678
776.992
44.5265
44.5792
51.0213
44.962
864.974
46.5398
52.0309
58.8293
51.5625
58.4902
69.8525
63.2115
57.4835
52.083
45.3656
665.225
44.8171
45.4844
53.7711
48.2423
73.4379
91.3772
45.1776
45.2861
679.659
119.338
109.129
58.4222
46.7502
52.717
174.807
118.437
307.491
191.97
44.7072
44.8481
127.529
87.476
825.801
918.58
605.766
748.459
182.23
93.8934
89.3664
52.8142
47.1918
49.2292
50.5337
96.2786
78.1274
229.76
62.8165
225.426
57.9971
45.7015
94.7263
45.1267
46.5707
46.4798
129.559
44.6896
55.2171
124.022
45.0968
145.376
50.2113
44.501
45.8962
46.795
51.3664
60.162
458.42
58.791
209.515
80.4141
52.08
118.815
177.016
94.7007
176.846
799.945
123.34
96.8813
199.969
390.841
118.867
76.1258
335.479
901.99
90.175
137.015
713.613
86.5786
110.014
80.3332
161.84
747.376
948.988
429.051
775.597
965.349
152.345
129.202
137.153
62.2531
93.7833
65.4735
90.637
82.8507
73.6468
93.7956
76.7411
70.5009
82.1154
80.8756
174.802
122.052
163.462
279.668
49.832
47.2515
45.9649
46.6487
54.059
45.3692
46.958
51.6722
145.366
79.7439
51.9358
56.3876
73.2595
45.7753
45.2499
47.6846
47.3699
46.8631
158.021
323.987
510.262
327.613
682.709
549.859
69.296
672.873
327.588
55.4253
44.0977
595.861
477.307
67.4267
283.755
78.2189
67.2663
48.6996
46.5976
104.079
140.48
101.507
117.463
53.9453
50.7407
50.8146
224.049
97.9911
78.2804
78.8713
60.4045
1013.55
118.583
245.686
61.3241
91.0658
258.494
162.388
113.647
85.5444
70.5883
85.6357
1107.5
133.256
115.236
69.85
77.0935
813.062
572.706
887.837
564.338
340.244
47.7239
57.6276
47.5856
45.4185
155.756
200.196
45.3626
224.38
116.463
96.7973
541.495
66.644
57.914
52.8608
94.2002
104.796
162.744
538.938
135.829
65.474
373.801
142.803
60.2611
770.467
118.032
66.3584
84.4326
134.601
537.812
631.269
300.087
488.089
193.051
199.937
261.812
44.3095
43.7836
45.3807
48.0463
52.4749
45.7562
46.6686
126.258
259.478
751.487
128.837
158.805
188.603
679.781
634.687
87.0057
70.8605
51.0291
758.725
90.2468
932.654
58.0358
60.013
49.4216
77.8566
1000.01
128.894
90.7497
207.35
62.6245
73.8882
110.451
722.422
393.046
108.108
50.4446
76.8816
51.8557
81.9231
161.114
133.404
69.3719
165.2
81.1058
81.6016
151.292
71.7442
68.3326
205.953
80.7884
81.4812
284.058
51.4237
76.7356
57.8905
69.2825
67.6694
65.6443
60.9198
57.8787
70.8173
81.346
50.8505
46.4734
49.6731
58.4311
75.9531
108.416
128.49
59.2845
160.536
441.353
44.3109
45.7788
305.146
44.0394
92.8071
853.395
953.12
251.254
44.498
61.2304
63.9363
46.862
46.5971
47.6874
53.585
47.8489
57.3385
158.746
48.9483
49.9238
123.045
898.019
70.0839
397.169
142.108
106.156
150.564
97.3677
236.472
94.8762
189.858
746.087
130.887
107.645
246.528
485.492
777.459
51.5157
463.968
129.467
143.402
599.841
123.831
314.587
552.633
101.974
562.327
57.0457
47.2986
68.9549
65.6883
69.8245
74.9796
102.1
74.7934
47.445
60.6344
48.4288
305.195
129.758
275.238
53.0424
512.52
325.01
99.4795
107.53
402.461
264.131
81.1751
55.1191
66.9356
102.778
59.6564
119.07
114.816
90.8104
118.494
104.079
46.3662
61.501
60.893
59.5505
49.084
120.329
44.0664
159.135
45.9033
43.7878
186.798
51.0953
63.0108
107.948
58.8915
106.893
46.5443
60.5208
52.6455
53.5572
54.2361
60.1672
52.6179
49.9642
82.6496
116.127
98.7424
69.7746
47.0875
46.3774
45.3283
63.4561
63.4951
54.6387
51.1006
54.4332
60.2404
60.98
117.102
61.6252
93.4676
66.5343
99.1719
62.7385
84.4305
86.5745
54.6163
136.165
69.0497
62.9997
45.8288
148.25
45.9441
45.8308
81.1932
87.9548
166.123
157.011
52.915
50.1694
51.5448
46.2973
47.1109
177.505
109.617
109.276
265.294
215.786
107.447
200.131
90.7668
93.1573
154.717
72.2996
75.9858
114.46
105.816
148.418
148.485
188.078
289.606
335.287
604.168
524.73
525.453
378.238
531.126
569.815
81.388
83.6864
81.2085
520.156
180.639
141.417
171.678
130.396
167.371
123.759
81.8007
85.7409
86.1293
85.9339
116.136
96.5378
63.6839
61.3925
75.6449
71.2292
78.6988
99.2654
95.1743
116.611
60.9678
44.2071
44.737
44.1493
233.182
122.779
63.5985
128.745
72.15
112.625
65.9277
62.8407
76.9391
54.8963
318.133
228.114
246.091
114.266
225.159
136.312
282.966
244.594
386.439
316.083
489.786
584.316
81.4877
772.708
446.572
71.5081
760.694
1123.49
821.82
818.726
173.598
225.368
465.067
62.4891
92.138
73.887
442.852
99.3975
701.398
904.706
285.509
112.413
547.827
438.871
496.229