/*--------------------------------*- C++ -*----------------------------------*\
| =========                 |                                                 |
| \\      /  F ield         | OpenFOAM: The Open Source CFD Toolbox           |
|  \\    /   O peration     | Version:  2506                                  |
|   \\  /    A nd           | Website:  www.openfoam.com                      |
|    \\/     M anipulation  |                                                 |
\*---------------------------------------------------------------------------*/
FoamFile
{
    version     2.0;
    format      ascii;
    arch        "LSB;label=32;scalar=64";
    class       volVectorField;
    location    "0.0501868";
    object      U;
}
// * * * * * * * * * * * * * * * * * * * * * * * * * * * * * * * * * * * * * //

dimensions      [0 1 -1 0 0 0 0];

internalField   nonuniform List<vector> 
3926
(
(10.7643 0.236615 -0.615124)
(9.19514 0.0851775 -0.242411)
(8.74934 0.111954 -3.97991)
(4.09501 0.0204675 -4.26676)
(4.3008 0.0326998 0.64685)
(2.95914 -0.380129 -6.77035)
(5.69299 0.0777604 -11.3582)
(7.54655 -3.80208 -2.58009)
(12.1744 0.128769 -0.328724)
(0.603548 -1.81207 -2.04435)
(12.1673 0.661298 -4.14308)
(10.4569 0.311494 0.456342)
(9.25313 0.213077 0.132255)
(10.5412 0.0163493 -0.25927)
(8.64029 0.242709 -0.574774)
(9.29405 0.151394 -0.396021)
(10.8978 -0.133558 -0.712882)
(9.12804 0.329891 -0.875936)
(6.87363 0.368309 -5.10206)
(9.80642 0.0696132 0.399747)
(8.79257 0.332378 -4.15272)
(5.15378 0.723137 -4.76241)
(5.69577 0.303801 -3.7377)
(10.7412 -0.0111899 -0.32617)
(8.10989 0.262191 -2.46677)
(5.05874 0.2831 -2.35562)
(5.95468 0.14716 -3.01944)
(4.09493 -0.00396866 -3.84332)
(3.82311 -0.075445 -4.71096)
(10.8657 -0.101267 -0.25285)
(12.0273 -0.0696258 -0.0514397)
(8.1184 0.304363 -3.39298)
(12.0724 -0.0843665 -0.0225626)
(12.2002 -0.0948736 0.153898)
(12.6874 0.0449681 -1.17914)
(12.1487 -0.0820762 0.0147998)
(5.38806 -0.545013 -0.107053)
(8.2662 0.295605 -2.80548)
(8.28653 0.0566459 -0.0104167)
(10.1348 -0.134905 -0.685068)
(5.80268 -0.651769 -5.43754)
(11.3786 3.62285 -5.18013)
(11.6431 -0.125491 -1.61796)
(9.54856 0.332379 -0.863742)
(8.75841 0.0238313 -0.0749034)
(8.48877 0.00751478 -0.178569)
(11.1964 0.132133 -2.20663)
(13.2692 0.0544942 -0.824551)
(1.45347 -0.174275 -6.32555)
(7.81419 0.165187 -2.37398)
(7.70395 -0.167923 -3.66199)
(6.33739 1.69238 -2.02101)
(1.25098 0.01291 -0.0299197)
(9.63365 -0.708244 -11.3345)
(7.94252 0.108167 0.0694531)
(11.1701 0.0575799 -2.39257)
(7.61797 0.434869 0.334747)
(1.94275 -0.64517 2.67361)
(8.57461 0.166016 -3.7658)
(1.06338 -0.283194 5.57648)
(9.49741 0.0511643 -1.32359)
(13.4517 0.597886 -2.38813)
(7.13198 -0.752565 -0.0918069)
(6.44865 0.247169 -0.972766)
(12.963 0.342629 -5.18559)
(13.2397 0.339592 -5.88794)
(13.5013 -0.292453 -4.38048)
(13.4588 0.0884064 -4.16599)
(9.7984 0.00821692 0.839977)
(13.0271 -0.633304 -6.68729)
(9.78458 -0.0802667 8.26039)
(8.97019 0.304561 -0.0457141)
(9.61057 -0.0767496 0.955429)
(9.6798 0.0434747 -0.13843)
(12.2551 0.0916764 -0.57742)
(-0.351147 -0.671503 2.22708)
(11.9224 0.125085 -1.12682)
(3.98481 0.182636 -5.05114)
(6.28304 -0.00694518 1.88205)
(8.71503 0.314622 -0.681912)
(3.97791 -0.072445 0.690325)
(8.02552 0.148038 -2.87933)
(12.8893 -0.0526578 -6.53555)
(2.26815 -0.245753 0.634415)
(9.7308 -0.154979 0.112831)
(9.86251 -0.563232 2.67668)
(9.70648 -0.022642 1.08992)
(9.73138 -0.145154 0.0164628)
(12.8561 -0.746949 -3.48964)
(8.3211 -0.146437 0.640821)
(8.82065 0.195845 -0.826588)
(7.31243 0.240946 -2.67759)
(7.88987 0.0988 -4.43969)
(11.5606 -0.0751522 0.00153353)
(10.392 -0.00101578 -2.43956)
(10.138 -0.623409 -3.30617)
(11.1335 0.142707 -1.39189)
(12.7506 0.0690092 -0.938648)
(1.87016 -0.430659 -3.54629)
(12.7778 0.168455 -1.72447)
(13.2743 0.791926 -3.91898)
(7.11718 0.27678 1.72279)
(11.1182 0.116807 -3.89388)
(7.24278 0.0591401 -2.67769)
(9.66991 0.681611 -6.28627)
(7.76948 0.474549 -6.56226)
(7.8896 0.291638 -2.96521)
(9.51409 0.0564364 2.24766)
(8.2593 0.246988 -2.67756)
(9.23454 0.2651 1.92764)
(8.0544 0.0932266 -4.32568)
(7.8896 0.286142 -2.61743)
(7.37795 0.512351 -0.627522)
(7.57259 0.288036 -2.35778)
(9.16067 0.149244 -0.728027)
(1.27544 -0.0555454 -1.32498)
(4.72658 0.42873 -3.25831)
(9.22529 0.275549 -0.309465)
(6.98465 0.0193682 -8.72304)
(2.53627 0.0447871 -6.82189)
(9.93616 0.232046 -0.657565)
(9.87091 0.224274 -0.608739)
(8.70366 0.388697 -0.85455)
(7.8373 0.226467 -4.10954)
(8.85954 0.365491 -2.22091)
(8.60512 0.225058 -3.26455)
(13.3352 0.480039 -1.93567)
(7.60096 0.587353 1.27835)
(10.8926 0.354412 -5.92801)
(8.59384 0.00327176 -3.97126)
(9.15212 0.328048 -3.10933)
(9.85996 0.257169 -3.00925)
(10.8874 0.134017 -2.44154)
(11.6403 0.156595 -2.09744)
(0.91957 0.363894 -5.8773)
(0.885891 -0.0272614 -6.78052)
(1.71275 0.371811 -7.24057)
(7.72602 -0.719438 -8.45856)
(5.07824 0.81797 -8.26379)
(5.01798 0.150797 -2.12481)
(9.94087 0.128277 0.494937)
(8.82965 0.230134 0.442669)
(6.03519 -0.028778 -2.40447)
(5.59541 -0.152668 -3.32063)
(8.05018 0.533724 1.89893)
(3.91948 -0.0957239 -3.77426)
(5.81344 0.257007 -0.572792)
(6.74038 -0.116134 -4.89511)
(7.7291 -0.0312684 -2.56235)
(7.06378 0.0811429 -2.61461)
(5.82661 0.666052 -2.34502)
(5.79505 -0.166006 -3.09632)
(6.34929 -0.0693401 -2.02029)
(4.9696 -0.309283 -2.95393)
(4.34623 -0.2371 -4.14413)
(5.00432 -0.118706 -4.90935)
(6.86183 0.342548 -2.40448)
(4.03194 -0.652994 -4.84755)
(4.16935 -0.394647 -3.15231)
(3.99254 -0.460081 -3.87106)
(12.4429 0.0881116 -2.66369)
(8.76535 -0.267556 -2.00491)
(7.38414 0.291477 -2.39503)
(1.99783 0.350691 -1.04099)
(2.60287 0.024023 -5.5642)
(6.67839 0.170806 -0.741246)
(7.84931 0.17678 0.697706)
(9.09169 0.0570122 0.0445876)
(10.9174 0.193664 -1.44838)
(4.84357 0.375307 -4.66894)
(10.5634 -2.90796 -3.54981)
(12.3403 -0.146614 -0.434789)
(9.1581 0.215617 -1.25164)
(8.52431 0.422215 -0.150052)
(10.1516 0.265013 -3.02184)
(12.8274 0.209592 -1.85468)
(7.87398 -0.0755478 -2.37862)
(2.21989 -0.0345488 -3.87359)
(6.2235 0.249079 -4.65139)
(9.18927 0.240271 -2.89159)
(0.473436 -0.259712 -3.49513)
(10.3273 0.180425 -0.542527)
(0.807086 -0.592171 1.03889)
(10.2344 0.19719 0.56101)
(9.43192 0.262399 -0.225339)
(9.88414 0.314826 -3.81732)
(11.671 0.0974678 -3.19957)
(7.59712 -0.196674 0.735851)
(6.58778 0.17753 -2.76349)
(7.27446 0.261189 -2.99195)
(3.27034 0.369088 -6.29755)
(8.14699 0.215939 -2.853)
(3.95855 0.469501 -5.16494)
(9.34715 0.282597 -2.27986)
(8.602 0.118536 -2.15246)
(8.72066 0.430877 -0.228358)
(10.8286 0.215321 -1.63307)
(7.54899 0.274058 0.348229)
(9.49572 0.276904 2.34812)
(5.19613 0.286314 -11.7656)
(6.13483 -0.171586 -0.46083)
(9.37196 1.17969 -9.25522)
(2.68513 -0.711244 2.63357)
(9.54871 0.254253 -2.77788)
(9.03655 0.258254 -2.23897)
(6.43921 0.534579 -4.62748)
(8.15932 0.29491 -0.661652)
(1.23842 0.044179 -3.14542)
(10.6192 -0.307045 -3.0089)
(9.52493 0.191551 -0.506799)
(9.30681 0.159014 -0.275999)
(8.76278 0.332405 -1.79851)
(5.60761 0.190754 -2.31806)
(12.1379 -0.0567761 0.102013)
(8.90751 0.154154 -1.08005)
(3.6449 0.0291002 -1.58456)
(7.89455 0.0621589 1.13827)
(6.87212 -0.0125478 -3.08367)
(7.61841 0.230351 -3.40533)
(6.49172 0.117015 -3.00994)
(10.7833 0.116977 -1.37534)
(12.8329 0.0348729 -2.64866)
(11.6425 -0.0932703 -0.988974)
(8.9879 -0.144611 0.853021)
(12.5915 0.0686648 -0.619398)
(1.4034 0.0767033 -2.97087)
(1.47652 0.0755643 -5.67319)
(9.50313 0.111139 -3.77767)
(9.01122 -0.114057 0.429984)
(12.394 0.204631 -1.41824)
(11.0902 0.349648 -1.18443)
(3.67733 -0.303034 1.67235)
(10.7663 -0.338965 0.52964)
(8.53585 -0.0969741 1.53256)
(11.4251 -0.250284 -3.45269)
(5.71024 0.158639 -0.744267)
(12.7429 -0.113964 -0.78734)
(4.21832 -0.010783 -2.89852)
(9.94193 -0.101482 -0.476921)
(10.565 0.329812 -3.56339)
(6.81844 0.167082 0.00614728)
(10.9368 0.259786 -2.00607)
(11.6371 -0.139387 -0.0947901)
(2.2676 -0.164962 -1.90715)
(9.44617 0.25481 -0.169535)
(7.13575 0.501872 2.46612)
(1.06972 0.0752241 -6.38015)
(9.91304 0.358349 -3.29276)
(8.45842 0.429232 0.387024)
(8.06101 2.01698 -4.1558)
(4.01294 -0.527134 -8.16557)
(1.51718 0.615579 -5.72554)
(6.57761 0.61292 -0.890967)
(11.7637 0.508716 -4.90598)
(11.6602 -0.235145 -1.62751)
(0.79025 -0.22709 -0.21002)
(7.45548 0.0620041 0.272729)
(11.5636 0.279817 -2.96021)
(10.2956 0.429961 -5.37029)
(6.70722 1.00865 -12.2755)
(7.06434 -0.363265 -9.0889)
(1.63445 -0.233057 -5.97791)
(7.35749 0.160342 -2.16828)
(2.6016 -0.349539 -2.7475)
(2.04761 -0.718389 -4.64402)
(12.6343 0.0628981 -0.498097)
(9.43431 0.187536 0.534351)
(6.08015 0.180885 -1.89613)
(5.79888 -0.160366 -0.811579)
(5.9761 0.0342902 -0.112711)
(2.09183 0.0668058 -5.40694)
(13.2208 -0.11235 -7.52452)
(10.4091 0.0748123 -1.29373)
(12.9483 0.126269 -1.60231)
(9.80122 0.18003 -3.03627)
(8.1801 0.231954 -4.73441)
(9.28415 0.101684 -0.857117)
(10.1926 0.318685 -3.85598)
(8.53987 0.293606 0.266322)
(9.38922 -0.036321 -1.00992)
(4.26737 -0.0439885 8.39788)
(5.96422 0.178472 -0.254535)
(10.5874 -0.0730643 -0.380718)
(7.41066 -0.217247 0.284051)
(12.5224 -0.168321 0.467934)
(10.075 -0.285168 1.11586)
(13.0969 -0.168115 -3.90531)
(13.3202 -0.342545 -2.48053)
(5.44623 -0.292439 0.153997)
(10.3689 -0.0623161 -5.95556)
(7.02264 -0.0333998 -4.7371)
(9.18059 -0.129737 -0.293943)
(7.69689 -0.142719 -1.4754)
(13.9035 -0.195243 -2.30111)
(9.37057 -0.179329 0.0361817)
(5.10081 -0.0178238 -2.70233)
(10.0608 -0.0680055 -2.02643)
(9.86265 0.249244 -3.70458)
(10.0855 -0.0981186 -3.06499)
(0.937879 0.0327954 -2.73495)
(6.28556 1.57756 -0.915502)
(6.19864 -0.299488 -4.567)
(7.30096 0.024349 -0.810593)
(7.58905 0.0685918 -4.10085)
(8.17325 -0.343209 1.91042)
(13.7328 -0.223719 -2.99276)
(11.7001 1.67736 -4.61583)
(12.9441 -0.0450195 -0.617762)
(8.95424 -0.044784 -1.76105)
(7.75602 -0.113688 -8.60235)
(13.3374 -0.696107 -5.5676)
(9.24463 -0.673739 5.15828)
(3.32438 -0.122826 -3.64779)
(9.56649 0.192714 1.44041)
(12.7144 -0.307701 -2.24713)
(12.645 -0.0412534 -0.061091)
(7.13611 0.0881309 -1.7365)
(10.0111 -0.0357534 -0.653773)
(5.80212 0.0310294 -4.67056)
(12.9361 -0.031903 -0.494425)
(13.6908 -0.257803 -1.07432)
(9.45536 -0.240046 -1.17853)
(3.06545 -0.487593 -11.8158)
(3.46407 -0.233771 -1.96146)
(4.51818 -0.381381 -4.21854)
(8.56193 0.0498903 -2.88962)
(13.145 -0.37995 -1.60256)
(4.14385 -0.226848 -1.16397)
(9.26771 -0.765343 -0.479749)
(11.3133 -0.0584904 -1.73255)
(4.8712 -0.202282 -2.36237)
(8.05094 -0.110055 -0.927641)
(9.61753 -0.170744 -0.405989)
(9.10706 0.0168145 -0.380124)
(9.47838 -0.0605958 1.03049)
(9.27159 0.014026 -0.186845)
(7.02341 0.363584 -3.57766)
(0.624363 0.234564 -0.639056)
(1.18723 0.416366 -0.310638)
(0.172361 0.525309 -0.389994)
(2.35876 -0.684322 0.819067)
(0.757731 0.403843 -0.347411)
(12.9915 -0.0371814 -0.29722)
(9.21334 -0.179874 -0.628829)
(9.36662 -0.0508892 -2.60449)
(10.1624 0.163308 -0.326902)
(1.5263 -0.00586227 -0.123228)
(2.6594 -0.406386 1.83822)
(1.74578 0.484154 3.67541)
(0.222284 0.133116 0.624754)
(0.0824729 -0.249291 5.58744)
(0.230447 1.53855 1.08674)
(0.0309054 1.26709 0.0863547)
(-0.270031 0.283985 0.495244)
(6.15288 0.0849553 0.735005)
(6.88035 0.00375155 0.664281)
(6.66905 0.371939 0.568326)
(4.01941 -0.244106 0.380123)
(12.3331 -0.0254322 0.112739)
(8.99951 -0.251385 0.763625)
(9.1788 -0.321965 -2.59166)
(9.45662 -0.0831882 -0.12859)
(13.4829 -0.381433 -0.550441)
(13.2007 -0.195082 -0.679218)
(13.0805 -0.483671 -1.50695)
(9.21089 0.289548 -5.27183)
(12.5323 0.119727 -2.183)
(8.61657 -0.0596322 1.66981)
(8.45806 -0.329914 4.44881)
(11.3432 0.109228 -0.669485)
(11.227 -0.129904 -0.368212)
(9.3389 -0.211766 -0.85723)
(3.91466 0.837616 -6.65279)
(8.13991 0.166569 -1.03329)
(13.711 0.572389 -2.64062)
(9.50396 -0.0606479 -2.93372)
(5.11921 0.0906045 -0.469555)
(7.71566 0.0902463 1.3102)
(2.37887 0.210204 -3.84492)
(5.90084 -0.0218161 0.813551)
(9.0627 -0.267143 -1.02073)
(13.1249 -0.126815 -1.62663)
(5.89148 0.250109 -2.56305)
(4.44926 0.70019 -2.32443)
(8.88526 0.577335 2.3287)
(8.97209 0.105658 1.88033)
(11.3394 0.112984 -4.84824)
(12.8555 0.213542 -0.00976825)
(12.95 -0.183459 -1.49365)
(12.7884 0.035012 -0.274266)
(5.64875 0.0768557 -0.685612)
(9.06624 0.174144 2.13019)
(8.7826 -0.162446 -0.61558)
(12.5172 0.128969 -2.90489)
(9.50491 0.178747 3.28481)
(12.7745 -0.265573 -0.99206)
(7.95723 0.48125 -4.11319)
(9.23307 0.295115 -0.0261098)
(6.55159 -0.0116747 2.11488)
(9.72074 0.00964357 -0.112209)
(10.4796 0.227949 -0.65824)
(11.9751 -0.0691381 -0.731413)
(7.87559 0.318272 -1.73485)
(9.6869 0.26802 -1.94283)
(6.42649 0.349911 -3.6828)
(5.88032 0.339978 -2.41895)
(8.3104 0.183879 -3.72312)
(9.3339 -0.0953926 -0.89977)
(12.677 -0.103718 0.33345)
(9.77951 0.0131374 -0.0431843)
(8.16826 0.485659 -0.0685281)
(10.3419 0.264053 -10.1974)
(3.95208 -0.0124994 2.41895)
(4.72719 -0.293929 -2.24338)
(7.67375 0.0139651 2.45078)
(6.80622 0.08757 0.682047)
(8.75139 0.0948435 -3.0656)
(6.55922 -0.313201 0.467639)
(7.4302 0.0383023 -1.43076)
(9.51273 -0.000744482 -0.298797)
(8.60103 -0.303389 0.914792)
(10.2591 -0.0701817 0.396242)
(10.0254 0.362822 -3.85666)
(7.83975 0.322545 -4.40905)
(6.48916 0.13714 0.453015)
(9.1778 -0.160331 1.16768)
(6.70044 -0.415055 -1.52169)
(9.13274 -0.247704 0.588612)
(9.8649 -0.268944 0.180305)
(9.85121 -0.217022 0.0406571)
(6.06006 0.349037 -2.06128)
(9.88552 0.320023 0.230495)
(13.4691 0.161799 -1.40832)
(12.1765 0.0784763 -2.0666)
(9.01528 0.150511 -0.53293)
(8.69711 0.157918 -0.899127)
(5.87027 0.280602 -0.0405758)
(9.62544 -0.128574 0.701991)
(6.43513 -0.335626 0.343742)
(8.87169 0.150453 -1.37145)
(8.38838 0.20332 -2.4264)
(10.6123 0.835953 -12.3462)
(1.27282 -0.533328 -4.62758)
(10.5129 0.102187 -0.567932)
(10.2295 -0.441318 -6.02773)
(11.1061 0.70165 -13.7845)
(4.71545 0.301759 -4.75718)
(10.6143 -0.151681 0.449013)
(9.16273 0.322788 1.57562)
(9.3792 0.1378 -0.198938)
(3.28892 0.276146 -0.0112793)
(11.1454 0.264284 -3.08695)
(9.86341 -0.285452 0.0875386)
(3.86937 0.646009 -7.94811)
(10.3497 -0.0957842 -0.351707)
(13.4264 -0.217705 -3.43095)
(13.0203 -0.242856 -3.71128)
(12.5668 -0.00510801 0.327127)
(12.5969 -0.075566 0.100341)
(12.0471 -0.0875881 0.0762125)
(10.1119 0.195283 0.280173)
(4.77826 -0.105359 -3.36987)
(9.90444 0.242139 0.128919)
(8.70452 -0.264723 -1.75589)
(9.68343 -0.0319285 3.10991)
(8.23021 0.121585 -0.475786)
(10.7259 -0.309994 -2.2834)
(11.5505 -0.0429201 -9.98579)
(11.5544 -0.170663 -2.8176)
(11.3074 -0.168804 -0.999411)
(10.9608 -0.226968 -0.373039)
(10.8537 -0.182973 -1.30505)
(9.71979 -0.179452 -0.528384)
(9.7542 -0.180008 -0.640852)
(12.1379 -0.423001 -3.68706)
(10.8261 -0.213722 -4.78954)
(11.5309 -0.139488 -2.51248)
(9.91797 -0.184231 -5.22404)
(9.61128 0.405592 -1.02136)
(7.55283 -0.640182 4.67089)
(6.75344 0.212018 4.09117)
(13.1721 0.157651 -0.716255)
(9.05693 0.25321 0.22706)
(7.0342 0.673038 0.642718)
(9.55888 0.241114 -0.221183)
(12.1967 0.29448 -0.863877)
(7.16171 -0.902114 6.63961)
(5.12038 0.747345 -3.97059)
(10.3336 0.0508112 -4.24881)
(10.8145 -0.0711559 -11.4278)
(6.35397 0.13673 -1.47986)
(6.85275 0.128742 -4.87162)
(12.8519 0.16501 -4.39146)
(12.7082 0.812796 -7.83416)
(13.0978 -0.168303 -0.444916)
(12.9828 -0.058703 0.230254)
(12.8931 -0.0956768 0.198151)
(13.0361 0.0882988 -1.20407)
(11.9506 -0.0428105 -4.86474)
(13.1907 -0.561841 -5.11624)
(11.9864 -0.212116 -3.62585)
(13.2345 -0.28367 -3.25304)
(8.79045 0.490464 -3.9596)
(8.02217 -0.0757722 -4.45102)
(8.13675 -0.0376993 -5.29793)
(6.65177 -0.013839 1.05796)
(8.03126 0.115585 -1.71466)
(12.5063 0.0504088 -3.32032)
(8.98456 -0.24014 -0.914829)
(12.2616 0.123139 -0.0725001)
(4.27614 -0.130542 -1.66571)
(8.46128 -0.518491 -1.23417)
(4.84688 -0.891036 0.309145)
(5.65015 -0.0660554 -2.05544)
(5.00237 0.125015 -4.47327)
(3.91582 0.210434 -5.48523)
(5.79629 0.349987 -8.77638)
(4.96162 -0.388362 -4.49187)
(11.0834 0.738307 -8.80024)
(9.42814 0.0816944 0.497276)
(6.24586 -0.670531 0.755159)
(2.81022 0.251852 -7.87814)
(0.108161 0.239206 -0.0170265)
(5.81418 -0.591646 -6.33428)
(1.55984 0.340854 -7.12188)
(5.40413 0.517081 -0.338694)
(6.85961 -0.127515 -3.92948)
(1.67408 -0.284913 -0.847544)
(1.48585 -0.0191271 -2.74343)
(7.28377 -0.0910246 -4.24782)
(9.06734 -0.235724 -1.16299)
(8.68439 0.104496 -1.07064)
(9.1862 0.142354 -2.81599)
(9.41527 -0.0290279 -0.211316)
(13.2249 -0.161016 -1.93704)
(13.2981 -0.360322 -1.99647)
(13.364 -0.602516 -5.70083)
(11.6585 -0.199206 -3.56043)
(11.7571 -0.0745354 -0.329298)
(11.6972 -0.110779 -0.669079)
(11.8185 -0.120245 -0.370818)
(12.9988 -0.0925327 -0.532227)
(7.2967 0.181652 -0.809818)
(9.19271 0.333712 -1.48737)
(7.37693 -0.0611932 -0.205519)
(12.8067 0.0808907 -1.08359)
(12.5627 -0.38342 -0.297741)
(12.3192 -0.0451446 -0.397504)
(12.4302 -0.0707269 -0.225772)
(12.2795 -0.0358085 -0.23132)
(12.3086 -0.0444269 -0.104155)
(12.4437 -0.143782 0.586149)
(12.169 0.267098 -6.1367)
(9.10392 0.117721 0.799642)
(8.91859 -0.270493 0.974058)
(1.93811 -0.0770021 2.56856)
(9.12855 0.399155 -4.97833)
(6.89054 0.402598 -5.72861)
(5.40241 0.0567092 -5.57801)
(7.36542 0.199757 -3.32885)
(12.6559 0.0820519 -1.87431)
(4.54 0.166273 -1.60066)
(10.4028 -0.0131337 -0.951834)
(10.1975 0.0467128 -1.1908)
(11.2745 -0.050253 -1.81501)
(11.5157 -0.110908 -2.05158)
(13.7742 0.0919642 -4.03383)
(13.6957 0.0390634 -5.34345)
(13.8583 0.191195 -3.18029)
(8.21996 -0.813205 -1.08645)
(8.13868 0.0616861 -1.88149)
(8.97779 -0.0188486 -1.98302)
(9.67481 0.0819885 -1.67697)
(9.87703 0.0780916 -1.48715)
(9.71864 0.0411132 -1.37429)
(13.639 -0.0589143 -0.661637)
(11.1714 -0.124512 -4.27481)
(10.9079 -0.120522 -3.6659)
(12.6372 -0.776887 -2.5826)
(10.1192 -0.167033 -1.1903)
(1.92525 -0.398675 -4.12881)
(11.7753 -0.233475 -2.50717)
(8.64704 -0.248891 -4.46627)
(8.59462 -0.234369 -1.84646)
(5.61871 0.160842 -2.57093)
(4.05747 -0.00792517 -1.86176)
(4.34127 -0.0039855 -7.9589)
(8.80656 -0.196969 -1.84806)
(8.86317 -0.205888 -1.40624)
(8.81276 -0.157848 -1.66764)
(2.96506 0.288025 -3.34745)
(12.2968 0.0533664 -0.444702)
(13.4299 0.256981 -3.1452)
(7.47042 0.355348 0.120215)
(4.38547 0.876216 -8.20941)
(8.69552 0.0903212 0.141613)
(11.18 0.458068 -5.24442)
(6.75695 0.564679 -8.70342)
(10.2173 0.36768 -6.86328)
(2.81478 -0.095848 -3.26741)
(7.35727 0.326628 -4.84274)
(7.73769 0.12124 2.01679)
(7.55102 -0.174803 2.5514)
(7.8678 0.1163 1.53573)
(9.23927 0.175356 -0.336015)
(9.61085 0.0716392 -0.0661629)
(7.50802 0.121966 1.91465)
(6.50488 0.21318 -5.84346)
(5.41829 -0.0662416 -4.04554)
(3.79078 -0.393985 -6.17181)
(3.34731 -0.390612 -5.04116)
(6.4166 -0.37153 -3.8832)
(3.82932 -0.339379 -3.99473)
(7.56018 0.0580352 0.279737)
(8.4817 0.213266 -0.147812)
(8.18314 0.204205 -0.127747)
(9.15052 -0.202839 0.245424)
(9.96707 -0.247345 0.270639)
(9.09759 -0.15824 0.297572)
(9.35599 0.213851 -0.75304)
(9.49428 0.246399 -1.0057)
(9.44897 0.216299 -4.98916)
(10.3883 0.11376 -4.1398)
(11.6207 0.126855 -2.46996)
(13.006 -0.407946 -1.7931)
(13.0472 -0.0960352 -0.95755)
(13.2885 -0.158959 -0.90367)
(9.31977 -0.0757788 -2.35449)
(10.0203 0.0264124 -3.0076)
(10.0834 0.190928 -1.17711)
(8.6021 -0.202458 -1.53757)
(8.44015 -0.106566 -2.7514)
(9.33293 -0.0326514 -1.33166)
(9.92156 -0.0637158 -1.86794)
(4.38679 -0.127996 -4.15436)
(9.67626 -0.117986 -1.46776)
(8.60481 -0.186954 -1.25161)
(13.3044 -0.00844041 -0.0563813)
(13.3994 0.0491052 -0.325753)
(13.5446 -0.13404 -3.23739)
(12.9093 0.0198579 -2.46463)
(9.89701 0.150011 0.232339)
(11.9982 0.101931 -1.49171)
(5.43802 0.402618 -1.93614)
(10.1535 -0.127806 0.810328)
(7.44226 0.100166 -2.64126)
(8.3839 0.216146 -3.30388)
(5.89962 0.325557 -2.7183)
(7.72392 0.408667 -3.90431)
(6.62748 0.0709265 -3.79213)
(8.09064 0.446298 -0.565069)
(8.37245 0.0385147 -3.92415)
(7.50532 0.161991 -3.31531)
(6.01603 0.439145 -0.149444)
(9.0673 0.428113 -1.56394)
(4.58707 -0.15153 -1.56948)
(11.745 0.198656 -0.612567)
(11.6908 0.204052 -0.90049)
(11.9906 0.171039 -0.647539)
(3.84809 -0.135984 -2.25355)
(3.35321 0.134484 -2.65845)
(10.5195 -0.171971 1.23213)
(10.205 -0.0556423 1.99322)
(10.9376 -0.227496 1.16828)
(4.91293 -0.151625 -0.968594)
(9.58872 0.272203 -4.09251)
(9.0354 0.211883 -3.45871)
(10.7249 1.35946 -8.37766)
(8.02312 0.327019 -3.77561)
(10.6207 -0.013853 2.0436)
(6.23064 -0.24203 -1.91841)
(9.07607 -0.229435 -0.0231022)
(9.1742 0.0239852 0.336617)
(6.45579 -0.219305 -1.3511)
(10.8085 0.238623 -2.72808)
(11.8689 0.131016 -2.68499)
(9.27225 0.310115 -5.17533)
(5.98952 0.188922 0.828712)
(6.82661 0.283946 0.00655812)
(5.82926 -0.00984243 2.90537)
(7.72478 0.0658341 0.370332)
(7.1701 0.108774 0.47317)
(5.44563 0.185482 0.560877)
(2.23814 0.648338 3.40618)
(4.39085 -0.0213594 0.469416)
(8.36423 0.141 -2.08117)
(8.28049 0.210737 -0.2314)
(8.66605 0.0868059 -0.729508)
(9.44127 -0.226279 -0.0215034)
(9.50437 0.0489251 0.0706123)
(6.39506 -0.27539 3.21544)
(6.94715 0.274519 -3.23069)
(7.394 0.933042 -6.30321)
(5.31 0.410923 -2.29397)
(6.56479 0.109344 -3.07848)
(9.04303 0.243762 -0.756837)
(8.99238 0.246805 -0.574683)
(9.00745 0.208482 -0.558102)
(12.0179 -0.0812798 -0.0630427)
(10.8746 0.366357 -1.28887)
(10.4949 0.292266 -1.42663)
(10.748 0.224446 -1.56962)
(10.6258 0.259518 -0.845289)
(8.69246 0.30901 -1.68384)
(9.96819 0.332567 -1.6431)
(8.97463 -0.021668 -1.40975)
(10.6179 -0.140775 -1.43848)
(10.7546 0.142707 -3.62088)
(10.3718 -0.559364 -5.28053)
(11.3293 -0.103349 -0.305224)
(9.60433 0.101382 -0.94049)
(9.72962 0.125986 -1.41096)
(9.39881 0.173063 -1.10484)
(9.58036 0.0711875 -1.72594)
(9.23848 0.013412 -0.368304)
(7.61844 0.28962 -1.25665)
(7.99659 0.461498 -0.273222)
(4.80001 0.340721 -0.556189)
(4.1321 0.519662 -0.856708)
(4.33178 0.556218 -1.52716)
(7.35956 0.249543 0.239508)
(7.23287 0.456836 -0.830853)
(8.06189 0.290838 -0.375582)
(7.54554 0.552454 0.357332)
(8.287 0.39335 -0.379421)
(8.42398 0.406007 -0.434155)
(9.28476 0.23949 -0.22326)
(9.16354 0.131459 -0.405354)
(9.46527 0.0871823 -0.106367)
(6.39029 0.231931 -1.91489)
(9.56322 -0.0781905 -0.537678)
(11.3586 0.112687 -1.49665)
(9.64286 0.0816177 3.40702)
(7.80941 0.433056 1.03362)
(9.89551 0.073984 -0.830747)
(6.72294 -0.091385 -3.23914)
(11.123 0.273398 -1.595)
(10.2116 0.229766 0.581978)
(9.37743 0.0993844 1.09441)
(9.19447 0.34056 -1.18617)
(9.50116 0.248216 1.05855)
(9.7025 0.100961 0.943227)
(2.41886 0.375406 -0.155217)
(9.86846 0.0716745 1.22086)
(8.99367 0.0791658 1.24567)
(8.99109 0.141769 1.73526)
(9.77939 0.439359 -0.657825)
(9.6217 0.412018 -0.753296)
(9.682 0.423787 -0.930475)
(9.55205 -0.0603318 -0.0819992)
(9.21471 -0.0180383 0.0640034)
(9.259 0.0609734 -0.0751686)
(9.25949 0.0641867 -0.158014)
(9.33989 0.072812 -0.119279)
(12.0456 0.279395 -1.06664)
(12.1093 0.20499 -0.58922)
(5.71379 0.150143 0.303078)
(5.41216 0.254758 1.74695)
(11.7741 -0.0768172 -0.0881823)
(11.5157 0.197797 -1.93431)
(8.75343 0.0968952 -0.323959)
(11.5378 0.2132 -1.85888)
(11.2908 0.226784 -0.832273)
(8.04841 0.263264 -2.29791)
(4.24107 0.285617 -4.77789)
(7.98283 0.246421 -3.11078)
(4.69677 0.454272 -6.31469)
(10.8415 0.418302 -5.48923)
(7.32699 0.389854 -2.76017)
(5.20197 -0.798112 0.187902)
(9.11109 0.0634487 0.503436)
(8.61639 0.358104 0.0491589)
(5.96642 -0.200493 0.312095)
(11.127 -0.033125 -0.293453)
(8.6219 0.0727979 -0.18318)
(13.7137 -0.137836 -1.58611)
(2.31168 -0.335909 -0.535736)
(8.86102 0.271179 -0.73571)
(8.66264 0.166107 -0.38968)
(5.80513 0.29511 0.948546)
(9.89467 0.243132 -0.257977)
(12.9942 0.011705 -5.35265)
(6.63759 -0.255434 -3.03993)
(6.25057 -0.189047 -1.31832)
(9.35765 0.264152 0.198951)
(8.83366 0.431107 -0.494537)
(8.64064 0.299171 0.737872)
(9.16209 0.275152 -1.6777)
(10.8834 0.11674 -0.403568)
(9.78668 0.303549 -0.85897)
(10.0021 0.365604 -1.84019)
(9.43569 0.26448 -0.606443)
(9.363 0.206314 -0.882419)
(12.4302 -0.168656 -4.39549)
(12.7855 -0.0593045 -0.759105)
(11.0858 0.229745 -1.56434)
(12.5949 0.117985 -0.36993)
(9.16959 -0.0779905 -0.417225)
(7.9852 -0.0451013 -1.65823)
(7.02911 0.144198 -3.14535)
(11.2905 -0.0651187 -0.149174)
(11.9768 0.0974353 -0.811903)
(8.80207 0.293274 0.661718)
(10.599 0.200587 -1.63298)
(8.55709 0.332284 -3.78035)
(2.48268 0.177144 -12.8592)
(6.03214 0.0844701 -0.299308)
(12.8278 -0.0677317 -1.67575)
(11.0799 0.0389844 -0.990062)
(6.30529 0.425559 -1.12711)
(9.69831 0.375332 -1.17627)
(13.0656 -0.113554 -0.21981)
(10.201 0.413609 -2.13898)
(9.72539 -0.0297589 -0.637158)
(9.69364 0.282116 -4.00412)
(9.5208 0.238974 -1.19807)
(9.25052 0.245295 0.284597)
(7.98155 -0.0698588 -0.0310263)
(9.79582 0.108365 2.31606)
(7.88462 0.0334172 1.04554)
(3.78068 0.232829 -4.31111)
(3.78235 0.553661 -1.68533)
(12.4362 0.981326 -7.99167)
(9.98733 -0.241372 0.182453)
(7.08608 0.159327 3.09838)
(8.35737 0.0264138 -2.17518)
(12.1057 -0.0490098 -0.525175)
(11.5861 -3.04791 -5.40769)
(13.3707 0.218713 -2.51758)
(7.32762 -0.494585 -0.104016)
(9.24483 0.119301 -0.32852)
(9.40754 0.10996 -0.215206)
(7.20882 -0.232632 0.108027)
(0.401239 -0.371004 -0.581673)
(2.55459 0.0922027 -1.76567)
(8.43515 -0.030901 -3.41984)
(9.33542 0.0852914 -0.261728)
(11.2305 -0.00257458 -1.16573)
(9.29596 0.0744608 -0.307593)
(5.28924 0.661019 -12.7077)
(8.14242 0.3234 -1.68202)
(9.66556 0.0980809 -0.130338)
(12.7058 0.173123 -0.736453)
(8.98257 0.419718 -2.78688)
(9.94806 0.121714 -1.55206)
(9.79249 0.135064 -0.0204318)
(12.9741 -0.215056 -3.62977)
(10.6514 -0.111954 -0.403336)
(12.656 0.134904 -1.87672)
(13.3715 0.0348863 -1.84228)
(10.8617 0.0571259 -1.41811)
(13.5493 -0.213798 -5.46881)
(12.8262 -0.0947579 -0.07921)
(7.85371 0.365539 0.402452)
(9.27183 -0.691096 -9.04524)
(4.98904 0.539148 -5.62849)
(8.02123 0.330422 -1.4342)
(1.77533 -0.432694 -3.46793)
(1.00006 -0.287475 -4.73776)
(8.78658 0.110708 -1.57417)
(1.72792 0.86311 -7.51718)
(8.71141 0.32022 -0.819398)
(9.40804 0.148395 -1.20332)
(10.1757 0.170913 -2.10807)
(6.27932 0.550087 -4.40605)
(6.77032 -0.0825031 -0.276696)
(7.45862 0.0711636 2.05938)
(8.37433 0.256719 -0.139926)
(10.7328 0.908058 -2.05742)
(2.37873 0.602495 -7.18946)
(0.893936 -0.254897 -3.33587)
(4.78008 0.208835 -2.54931)
(1.10464 0.512523 -3.51116)
(11.2663 0.114474 -4.05789)
(8.26481 0.158196 -0.997206)
(9.41421 0.114327 -3.90577)
(9.25989 0.0888153 -2.68247)
(7.95554 0.215833 -2.0255)
(13.8763 0.0781595 -2.904)
(6.39786 -0.128355 -4.7684)
(2.35356 -0.0397562 -3.7959)
(8.91493 0.109353 1.57799)
(8.3447 0.00885738 -0.279117)
(12.3555 -0.330394 -3.54376)
(12.5785 0.189999 -1.0857)
(6.74619 -0.0679596 -3.7873)
(11.4967 0.118259 0.155616)
(6.2458 -0.364394 -0.752081)
(9.47933 0.304309 -3.66924)
(10.2145 -0.0769616 -0.273632)
(9.86269 0.14022 -0.0777648)
(9.53025 0.162174 -0.399567)
(11.3488 0.122734 -1.50494)
(9.85069 0.205319 -0.163612)
(13.4944 0.311349 -1.93796)
(9.25362 -0.0817494 0.324585)
(9.4334 -0.0253052 8.65172)
(7.73382 0.131598 -1.40777)
(9.30409 0.00829676 -0.532245)
(12.7027 0.108508 -1.93526)
(6.75995 1.23183 3.93022)
(0.736708 0.237027 -5.0263)
(8.77735 0.0760259 -5.05943)
(5.67264 -0.142429 0.0761198)
(13.1037 -0.0832143 0.308171)
(10.1967 -0.205429 -1.30602)
(11.3844 -0.226641 -1.06756)
(9.92028 0.157859 -1.99879)
(9.60834 -0.997163 -3.01436)
(11.9073 -0.142866 -0.115584)
(9.33229 -0.162938 -3.31648)
(4.76227 5.22313 0.352241)
(9.2702 -0.105076 -0.0455997)
(9.81722 0.0500871 -0.1648)
(9.58054 -0.136559 0.637497)
(8.07044 -0.265002 -3.32886)
(8.56784 -0.0985371 -0.0756827)
(3.29458 -0.160401 1.16585)
(9.74 -0.334132 7.75186)
(10.8046 -0.14415 -4.45232)
(10.5379 -0.342078 0.297508)
(8.70092 -0.002815 1.20072)
(12.0345 -0.114516 -0.557987)
(3.68018 0.0698271 -2.9869)
(9.66238 -0.143063 -0.879184)
(8.62388 -0.0757322 -1.5377)
(9.85694 -0.0490699 -7.26635)
(3.47751 0.12601 -1.34258)
(4.24198 -0.206306 -5.13704)
(11.7229 -0.430707 -4.08974)
(11.5097 0.113748 -4.25194)
(7.28155 -0.160123 -3.45882)
(0.230985 4.52409 -2.61509)
(13.9504 -0.0172232 -3.11692)
(10.9973 -0.0809051 -1.13738)
(12.0946 -0.141158 -1.26349)
(11.1364 0.162049 -4.70641)
(9.44952 -0.000964836 -1.01685)
(5.5814 -0.748817 -0.180738)
(11.3703 -1.09993 -7.73856)
(9.81635 -0.194678 0.0518047)
(9.19306 -0.268096 -0.0817836)
(9.57408 -0.107024 0.479802)
(8.92375 -0.0149257 -0.151552)
(8.37134 0.00412059 0.237057)
(9.91755 -0.284384 0.24035)
(7.27629 0.10702 -1.44803)
(8.55371 -0.0183766 2.30177)
(13.2475 0.431858 -2.43799)
(1.65552 0.420685 -9.38585)
(8.23888 0.381411 6.3132)
(12.2384 -0.00949553 -3.97096)
(9.04829 -0.36363 -1.28686)
(7.38509 0.0296526 -3.65578)
(4.36958 -0.812599 -8.02806)
(5.07331 -0.154135 -6.03396)
(2.38848 -1.08646 -7.49051)
(9.44576 -1.06294 4.494)
(11.041 -0.169935 2.63888)
(8.96249 0.13855 1.01794)
(13.4644 0.157885 -1.88096)
(13.61 0.0522908 -3.1953)
(12.9551 -0.0716726 -2.37461)
(10.4303 -0.0898374 -3.66555)
(6.80735 -0.160866 -0.544492)
(5.3207 -0.0317509 -2.66009)
(10.8352 -0.381547 -3.50917)
(13.9583 -0.185459 -2.84703)
(7.98644 -0.120337 1.33159)
(1.37748 -0.139494 -6.21203)
(13.2079 -0.18037 -2.86527)
(12.6337 -0.185628 -3.02072)
(6.49565 -0.20399 -3.79601)
(8.83386 -0.145145 -1.05878)
(13.0108 0.023059 -0.400199)
(11.22 0.135126 -0.5904)
(10.4506 -0.212891 1.5059)
(13.3151 -0.241843 -0.126612)
(12.8657 -0.0106588 -0.195306)
(7.75598 -0.0896043 -2.23652)
(11.9526 -0.146812 -1.53353)
(7.8917 -0.0555208 -1.48608)
(12.1584 -0.277191 -2.50519)
(12.2538 -0.0147014 0.48759)
(10.6807 -0.407511 -5.71303)
(11.4267 -0.112015 -1.64207)
(9.6315 0.0410049 -0.169258)
(8.83228 0.103861 -1.28432)
(10.4084 -0.111439 -0.370436)
(10.7643 -0.729111 -7.46137)
(6.64797 -0.157213 -2.67612)
(12.4348 -0.50503 -2.16116)
(7.78501 0.0407405 -0.0922764)
(3.06796 0.166961 8.36151)
(5.87806 0.00516993 7.89378)
(7.82631 -0.547218 -4.77055)
(10.9853 -0.166113 -1.47528)
(10.3815 -0.21 -1.72787)
(12.8825 -0.0923589 0.234277)
(10.9653 0.291253 -5.10547)
(10.0904 -0.105362 0.0518502)
(9.7886 -0.169657 -0.767476)
(8.25849 -0.210466 -9.06433)
(9.63322 -0.00173514 0.726307)
(10.8615 0.146305 -3.35027)
(12.1849 0.183745 -2.12615)
(10.2087 0.39039 -0.381448)
(11.5032 0.270944 -0.926567)
(11.3251 -1.61568 -3.61229)
(12.4221 0.103799 -1.82479)
(11.1019 0.211645 -2.12189)
(11.2868 0.221582 -1.34663)
(12.2456 0.128221 -3.83904)
(12.6185 -0.0627871 -0.42714)
(12.3524 -0.147812 0.67936)
(12.8227 -0.0411659 0.279525)
(12.8834 -0.160609 0.0108716)