/*--------------------------------*- C++ -*----------------------------------*\
| =========                 |                                                 |
| \\      /  F ield         | OpenFOAM: The Open Source CFD Toolbox           |
|  \\    /   O peration     | Version:  2506                                  |
|   \\  /    A nd           | Website:  www.openfoam.com                      |
|    \\/     M anipulation  |                                                 |
\*---------------------------------------------------------------------------*/
FoamFile
{
    version     2.0;
    format      ascii;
    arch        "LSB;label=32;scalar=64";
    class       volVectorField;
    location    "0.0207921";
    object      U;
}
// * * * * * * * * * * * * * * * * * * * * * * * * * * * * * * * * * * * * * //

dimensions      [0 1 -1 0 0 0 0];

internalField   nonuniform List<vector> 
3991
(
(10.7512 -0.252287 0.24543)
(11.3146 0.606013 -1.17274)
(10.5502 -0.255428 0.138358)
(2.62133 -2.02924 1.59219)
(10.7093 -0.43891 0.771957)
(10.1429 2.12959 -3.48657)
(10.9647 -0.994918 0.422145)
(11.4583 0.895473 -0.122277)
(0.595439 -0.55557 1.05002)
(11.4235 0.234664 -0.668685)
(10.485 -3.25066 4.3354)
(14.6219 -1.73838 1.52689)
(10.7195 -0.829367 0.639509)
(-3.14085 2.71899 -0.447381)
(9.73126 -0.988885 0.942555)
(12.3185 -1.00892 2.62188)
(11.232 -0.700786 0.626438)
(10.1981 -2.39797 0.668841)
(0.649763 -1.41697 2.39405)
(12.8533 -0.470998 3.06481)
(4.95132 -4.79359 2.45753)
(11.211 -0.468953 0.162035)
(-1.16895 -4.30256 0.120759)
(11.527 2.02155 -3.04044)
(13.5238 -1.85221 2.04306)
(12.6257 -1.80092 2.07253)
(13.0925 -0.982887 0.78418)
(4.25496 -6.90869 4.10966)
(10.909 0.745192 -0.849512)
(0.00553498 -1.21713 0.79294)
(12.7363 -2.54152 4.47229)
(5.38264 4.93833 -2.12419)
(10.7373 -0.692193 3.18219)
(11.5525 -2.53539 2.17704)
(11.0387 0.710921 -3.65827)
(8.07147 1.54874 -4.82186)
(-0.487813 -4.08719 0.512074)
(-0.844494 -4.21439 0.25576)
(6.95253 4.58327 -3.96439)
(-0.414606 -4.47564 0.683256)
(8.26538 -3.5911 3.10129)
(-0.694833 -4.39726 0.347886)
(10.3191 -1.66208 3.76468)
(-0.573479 -5.09178 0.694469)
(12.153 -0.344786 0.311936)
(-2.86574 2.57702 0.963659)
(-3.39551 1.29596 -0.286092)
(2.60926 2.96821 -4.97683)
(12.0119 1.73601 -2.18236)
(12.2412 -0.159841 0.236245)
(11.0508 -0.0789522 4.892e-05)
(12.3588 -0.225547 -1.78798)
(11.4888 -0.364201 0.250284)
(11.3609 -0.160805 -3.39215)
(10.7742 -0.0580173 0.785994)
(13.7436 -1.97671 2.08481)
(13.8582 -0.967895 0.92405)
(-0.0730751 -4.89127 0.479657)
(-0.175892 -5.04137 0.228531)
(-0.161831 -4.29337 0.33774)
(11.5174 -0.567462 0.662885)
(9.75513 -2.64288 0.951869)
(9.97866 -3.46214 6.18196)
(-0.287771 1.37414 0.717483)
(10.8457 -3.8052 4.31532)
(-0.507723 0.42105 1.80263)
(-0.605699 -1.95243 2.04236)
(3.73572 -5.25853 3.5714)
(9.35363 -1.39948 1.74257)
(10.4957 -0.723812 1.21095)
(-2.33404 2.23908 0.0468483)
(12.0512 -1.439 3.38382)
(11.0573 -0.336356 0.196277)
(13.5474 -1.89974 2.68119)
(11.1456 0.489662 -0.417448)
(9.58297 0.0202915 -3.97464)
(10.5408 -0.89145 2.17633)
(10.7534 4.01127 -0.157118)
(11.658 -0.457563 0.346001)
(10.923 -0.384117 0.392713)
(13.4742 -2.41241 3.0974)
(13.1412 -0.818102 2.04646)
(4.64149 -1.67681 2.91751)
(11.0658 -5.8942 2.46216)
(12.9925 -2.68705 0.901654)
(0.0366077 -4.3274 1.81289)
(4.59412 0.177728 2.39948)
(11.6056 -0.0161656 -0.235844)
(12.809 -0.433872 -0.421578)
(13.0059 -0.68264 0.584212)
(8.48988 -1.21006 2.55368)
(11.5533 -0.144403 3.68136)
(3.42454 -1.56044 0.815926)
(0.431402 -1.60345 0.801609)
(0.563295 -1.41501 1.29786)
(10.6005 -0.622487 1.32004)
(2.1629 -1.41732 0.990015)
(5.22474 -2.17082 -0.0841269)
(11.1529 -0.254269 0.690892)
(12.9345 -0.593162 -1.34795)
(7.71819 -1.89724 -0.852612)
(-0.74574 -2.7802 0.642572)
(-0.924447 -3.71434 0.265175)
(0.509002 -1.98344 0.619121)
(11.5354 0.174576 -0.209347)
(10.7463 -0.848143 1.51261)
(13.3432 -1.45766 2.33873)
(10.4098 -0.991575 0.757711)
(10.3468 -1.43676 0.952667)
(10.8044 -0.768976 0.640319)
(10.6601 -1.00961 0.895623)
(10.6243 -0.796363 0.652841)
(10.6426 -0.823365 0.558704)
(10.5348 -1.55835 1.05846)
(10.4382 -1.54077 1.01951)
(10.2735 -1.60567 1.06307)
(10.8859 -0.299557 0.0532919)
(11.0649 -0.24358 0.00964193)
(10.9897 -0.260234 0.0191056)
(10.976 -0.151154 0.00495165)
(11.7749 -0.132524 0.43364)
(8.90718 -6.18112 3.03834)
(11.1206 -0.624619 0.586377)
(8.54254 -4.62293 3.05186)
(12.2865 -2.90647 6.43384)
(9.88467 -4.28022 2.896)
(10.7858 -0.172595 -0.0335741)
(11.3825 -0.186895 0.136152)
(11.5019 -0.433897 0.28716)
(11.4731 -0.754545 0.779517)
(11.0568 -0.475184 0.375104)
(11.2396 -0.623902 0.5347)
(11.5832 -0.777023 0.853926)
(6.08733 -2.5387 0.420836)
(5.66474 -1.78317 -0.841668)
(13.3328 0.305808 -1.59976)
(9.93294 -0.298574 0.673057)
(11.3539 -0.207484 0.115278)
(11.3878 0.183833 -0.154862)
(11.5244 0.0374639 -0.128777)
(11.5058 0.247538 -1.28207)
(14.495 -1.78411 0.923095)
(12.541 -2.1144 1.74348)
(14.5273 -1.76911 0.808151)
(12.5467 -0.570803 -2.60943)
(8.00793 -1.61327 1.27567)
(10.9844 -0.31162 0.277446)
(10.8875 -0.811491 2.16529)
(14.457 -1.57123 0.821527)
(10.8826 -0.487723 0.418843)
(10.9689 -0.462944 0.397119)
(11.0833 -0.273139 0.251279)
(11.0522 -0.328392 0.287207)
(13.1408 0.0177208 -1.46193)
(12.9566 -0.779982 -2.07552)
(13.3944 -0.190687 -1.81615)
(12.6273 0.160537 -1.39449)
(11.9551 -0.83174 -2.38384)
(12.827 2.44345 -1.25643)
(12.502 2.42578 -1.47757)
(11.4899 0.0651899 -0.216461)
(10.7531 0.606953 -0.778041)
(11.1914 -0.481508 0.617157)
(9.25921 -1.61159 -1.20414)
(4.51648 5.17227 -4.96828)
(3.72439 -8.6259 8.50741)
(13.713 0.745142 -0.753173)
(12.9025 1.68094 -1.33223)
(12.7367 1.94153 -1.13544)
(9.25021 -1.61441 1.61004)
(11.6484 0.144945 -0.38753)
(13.3293 1.44017 -0.59217)
(13.5558 0.697582 -0.01894)
(9.07863 -1.18368 2.66564)
(11.0445 -0.0512581 0.920461)
(12.6869 -0.630534 0.251739)
(9.96783 -3.17639 4.22433)
(13.1555 -0.796306 0.566273)
(10.4615 -1.28789 0.689649)
(10.4648 -0.379598 0.197496)
(8.09343 -2.17433 1.51085)
(14.0106 -1.90754 2.65991)
(0.172281 -2.59054 1.46803)
(11.2712 -0.332416 0.18283)
(12.7138 0.0429612 1.38223)
(11.4379 -0.138625 0.0998866)
(12.6205 -0.441266 0.0771427)
(6.67295 -1.66281 3.61017)
(12.7727 -1.38364 1.39575)
(11.3361 -0.615912 0.573646)
(12.5107 -1.02624 1.15198)
(12.2417 -1.98571 2.8704)
(10.019 -4.79243 4.27908)
(12.5721 -1.31277 1.26175)
(12.8633 -1.21531 1.22108)
(-2.17358 1.49891 1.68435)
(12.2721 -0.589224 0.485002)
(12.5334 -0.383537 -0.721017)
(10.9709 0.156176 -0.101938)
(12.1701 -0.252393 0.352657)
(11.4637 2.42103 -2.29284)
(6.65174 -1.43434 4.01059)
(9.65351 -0.564995 -1.27903)
(-3.21298 -2.6062 -0.7113)
(14.1584 -0.301303 0.260527)
(13.167 2.05433 0.135608)
(-1.37682 1.15963 2.515)
(2.00462 -2.76022 1.08473)
(1.46451 -4.5381 5.09989)
(11.3099 -0.702423 0.816361)
(9.199 -0.420389 -0.996296)
(7.70141 -5.15403 1.1467)
(11.5492 0.629837 -2.06034)
(11.0343 -3.34794 0.716949)
(10.8027 1.56205 -2.16671)
(9.58951 -2.35997 1.77804)
(-0.608302 -3.22826 0.180029)
(-0.888666 1.22995 4.33188)
(8.72126 1.75682 -1.59918)
(-2.7102 1.91241 -0.383731)
(-1.05353 -1.67786 0.968792)
(9.26176 -0.0259047 -1.97685)
(4.22962 1.0918 -1.83047)
(4.86662 -2.36474 4.05699)
(7.68566 -2.37219 -1.26367)
(4.92664 -3.38511 6.81556)
(12.8316 -1.2493 0.472721)
(-0.445529 5.0311 -3.84439)
(3.59175 -2.13104 4.17616)
(11.2182 -0.170183 0.026768)
(1.09101 -2.36612 6.19751)
(11.5016 -0.0262384 0.043009)
(12.8884 -1.24897 1.36577)
(10.7215 -0.970289 1.17251)
(4.31741 -1.70317 3.81753)
(2.43072 -2.6575 3.36818)
(11.3178 -1.64824 0.639127)
(8.25834 -1.27155 0.866214)
(4.10426 -4.5121 1.81281)
(11.8415 0.34162 -0.76425)
(13.3795 -0.501544 -1.4381)
(12.255 0.260012 -1.94392)
(-0.711265 0.718113 0.834042)
(10.5457 0.918123 -0.891976)
(12.5585 2.09963 -0.376087)
(-2.02298 2.29678 2.57411)
(10.8858 0.290664 -0.15367)
(3.55999 -3.7899 1.80779)
(10.7503 -1.01132 0.399898)
(7.47369 0.932944 -4.59988)
(2.88676 -6.934 2.40656)
(5.01407 -1.72479 4.02513)
(12.0706 -0.966296 1.35051)
(12.8502 -0.747524 0.433585)
(8.56557 4.92249 -0.176109)
(7.19688 0.31232 -0.675777)
(10.9314 0.0983555 -0.0255687)
(8.36215 -5.32761 1.71593)
(9.36636 -3.63422 0.880819)
(10.8649 -2.01723 0.353161)
(8.7703 -4.57985 1.10467)
(11.6813 -1.98875 1.29422)
(13.6688 -0.556173 -1.20021)
(12.9696 0.577603 0.222637)
(7.60528 3.81726 -4.66925)
(9.72489 -5.10106 1.01779)
(13.5132 -1.33783 3.61906)
(5.10495 -3.50271 0.917773)
(5.96213 -1.93038 6.64136)
(4.45778 -0.32551 -0.0297585)
(-0.709647 -0.646672 2.36979)
(11.7508 -2.12566 -0.0836554)
(13.5732 -1.85891 1.44533)
(-0.899611 3.07622 -2.1485)
(-0.0628179 0.776743 -0.499524)
(0.726239 -0.334694 1.83227)
(1.14917 5.70961 -3.73304)
(0.193449 5.42997 -3.15775)
(11.9221 0.627116 -0.528552)
(11.9787 0.984705 -1.40661)
(11.4947 1.2891 -0.878163)
(12.4117 1.27144 -2.06333)
(12.132 1.01978 -1.52809)
(13.0857 0.546717 0.0539044)
(13.7792 -1.88059 0.940218)
(13.1084 0.945198 0.0985814)
(13.1941 0.676475 0.146482)
(12.2489 0.0762383 0.191276)
(12.0838 0.161549 0.0785628)
(11.707 0.609695 -0.126307)
(12.7891 -0.755935 0.971839)
(10.1614 -0.813384 1.37487)
(8.38097 5.13195 0.48385)
(12.6541 -0.95909 1.81472)
(10.298 0.936296 -3.93374)
(13.042 2.26623 0.159298)
(-0.0168553 0.772315 1.44662)
(10.428 -0.900265 0.638831)
(9.25542 -0.320368 1.92797)
(10.9243 0.384506 -0.234484)
(12.9199 -0.884505 -0.802242)
(7.42564 2.34181 -4.74742)
(11.3963 -0.210789 0.117833)
(10.0612 -7.08349 4.66842)
(10.8822 -4.6734 4.40336)
(11.1537 -4.24207 4.43177)
(11.2576 -4.99532 6.42375)
(11.2366 0.203754 -0.287971)
(11.4545 0.146152 -0.432407)
(7.4558 0.442597 1.43662)
(11.7034 0.059061 -0.259278)
(11.5588 0.169985 -0.35759)
(2.94892 -2.22825 5.96614)
(11.5821 0.211506 -0.547305)
(9.85851 -1.43864 0.89363)
(9.98976 -0.675306 0.825279)
(14.4289 -1.27381 0.42745)
(12.3875 -1.1584 1.40831)
(11.1436 -0.628274 0.566225)
(11.3181 -0.769411 2.52968)
(12.5906 -1.51055 3.53567)
(11.5585 -0.29934 0.25304)
(11.3167 -2.35569 2.65562)
(12.2848 -0.264592 -0.278299)
(13.0884 -0.653948 0.741046)
(12.7475 -0.0887775 -0.825436)
(9.77931 -1.78325 2.23733)
(11.3424 -0.676345 0.598028)
(10.6826 0.267436 0.0229159)
(11.0583 -0.668058 0.36289)
(12.9288 0.36817 0.0653793)
(12.3101 0.415867 0.070679)
(10.9297 0.272901 -0.154349)
(11.2365 0.196583 -0.412751)
(0.942494 6.09834 -2.92481)
(1.96033 -2.63045 1.52017)
(12.7054 0.144041 -1.50049)
(12.2613 -0.107814 0.0282898)
(11.3586 0.507689 -0.231923)
(14.2836 -1.99805 0.619405)
(11.554 -0.91022 1.10052)
(10.9963 -0.742313 0.758427)
(11.0182 -0.0787553 0.0687474)
(11.8752 -0.533088 0.955184)
(12.0904 -0.815945 0.787513)
(11.9318 -0.394454 0.210784)
(10.254 -0.520758 0.857971)
(12.44 0.567643 -0.30541)
(12.6232 -0.4554 -0.140958)
(13.5901 0.260578 0.0893095)
(13.6769 0.699517 0.755313)
(11.4609 -0.717267 0.434173)
(0.784841 -2.8136 7.57861)
(11.106 -2.23181 3.60471)
(10.9512 0.195413 -0.116705)
(11.4802 -2.41501 -0.137647)
(9.18627 -0.166673 2.23882)
(11.8142 1.89501 -2.07682)
(-2.64066 4.64772 -2.15654)
(10.7199 -0.368071 0.179286)
(10.9062 -0.508407 0.258385)
(7.08564 -1.33475 2.37229)
(9.25049 2.09054 -3.70132)
(11.6533 -0.36807 0.268151)
(9.64844 -1.79624 2.00872)
(11.0894 -1.18633 1.05295)
(3.57089 -0.919087 -0.565769)
(13.7604 -1.25209 0.761765)
(12.7766 1.97847 0.569602)
(12.4136 -1.51285 0.513693)
(8.6908 -2.02517 2.22035)
(11.9901 -1.88614 1.50233)
(2.26377 0.671326 -2.25652)
(0.483489 -3.48147 1.70652)
(2.34659 -0.829413 3.08443)
(11.4348 -0.0912766 0.0484285)
(11.3072 -1.99677 1.15947)
(14.4156 -2.63427 1.72706)
(12.286 -1.20797 2.08475)
(9.98347 -1.80442 1.37128)
(11.7977 -0.234892 0.269432)
(11.2537 -0.286314 0.355648)
(7.47625 -1.44765 0.600086)
(11.4576 -0.128756 0.0780775)
(10.2728 -1.37553 0.848015)
(11.4558 -0.571895 0.472845)
(13.895 -3.00996 3.03417)
(10.9624 -0.425257 0.779917)
(10.7994 -0.59499 0.50528)
(10.9683 -3.53782 1.37069)
(11.5437 -0.731185 1.53697)
(6.17203 -3.14048 10.3032)
(10.8722 -0.653267 0.626073)
(12.2859 -0.0315973 0.336067)
(6.78887 4.86803 -1.78833)
(11.137 0.134453 -0.139199)
(10.4857 -3.70837 5.73495)
(11.6295 -0.524362 8.15385)
(6.38912 -0.791742 -3.48187)
(13.9277 0.305725 0.438345)
(10.1957 -1.35469 1.45445)
(13.4797 -0.305764 0.340968)
(3.22397 -3.05832 5.13929)
(-0.927628 1.5835 3.81752)
(10.7648 -2.09857 2.35837)
(14.2536 -1.34949 2.03797)
(10.7411 -0.754133 0.714684)
(4.34095 -2.64239 9.10959)
(12.8274 1.26718 -0.45389)
(9.38254 2.55208 -3.60746)
(12.3665 -0.35871 0.259366)
(10.2047 -3.18649 2.38465)
(11.2638 -0.684604 0.551316)
(12.0043 -0.690475 0.363295)
(10.4886 -0.972168 1.08828)
(9.53528 -1.95988 1.43494)
(13.1035 -0.669229 0.568015)
(10.6911 -0.405305 0.229261)
(11.5469 -3.19562 2.02564)
(11.3493 -0.73287 0.471053)
(11.0932 0.227131 -0.229774)
(12.8683 -0.552179 -0.143856)
(11.5672 -1.26288 1.09428)
(8.26406 4.39845 -3.39418)
(11.4515 -1.11924 1.96374)
(7.81979 -2.01949 4.33194)
(11.8369 -0.590744 0.501301)
(11.6803 -1.68219 0.932179)
(11.5923 -3.05146 1.21057)
(10.922 -0.359574 0.325359)
(13.6524 -0.76491 0.346197)
(11.624 2.12185 1.43822)
(13.5568 -1.10549 0.380072)
(11.2008 -0.977448 0.57958)
(9.6897 -1.71442 3.73323)
(11.1015 -1.53108 0.709218)
(13.3697 -1.60959 1.36855)
(13.1526 -3.0435 4.3201)
(8.06363 -1.62985 2.34359)
(11.4075 -0.307833 0.179556)
(12.2291 -1.51315 1.11537)
(10.4612 -0.5922 0.547393)
(11.3155 -0.2671 0.114011)
(6.59663 -1.46188 4.81823)
(5.94881 -3.76507 1.27174)
(13.4819 -2.59641 3.40895)
(12.875 -1.1984 1.67169)
(14.0486 -0.0597092 0.448058)
(11.3488 -2.67671 2.85459)
(6.00756 -4.94414 4.33967)
(13.6662 -1.2105 6.87615)
(10.1703 -3.78146 4.17111)
(11.3077 -0.353209 0.288323)
(7.77902 -1.80161 1.88269)
(5.452 -5.00938 0.795334)
(12.2827 0.345769 0.248565)
(9.40692 -1.73909 1.26971)
(14.2821 -2.65596 4.27473)
(0.803149 -5.13333 2.77594)
(11.8869 -0.264352 0.216078)
(12.7358 3.01874 0.891967)
(10.7852 -0.887854 0.715824)
(11.2624 -0.137573 0.0489007)
(14.6617 -0.423461 0.735997)
(9.90545 -3.16067 0.817238)
(13.687 -3.34353 5.08633)
(0.256126 -4.4144 0.391799)
(10.7699 -0.546861 0.894894)
(10.9288 -0.470541 1.27743)
(9.62488 -0.917816 1.20953)
(4.27841 -2.07362 1.58914)
(11.1688 -0.366674 1.45589)
(11.4385 -0.266213 2.62399)
(-1.73482 2.0663 2.79581)
(10.3651 -0.385964 0.549308)
(14.1055 -1.6327 1.8201)
(13.1161 -1.02974 1.20812)
(9.02529 -1.42723 2.35732)
(11.5208 -0.316738 0.218523)
(11.164 -0.316269 0.362945)
(11.0177 0.631501 -0.360065)
(12.9543 -1.41898 2.92843)
(10.7416 -0.374967 0.227272)
(8.33465 -2.55652 7.88123)
(14.1684 -1.91848 1.78309)
(10.4868 -0.435233 1.92183)
(12.3959 -0.46196 0.331262)
(11.2995 0.120499 -0.221316)
(10.9782 -0.636526 0.576826)
(10.6665 0.408684 -0.326724)
(10.6338 1.23833 -0.723055)
(10.2339 -0.888716 1.49155)
(10.8109 -0.293037 0.0875538)
(10.4419 -0.835104 1.64408)
(10.0036 -1.75527 1.71011)
(8.85392 -1.34296 1.54004)
(-0.856435 -0.542589 2.16889)
(11.9482 0.0106722 -0.39005)
(0.0852857 2.97915 -3.81205)
(10.9483 -1.29792 1.47769)
(11.0695 -0.601034 0.697585)
(13.8427 -2.81892 1.35792)
(12.2565 -0.98058 1.71845)
(6.20103 -3.45566 5.36782)
(11.918 -0.119077 -0.334467)
(8.99258 -1.46419 2.52935)
(12.1265 -0.285134 0.523947)
(9.19935 0.219702 -1.25756)
(10.4558 0.586432 -0.724819)
(11.3998 0.263461 -0.585047)
(10.8349 0.823113 -0.604823)
(-0.105984 -3.02043 1.66)
(-0.874767 -3.98119 0.77344)
(3.00551 1.74443 1.55573)
(12.9008 -5.26838 2.21649)
(12.5456 1.44653 -1.26686)
(12.6522 -0.939826 0.790947)
(11.4821 -0.126871 0.0874144)
(11.8532 2.40352 -1.3776)
(11.0236 -5.17213 2.66703)
(12.3793 0.896235 -0.265329)
(5.73263 -1.55694 1.5852)
(14.4313 -2.13362 0.933389)
(12.5953 -5.39427 2.08636)
(11.2453 2.49126 -0.907981)
(12.415 -4.20002 2.24544)
(10.7389 0.75763 -3.84257)
(10.9226 -0.567386 0.465246)
(11.2512 0.141314 -0.268342)
(11.4776 -0.167504 0.0840717)
(11.2305 0.0961238 -0.197373)
(12.4693 0.446476 -1.77697)
(11.7566 -2.66329 2.38902)
(13.4093 -6.63538 2.0187)
(0.355823 -1.4729 1.02581)
(12.2931 -0.96626 1.26122)
(11.6425 -4.24136 1.74888)
(10.687 -0.450335 0.404399)
(11.5575 -0.737227 0.702354)
(12.9005 0.976858 -1.33666)
(11.3995 -0.620506 0.579602)
(13.9563 -0.364316 -0.388731)
(13.5701 -1.11476 1.48197)
(11.6407 -1.22384 1.68784)
(11.416 -0.336951 0.208299)
(11.1367 -0.439532 0.351236)
(11.7432 -4.42178 2.33839)
(11.0439 -1.53791 1.77661)
(11.5623 4.30301 -1.35025)
(-0.810099 -0.848504 2.65625)
(-2.95092 -2.54929 -0.247384)
(12.6703 -3.21587 1.89788)
(13.9781 -4.27549 2.10424)
(12.9077 -4.37233 1.64813)
(12.1888 -3.10462 1.51869)
(13.5843 -0.835132 0.0942702)
(11.1131 0.0167449 -0.0692574)
(11.9904 -4.10143 1.80422)
(6.20056 -5.15577 3.40475)
(6.48755 -2.28804 2.28337)
(6.34254 -1.71178 4.43084)
(8.13657 0.217951 -0.425376)
(0.00641627 2.87255 -4.04333)
(10.3422 -3.23736 2.47387)
(13.2138 -5.324 0.301233)
(11.9944 -3.88859 0.499249)
(5.82929 -4.13163 4.26843)
(1.36074 -1.82823 2.27339)
(12.4346 1.72724 -0.000123642)
(10.8981 -2.73521 2.12406)
(11.3019 -2.42086 2.1686)
(11.1499 -0.826007 0.795663)
(11.1912 -0.538713 0.341329)
(11.2999 -0.552904 0.364723)
(11.0498 -0.969984 0.872402)
(11.2113 -0.937995 0.913745)
(1.66659 -5.37277 4.73379)
(9.24552 -3.96837 2.3991)
(10.1308 -3.63298 1.83795)
(9.70316 -3.39893 1.7437)
(8.43845 -2.98815 4.18847)
(8.98611 -2.76253 3.33135)
(13.3242 -7.8692 2.13359)
(-3.20186 4.31113 -1.0588)
(13.2772 1.41184 1.20217)
(-3.15076 2.83525 -0.165834)
(-2.60502 4.3436 -1.54446)
(11.2865 -0.182728 0.0819221)
(11.6146 -0.870702 1.41882)
(10.7163 -0.38798 0.452167)
(11.5403 0.165303 -0.220848)
(8.95218 -1.14844 1.80487)
(10.4691 -0.448262 0.245942)
(12.1999 -0.180575 0.114606)
(12.2025 -0.653001 1.26594)
(10.9448 -0.428778 0.203877)
(10.8213 0.0733521 -0.0278506)
(10.9602 -0.365495 0.272908)
(10.3763 -0.234675 0.283103)
(11.3938 0.100832 -0.101775)
(10.39 -0.265941 0.361172)
(10.2487 -0.193332 0.425844)
(9.14917 -2.67996 -0.713414)
(5.2959 -3.71316 0.689466)
(11.1899 3.91989 -1.64352)
(10.2418 -0.667556 2.42913)
(11.8635 0.0274747 -3.11669)
(9.71209 0.410832 -4.24211)
(5.65921 -1.62465 2.85356)
(12.8025 0.375895 -1.83844)
(11.5374 -0.223843 0.170765)
(8.54819 -1.55146 2.36016)
(8.79262 -1.49286 2.10897)
(6.11823 -1.61812 2.37034)
(4.95435 -1.98136 1.49977)
(5.58534 -2.07278 2.41084)
(11.1961 -0.653109 1.83859)
(11.0744 -0.554152 1.07944)
(11.7633 -0.401012 0.922076)
(11.2684 -0.405527 0.84943)
(11.172 -0.916834 1.60902)
(11.6382 -1.04772 1.33495)
(10.2966 -1.15179 2.13937)
(9.96794 -0.92874 1.61461)
(10.0498 -1.0706 2.07485)
(7.95559 -2.0479 3.63867)
(9.49842 -1.28175 3.37528)
(9.18962 -1.12127 2.24315)
(5.31388 -6.6287 2.76922)
(12.5729 -2.77357 1.37384)
(9.90804 4.69713 0.113918)
(11.6131 -0.871583 1.47856)
(7.39681 -3.2195 2.38477)
(3.11932 -2.42649 2.87709)
(5.53066 -1.5597 1.61502)
(11.0348 -0.931426 1.20834)
(11.6105 -0.751477 0.845664)
(11.5882 -0.79421 1.11007)
(11.1229 -0.739358 0.850416)
(11.5601 -0.914685 1.08551)
(11.759 -0.886284 1.10141)
(12.5502 -0.309599 -0.20703)
(12.5907 -0.254062 -0.60695)
(10.5004 -0.471924 0.71831)
(12.9192 -0.406564 -0.692298)
(12.7182 -0.486696 0.0833402)
(4.59887 -2.96398 1.70528)
(10.4885 -0.668173 0.84786)
(-3.47126 2.31225 -0.0395034)
(3.24945 1.43536 1.33418)
(12.2872 -0.431006 0.433601)
(12.0587 0.427444 -2.11367)
(14.0344 0.279271 0.739519)
(11.736 -0.206301 0.116558)
(11.62 -0.0142731 -0.190937)
(11.5545 -0.0967239 -0.00964521)
(11.6279 -0.124706 0.137752)
(-0.503419 1.25337 4.53464)
(4.83865 -5.45917 7.65469)
(3.02257 -6.20059 9.10247)
(9.65455 -3.57851 6.50493)
(7.87259 -3.28301 8.84)
(9.53871 -3.87158 9.56207)
(2.77964 -1.36396 0.0734653)
(0.580804 -0.935621 1.43731)
(9.1731 -1.53728 1.27949)
(10.0182 -1.40328 1.33007)
(12.8608 -0.962432 1.767)
(-3.23165 2.06362 0.756243)
(-1.9199 3.66754 -2.74124)
(11.1325 -0.785282 1.04623)
(10.9935 -0.848546 1.05099)
(11.3317 -0.856446 0.921223)
(-0.236273 -5.20452 0.614143)
(11.2211 -0.905211 1.04029)
(11.1361 -1.28683 2.55866)
(-0.358862 -3.30561 2.85034)
(7.34539 -2.03643 4.92634)
(11.9301 -1.78478 2.65696)
(12.3263 -1.38169 2.27712)
(11.9256 -1.46189 2.12615)
(10.6335 -0.337977 0.27805)
(9.21972 -1.46662 1.17694)
(10.6935 1.95894 -1.84364)
(13.6905 1.27461 -0.16732)
(11.3764 -0.291411 0.249822)
(11.88 -0.540385 0.760648)
(8.94617 -1.23846 1.37255)
(10.1056 -1.07636 1.20756)
(9.77872 -3.31581 1.13097)
(10.569 -0.373129 0.114943)
(10.9939 -0.38407 0.310992)
(10.5319 -0.201238 0.070675)
(10.0558 -0.598342 0.878666)
(11.5459 -0.525039 0.400452)
(9.87721 -0.767817 1.12763)
(7.86989 -1.89877 3.193)
(11.5128 -0.577009 0.556174)
(2.47056 -1.80886 1.08008)
(8.54991 -2.4802 1.35395)
(0.886782 6.31373 -4.67146)
(10.1705 -0.379189 0.499502)
(9.42228 -3.1997 0.942421)
(10.4126 -0.699719 0.692291)
(10.4672 -0.3343 0.29697)
(11.4014 -1.03033 2.28501)
(-1.404 -2.71731 3.09042)
(11.6934 -1.49688 4.01003)
(8.08053 -1.94635 5.5054)
(12.7786 2.08832 -0.423039)
(11.0604 -0.560745 0.283103)
(12.1994 0.361031 0.076921)
(11.9032 -2.74137 1.22935)
(11.214 1.1021 -0.826637)
(11.2094 -0.305948 0.152638)
(11.0349 0.667694 -3.29111)
(11.5874 0.0935441 -0.00473313)
(12.7271 0.0593439 -1.50887)
(8.53729 -1.27307 2.99275)
(12.3608 -10.753 1.42627)
(9.19304 4.00126 0.625039)
(12.1918 -2.15128 2.05319)
(9.99893 -0.55708 2.00731)
(4.42211 3.12359 -5.47701)
(11.694 0.0594736 -0.0177073)
(0.47421 -7.79697 2.0875)
(11.6336 -0.726679 0.843166)
(12.8106 0.422296 0.0678584)
(-3.56296 -1.52263 -0.878251)
(14.0427 -0.545327 0.572412)
(11.8798 1.23923 -0.633462)
(10.0269 1.08992 -3.7831)
(10.8177 -0.232142 0.243754)
(13.6244 -3.43578 0.845976)
(9.71835 1.91637 0.828658)
(0.332242 -3.95463 2.54507)
(9.65497 -1.59601 1.03849)
(11.359 0.0831798 -0.100235)
(11.3607 -0.924379 1.6289)
(11.3011 -4.37895 2.25434)
(10.474 -0.788524 1.056)
(11.8764 -0.964712 1.87384)
(11.3598 -0.143351 0.0383044)
(11.0056 -0.813686 1.42053)
(-3.09451 1.3453 -0.198)
(-1.21623 -4.78204 0.306373)
(-1.65116 1.70978 2.03564)
(-0.878293 0.234886 1.79071)
(-1.64009 -0.117995 2.24864)
(-1.12144 0.942116 2.99506)
(11.4009 0.713967 -0.884779)
(11.1495 1.02285 -1.37207)
(10.3768 2.00905 -1.40497)
(10.6827 0.867805 -0.55532)
(11.107 1.95068 -1.71453)
(-1.5881 0.669958 -0.455887)
(-0.872738 0.412219 -1.05394)
(12.3368 -2.64496 1.07414)
(9.14935 3.63422 -1.92913)
(7.21562 3.2075 -0.403355)
(0.259032 -1.62457 0.995663)
(13.2926 0.100152 -0.629754)
(5.34183 2.1812 -0.450841)
(12.1221 -0.235597 0.150147)
(14.0541 -2.4245 0.776633)
(3.32599 0.651343 3.37532)
(14.4672 -2.83811 1.33501)
(11.5347 -8.66132 1.74099)
(9.67632 -0.75248 2.27373)
(13.3219 -5.46991 1.10123)
(14.8077 -7.27663 -0.417072)
(12.1384 -5.53128 0.6399)
(7.28866 0.869077 1.6754)
(8.86301 -1.48612 4.46054)
(13.3786 -0.716306 2.11558)
(11.1098 -0.188815 0.0387342)
(-1.58147 0.269785 0.371232)
(11.8842 -0.310199 0.200019)
(11.8119 -0.410141 0.384258)
(11.9135 -0.0376641 -0.245216)
(11.1951 -0.243648 0.220866)
(11.6841 0.0258085 -0.187352)
(13.352 -1.04321 0.517709)
(13.5181 -0.837828 0.359666)
(13.0093 -0.408462 -0.0500428)
(11.8759 0.151664 -0.412597)
(12.2299 0.175352 -0.624171)
(12.6451 0.136711 -0.982881)
(12.6208 -0.265223 0.297404)
(12.9439 -0.219207 0.197529)
(11.8065 -1.05194 1.03042)
(12.1834 -0.736366 0.735108)
(11.9037 -0.905879 0.921783)
(11.6483 -0.590871 0.558681)
(10.2265 -0.251506 0.564416)
(10.6054 -0.284133 0.210342)
(7.84845 -1.59717 1.58858)
(12.0104 0.415228 0.302374)
(10.5786 -0.390296 0.150027)
(-1.99467 5.43502 -2.35069)
(10.9242 0.275362 -0.14569)
(-1.44067 1.76806 -0.12352)
(11.8944 -0.464081 1.73372)
(10.6933 0.29286 -0.0421876)
(1.30794 3.63853 -4.73814)
(-0.498494 3.20544 -2.44969)
(-3.08067 2.61077 0.292476)
(-3.40052 3.17528 -0.350142)
(8.99471 -1.41399 3.80689)
(12.6924 -0.760723 0.352708)
(11.6119 -0.71159 1.20469)
(4.08423 -2.08419 7.8386)
(9.48532 -0.790765 1.23729)
(10.2579 -1.70822 6.30479)
(5.18043 -5.50777 0.842731)
(12.188 -0.961229 0.341657)
(10.5535 -0.395714 1.00747)
(12.7189 2.22899 0.41112)
(10.994 0.35597 -0.269308)
(-0.762686 -3.28927 2.73201)
(11.7798 1.48835 -0.761199)
(11.7435 -1.69443 1.3185)
(11.6492 -0.619973 3.37738)
(3.19138 1.70277 0.665121)
(11.5871 -0.549524 0.91096)
(10.7095 0.657811 -0.392506)
(5.67782 0.873017 5.12202)
(10.8311 3.14859 -0.769058)
(11.7755 0.511829 -2.03418)
(-3.35207 3.89689 -1.62248)
(12.7972 -0.157778 1.90691)
(9.77267 3.08721 -3.61005)
(8.32563 3.3169 -3.87695)
(10.2221 -0.338307 5.32846)
(10.8125 0.43555 -0.169938)
(11.3665 0.0657048 -0.200227)
(10.1289 -0.869189 4.01453)
(12.1907 -1.07695 5.05354)
(11.0044 1.57886 -3.50333)
(12.1558 0.0115643 -0.245406)
(10.7849 0.792115 -0.552236)
(11.0555 0.708579 -0.578768)
(9.08555 4.11425 -3.56178)
(10.0599 1.26234 -3.31635)
(11.0635 -0.0534116 0.0573186)
(11.2453 -0.223796 0.160551)
(12.1261 -1.00712 2.08887)
(10.9947 -0.119764 0.144809)
(10.9906 0.053792 -0.00676527)
(11.0742 0.139714 -0.138946)
(9.83127 -0.812545 1.40657)
(10.8883 -0.274603 0.324837)
(10.904 -0.109982 0.0962982)
(11.0571 -0.354258 0.301695)
(2.74321 2.25381 0.513792)
(-3.75547 2.99431 -1.27613)
(6.53647 -2.91793 -0.052808)
(6.39138 2.75848 1.06117)
(-0.272652 -0.578905 -1.01977)
(2.54158 0.761836 1.7175)
(-2.65283 3.23652 -2.54301)
(1.33123 -0.203305 1.84689)
(0.351378 1.29091 -0.98246)
(-0.376098 -1.57708 1.25209)
(-0.58598 2.66485 -1.35937)
(12.3838 -0.22374 -0.278456)
(11.8876 -0.0213236 -0.195134)
(12.672 -0.104479 -0.730872)
(12.4418 -0.225679 -0.254605)
(6.83263 0.725049 -3.69208)
(10.2697 -0.385555 0.589048)
(11.3371 1.38879 -2.09952)
(10.4876 1.2608 -2.13554)
(-3.03253 -0.287186 0.351344)
(10.7581 0.826341 -3.41099)
(11.6692 -0.0387431 -3.28522)
(13.0957 -0.465187 -2.11811)
(11.992 -0.00383982 -3.05556)
(9.91332 -0.873408 -2.88826)
(6.46718 -1.30957 5.62913)
(13.5532 1.29401 -1.54724)
(2.87159 -3.26974 11.1167)
(12.8221 1.75039 -0.0465259)
(14.1922 -2.89545 2.72799)
(13.277 -2.66462 1.92172)
(-0.37949 0.775039 -1.33456)
(10.668 -0.405755 0.309998)
(10.5537 -0.525182 0.418066)
(13.4853 -2.26872 1.52063)
(14.3714 -1.66163 1.29124)
(10.5664 -0.582027 0.551441)
(11.1214 -0.433044 0.236428)
(8.94135 -1.25275 2.46287)
(10.0235 -1.50902 2.04119)
(-1.23136 1.32359 -0.853776)
(9.73586 -2.51429 0.92899)
(7.41161 -1.95323 2.46072)
(9.3822 -0.866041 1.72077)
(10.3242 -0.981083 1.32783)
(11.6951 -2.58138 0.862301)
(11.3058 -0.263268 0.214873)
(11.325 -0.509547 0.363094)
(11.6609 -0.520771 0.406393)
(11.171 -0.203043 0.0639526)
(9.22189 -3.2788 0.927077)
(12.0543 -0.0372743 0.206563)
(11.568 -0.569739 0.527835)
(9.55685 -3.03997 2.3154)
(13.889 0.0642779 0.0511145)
(13.3327 -1.67086 1.2537)
(13.5628 -1.5618 2.64555)
(0.327829 -1.24871 1.49557)
(14.2923 -0.920891 -0.276602)
(12.1462 -0.389936 0.261998)
(5.66777 1.57305 -1.68219)
(11.6021 -1.42255 1.42377)
(12.2083 -2.50753 2.76551)
(10.8501 0.0853879 -0.0975797)
(12.1783 -0.50461 0.591835)
(11.0379 -0.42049 0.276407)
(10.4998 -0.792368 1.26278)
(11.223 -0.0879399 0.0324205)
(10.8578 0.742589 -1.07199)
(10.5038 -0.853124 1.04719)
(10.6284 -0.863474 1.48258)
(13.7169 -0.251119 -0.926785)
(10.0657 -0.817891 1.37462)
(8.47694 -2.3897 1.06166)
(12.9327 -0.238423 -1.81179)
(12.3142 -0.959499 0.993979)
(12.0108 -1.3712 0.466038)
(11.1504 2.35319 -3.13442)
(13.632 -0.802091 0.0319475)
(12.0507 -0.625749 0.443675)
(9.60562 -1.21275 4.19321)
(3.17549 0.987346 -0.817359)
(14.5575 -1.44496 0.587839)
(11.3131 -2.26861 0.555557)
(13.2156 -1.53663 1.19806)
(11.1337 0.0154035 -0.00322169)
(11.7784 1.53254 -2.87291)
(12.4805 -2.06767 3.84363)
(11.6398 -1.61243 1.38901)
(10.4221 -1.15462 1.09252)
(12.6623 -1.95455 1.59309)
(9.47179 -2.48854 3.42108)
(8.63424 -2.43769 4.36804)
(2.97692 -11.2922 0.445515)
(8.54379 -0.69744 -2.59952)
(14.1504 -1.33462 1.52085)
(13.4492 -1.83208 1.60999)
(11.9108 -1.13029 2.2188)
(13.068 -1.97895 1.64596)
(11.2348 -0.571929 0.43202)
(11.0756 -0.431768 0.768742)
(10.4316 -2.04952 1.14524)
(11.0497 -0.527326 0.458572)
(12.1739 -0.661929 0.385259)
(11.6209 -0.296947 0.309134)
(10.5593 4.12216 -2.11737)
(12.5096 1.37883 0.33026)
(9.35962 4.53128 -3.05168)
(11.3772 -0.829658 1.09451)
(8.47975 1.11947 1.93845)
(0.697384 -9.66691 0.89438)
(14.2354 -0.220928 0.896511)
(-0.0685129 -4.53472 1.25783)
(-0.437885 -3.07732 1.78949)
(-2.44609 -2.35059 -0.0116854)
(11.8706 2.75522 -0.143524)
(13.3017 -1.63385 0.889685)
(9.995 -3.07224 2.86616)
(10.7434 -1.3324 1.50836)
(10.7039 0.197731 -2.98257)
(12.0698 -1.34596 1.76744)
(11.2053 -0.225354 0.0596914)
(10.4621 -0.335512 0.0823041)
(11.5657 -0.503528 0.2364)
(10.9695 -0.758091 0.2802)
(10.9311 1.37342 -0.748922)
(11.4806 0.475819 -0.243482)
(9.61347 -2.91101 2.69091)
(10.8795 -1.05863 1.11983)
(10.6372 0.516129 -0.268305)
(-2.33991 2.12052 -0.317281)
(12.6414 -2.51629 4.02826)
(10.554 -0.673612 0.558411)
(-3.76503 1.68788 -0.764081)
(10.298 -1.08403 1.02501)
(8.9544 -0.328386 7.04049)
(10.2658 -1.02686 0.872878)
(9.83934 -1.30408 0.993282)
(11.1348 -0.238874 0.111747)
(5.62904 -1.49045 1.97004)
(11.1733 -0.318525 0.197683)
(11.8923 -0.526282 0.381484)
(11.6995 -0.7659 0.750907)
(11.8266 0.961155 -3.12295)
(12.7591 -0.655903 0.369217)
(13.1688 -3.22361 5.88497)
(8.7907 3.9164 -3.77254)
(13.7494 -0.592522 0.133687)
(10.7938 0.796818 1.34002)
(10.0923 -1.12878 2.83413)
(12.698 -1.26309 0.687057)
(14.3265 -2.79513 0.695279)
(12.5105 1.72133 0.743762)
(11.5188 -1.1305 2.15837)
(11.0771 -1.46797 1.10294)
(10.5415 -3.0098 1.77719)
(6.85324 4.48099 -5.18974)
(10.5278 -2.44928 0.791387)
(13.0775 -3.58959 1.0381)
(12.9855 -1.07261 1.60227)
(13.1305 -0.950325 1.12559)
(12.3207 -0.315084 0.232177)
(14.0239 -1.02035 -0.226853)
(12.7211 -0.8082 0.870282)
(11.4052 -0.925871 0.355871)
(12.389 -0.142829 0.110485)
(12.2393 -0.518916 0.327314)
(10.3245 -3.27171 2.35895)
(10.5682 -0.744453 0.701622)
(1.85863 -0.623982 1.11345)
(13.0177 -2.99334 3.38269)
(8.81786 -1.74914 3.2347)
(12.2596 -3.5227 7.22538)
(11.4996 -0.884785 0.820921)
(10.4613 -0.755733 0.681603)
(8.84815 0.290851 2.19107)
(9.37324 -2.59069 0.763429)
(5.16314 1.31657 -4.11477)
(14.3645 -3.10929 0.952979)
(7.22615 -6.81863 2.23834)
(6.87384 -1.86224 8.86046)
(11.9157 -0.542672 0.457804)
(2.48248 -4.65142 3.61084)
(13.4543 -2.86978 1.37757)
(10.5135 -2.00777 1.79699)
(7.87446 -3.23092 3.07395)
(11.7991 3.33775 -1.28904)