/*--------------------------------*- C++ -*----------------------------------*\
| =========                 |                                                 |
| \\      /  F ield         | OpenFOAM: The Open Source CFD Toolbox           |
|  \\    /   O peration     | Version:  2506                                  |
|   \\  /    A nd           | Website:  www.openfoam.com                      |
|    \\/     M anipulation  |                                                 |
\*---------------------------------------------------------------------------*/
FoamFile
{
    version     2.0;
    format      ascii;
    arch        "LSB;label=32;scalar=64";
    class       volScalarField;
    location    "0.0100456";
    object      nut;
}
// * * * * * * * * * * * * * * * * * * * * * * * * * * * * * * * * * * * * * //

dimensions      [0 2 -1 0 0 0 0];

internalField   nonuniform List<scalar> 
47425
(
0.0070094
0.0054564
0.00652597
0.00244753
0.00381943
0.00566049
0.00601652
0.00389571
0.00734912
0.00100678
0.00271883
0.00744262
0.00644404
0.00567152
0.00484335
0.00245521
0.0066507
0.003139
0.000348997
0.00281873
0.00523888
0.00756578
0.00371629
0.00660472
0.00748205
0.00746231
0.00596486
0.000399427
0.00669016
0.00695132
0.00739138
0.00756239
0.00718079
0.00642646
0.00730056
0.00596235
0.00750839
0.00532852
0.00592481
0.00562735
0.0052082
0.00729575
0.00737856
0.00263707
0.000512928
0.00354036
0.00426624
0.00484739
0.00554601
0.00741575
0.000486847
0.00613791
0.00739374
0.000778115
0.00335377
0.00323781
0.00752869
0.00652408
0.00211913
0.00635587
0.000842323
0.000563201
0.00102585
0.00383877
0.00715947
0.00734024
0.00605389
0.00687626
0.000967296
0.00440825
0.00584303
0.00728279
0.00709859
0.00501902
0.00146793
0.00656088
0.00105419
0.00506343
0.000197075
0.0027223
0.0013995
0.00653471
0.00738939
0.00688693
0.00754499
0.00528031
0.00722674
0.00740084
0.0063274
0.00127887
0.00753141
0.00474445
0.00755633
0.0034914
0.00179745
0.00200606
0.00744539
0.00748589
0.00573557
0.00307685
0.00640904
0.00109602
0.00730593
0.000952589
0.00749791
0.007144
0.0074899
0.00535761
0.00755438
0.00758958
0.000705724
0.00648082
0.00690956
0.00258523
0.00697792
0.000265116
0.00708268
0.000664297
0.00466073
0.00664225
0.00620128
0.00729715
0.00660013
0.00445948
0.00392124
0.00661711
0.00486872
0.00743596
0.00376042
0.00745656
0.00656079
0.00370608
0.000928565
0.00305338
0.00729444
0.00555446
0.00696957
0.00647707
0.00595444
0.00428417
0.00527362
0.00286746
0.00594715
0.0064926
0.00699292
0.00732476
0.0051235
0.00636535
0.00254232
0.00513937
0.00663685
0.000427734
0.00697824
0.000315365
0.00370327
0.00452262
0.00478381
0.000227272
0.00402693
0.00512272
0.00696641
0.00753454
0.0074016
0.00740191
0.00115008
0.000377055
0.00752125
0.00113758
0.00380028
0.000761052
0.00149368
0.00432752
0.00515816
0.00401218
0.00511879
0.00137493
0.00028766
0.00648187
0.00715574
0.0075247
0.000245463
0.00754251
0.00703576
0.00748748
0.00743905
0.00702982
0.00708763
0.00115179
0.0027557
0.00714294
0.00731266
0.00660594
0.0046123
0.00478643
0.00750006
0.00722953
0.00578341
0.00561039
0.00717664
0.00589028
0.00569424
0.00328036
0.00756732
0.00724189
0.00351859
0.00249805
0.00729178
0.00727092
0.00259163
0.00679156
0.0066217
0.00667058
0.00727104
0.00600412
0.00647342
0.00673275
0.00620805
0.00406548
0.00425745
0.00392984
0.00215746
0.00491987
0.00712792
0.00545051
0.00238929
0.00192419
0.0074988
0.00329844
0.00666364
0.00462638
0.00659197
0.00534124
0.00352856
0.00751395
0.00239126
0.00432871
0.00370351
0.00322272
0.00270633
0.00216453
0.00591738
0.00713381
0.00755745
0.00501428
0.00739993
0.00390263
0.00670123
0.00480044
0.00751993
0.00575498
0.00759299
0.0032131
0.00653889
0.0072975
0.00463337
0.00756743
0.00757186
0.00320539
0.00496406
0.00691891
0.00301447
0.00729438
0.0062199
0.00291803
0.0064653
0.00193773
0.00752881
0.00647638
0.00692108
0.00538895
0.00588455
0.00464462
0.00384473
0.00717067
0.00333443
0.00219319
0.00398477
0.000475766
0.00412553
0.000607089
0.000965675
0.00720816
0.000685778
0.00304231
0.00536416
0.0059258
0.0036854
0.00552894
0.00163148
0.0069336
0.000566599
0.0059888
0.00736744
0.00712266
0.00701859
0.00385247
0.00397549
0.00716102
0.00633959
0.00556952
0.00411546
0.00743357
0.00409807
0.00711133
0.000539524
0.00078273
0.000417544
0.00754679
0.00745171
0.00738387
0.00370499
0.000561514
0.00482993
0.00324306
0.0014997
0.00479643
0.00378118
0.00312542
0.00539676
0.00196345
0.00178343
0.00762328
0.0069372
0.00746952
0.00158708
0.00748852
0.00584147
0.00691496
0.00732749
0.00574686
0.00633338
0.000637235
0.00666183
0.00567233
0.00301911
0.00755511
0.000633551
0.00738926
0.00746039
0.00707813
0.0073673
0.00730765
0.00749757
0.00736543
0.00730468
0.00681937
0.00659002
0.00722443
0.00587181
0.00433408
0.00744164
0.00736467
0.00622497
0.00742393
0.00744273
0.00344504
0.00520663
0.00754637
0.00720549
0.00398326
0.00179149
0.00675312
0.00457751
0.00487085
0.00736963
0.00733987
0.00288992
0.00693663
0.00581627
0.00741404
0.00290062
0.000422584
0.00561888
0.00749212
0.00192824
0.00750711
0.00729695
0.00400287
0.00499344
0.00750529
0.00548591
0.00748515
0.00754501
0.00492633
0.00421973
0.00441031
0.00452849
0.00728887
0.00702013
0.00473915
0.00706996
0.00714258
0.00507018
0.00692494
0.00610178
0.00729893
0.00659692
0.0043378
0.00215523
0.00742635
0.000908843
0.00750829
0.0022452
0.00260414
0.00360365
0.00361971
0.00744312
0.0027576
0.00748374
0.00405313
0.00721922
0.000746565
0.000751759
0.00731484
0.00439098
0.00560672
0.00526014
0.00512925
0.00495498
0.00612203
0.00421542
0.0056402
0.00745635
0.00414733
0.00654189
0.00734067
0.00420548
0.00637865
0.006991
0.000922266
0.000270577
0.00731913
0.000438973
0.000318849
0.00277919
0.000448884
0.000621987
0.00734587
0.00590988
0.00615359
0.00632521
0.000549238
0.00396705
0.00736842
0.00724615
0.00664974
0.00623021
0.0046933
0.00513072
0.000865218
0.00038176
0.00131472
0.00538259
0.00120971
0.00658881
0.00698224
0.0072018
0.00645008
0.00714819
0.0044238
0.00484669
0.00169832
0.00568878
0.00749242
0.00576792
0.00710151
0.00462579
0.00714792
0.00661798
0.00616775
0.00562142
0.00562809
0.00241605
0.00300904
0.00658996
0.00439945
0.00713383
0.000934189
0.00307571
0.0022846
0.00738258
0.00274082
0.00455808
0.00547508
0.0075065
0.00702249
0.00670914
0.00650669
0.00385194
0.00349335
0.00621635
0.00629251
0.00715577
0.00248777
0.000917247
0.00746164
0.00209562
0.00711247
0.00187549
0.00738743
0.00705651
0.00751194
0.00594859
0.00693004
0.00346187
0.00659782
0.00753439
0.00755592
0.00699515
0.00521429
0.0029791
0.00534234
0.00756859
0.00694099
0.00732776
0.00725147
0.0068934
0.00517399
0.0058747
0.00342891
0.00478774
0.0013885
0.000541437
0.0060629
0.00577445
0.0067183
0.0073634
0.00168525
0.00143805
0.00473417
0.00706853
0.00453654
0.00618289
0.007372
0.00152193
0.0074659
0.00167439
0.00329862
0.00325992
0.00643361
0.00262201
0.0076209
0.00592374
0.00588165
0.00747578
0.00754713
0.007246
0.000815757
0.00693468
0.00257415
0.00742995
0.00171829
0.00705267
0.00663389
0.00252892
0.00284549
0.0052797
0.00756991
0.00102293
0.00730162
0.00711722
0.00728149
0.00724769
0.00748628
0.00297012
0.00595339
0.00702538
0.00721593
0.00585211
0.00750918
0.00127006
0.00737199
0.00627857
0.00097027
0.00553277
0.00745583
0.0010264
0.00137248
0.00758347
0.00033172
0.000345281
0.00627319
0.00716042
0.00735679
0.00751389
0.00443957
0.00308149
0.00162675
0.00754135
0.00290375
0.00719268
0.00186199
0.00252846
0.00445119
0.00614335
0.00194152
0.00173782
0.00721371
0.00466274
0.00513966
0.00418083
0.00313799
0.00306266
0.00746957
0.00424194
0.00289627
0.00605135
0.00552242
0.00313474
0.0045502
0.00739829
0.00232977
0.00405611
0.00597344
0.00304239
0.00160609
0.00685699
0.00496307
0.00688187
0.00194989
0.00563589
0.00708368
0.00746355
0.000243947
0.0045253
0.00607207
0.00040833
0.000727792
0.00755248
0.00460636
0.000113559
0.00217922
0.000944124
0.00200421
0.00125556
0.000535578
0.00700437
0.00743658
0.00583131
0.00423421
0.00150573
0.00210451
0.00745529
0.00324632
0.00617045
0.00536422
0.00716428
0.00475087
0.00600703
0.00233855
0.00043203
0.00322968
0.00394175
0.00434646
0.00700632
0.00348034
0.00694928
0.0058606
0.00511523
0.00597862
0.00735685
0.00207423
0.00496833
0.00722592
0.00154869
0.00172252
0.000958567
0.00119149
0.00421545
0.00738203
0.00504199
0.00752157
0.000825717
0.00566935
0.000631943
0.00472575
0.00608682
0.00649407
0.00544474
0.00506976
0.00599474
0.0027016
0.00516238
0.00730693
0.00191495
0.00625788
0.00741081
0.00506745
0.00416401
0.000640119
0.00649928
0.00189164
0.00510117
0.00741492
0.00755148
0.00264164
0.00561742
0.00453755
0.0073803
0.00612182
0.0051678
0.00516768
0.00506496
0.00509085
0.00651278
0.00104754
0.000592689
0.00606189
0.00088866
0.00601603
0.00346332
0.00515048
0.00749474
0.00723961
0.00684319
0.00623552
0.00534662
0.00751724
0.000489237
0.00187801
0.00425665
0.00617779
0.00746258
0.00427054
0.00739939
0.00274748
0.00705885
0.00111771
0.00435072
0.0074911
0.00518168
0.00748786
0.00670809
0.00597961
0.00745572
0.00437887
0.007454
0.00738038
0.00522992
0.000953668
0.00759968
0.000846616
0.00213872
0.00235218
0.000740707
0.0047388
0.00667931
0.00266169
0.0048254
0.000793355
0.000490914
0.00067086
0.00586211
0.0069718
0.00484327
0.00290909
0.000840204
0.00282603
0.00414107
0.00705153
0.00627755
0.00609169
0.00183416
0.00657375
0.00446856
0.00180553
0.00227805
0.00571849
0.00249606
0.00108704
0.000742069
0.00644434
0.000313056
0.00142009
0.000577953
0.000717064
0.00445124
0.0031743
0.00752295
0.00746567
0.00526927
0.00069994
0.00201364
0.00541158
0.00508277
0.00753452
0.00126324
0.000780275
0.00756801
0.0022991
0.00442803
0.0075518
0.00227825
0.00756354
0.00753488
0.00584751
0.00523366
0.00171563
0.00738071
0.00756509
0.00694077
0.00538501
0.00548506
0.00108045
0.00150498
0.00758126
0.00152615
0.00728954
0.0075154
0.00744864
0.00189321
0.00470176
0.00109547
0.00443535
0.00729054
0.00711737
0.0014083
0.000729875
0.00549463
0.00477698
0.00159218
0.00578453
0.00615577
0.00303925
0.00322186
0.00125581
0.00194801
0.00255247
0.000933752
0.00725545
0.00126761
0.00723329
0.00460464
0.00739566
0.00230385
0.00296007
0.00738541
0.00190404
0.00131989
0.00459173
0.00185025
0.00609579
0.00731379
0.00543117
0.00386196
0.00543672
0.00423471
0.000794373
0.00593931
0.00352925
0.00183612
0.00179321
0.000467033
0.00177151
0.00425082
0.000520426
0.0072596
0.00750063
0.00352255
0.00292158
0.0046358
0.00160695
0.00125287
0.0042196
0.00709451
0.00657098
0.00339961
0.00372749
0.00423893
0.00214462
0.00126557
0.0050208
0.00684624
0.00237094
0.00151753
0.00129201
0.000485748
0.00391603
0.00543857
0.00164456
0.00405256
0.00519404
0.00742347
0.00381309
0.00215438
0.00151417
0.00369925
0.00572903
0.00409892
0.00740783
0.00353307
0.000784001
0.00459947
0.00237793
0.00730265
0.00238099
0.00228079
0.00380155
0.0053611
0.00562495
0.00155259
0.00128391
0.00453017
0.00162996
0.000670768
0.00674344
0.00726417
0.00694336
0.00116407
0.00684519
0.00266881
0.00726632
0.00177613
0.00056973
0.00401736
0.00477199
0.00437962
0.00716865
0.00524976
0.00331697
0.000680395
0.0042884
0.00104199
0.00723676
0.00287412
0.0042019
0.00260071
0.00416697
0.00132234
0.00169957
0.00167354
0.00616124
0.000535609
0.00474118
0.0056762
0.00609566
0.00656848
0.00681701
0.00536833
0.00150423
0.00228987
0.00319213
0.00715828
0.00656386
0.000670741
0.000714432
0.000715196
0.00161494
0.000632596
0.00209026
0.00404868
0.00129116
0.00579387
0.00114659
0.00216158
0.00144334
0.00115336
0.00497052
0.00679922
0.00629965
0.00740514
0.00181988
0.00199415
0.00451948
0.00531017
0.0014533
0.0071754
0.00504265
0.0074208
0.00735696
0.00315172
0.00228383
0.00309948
0.00422636
0.00646493
0.00202426
0.00751718
0.00551605
0.00466519
0.00689191
0.00278493
0.00123306
0.00623159
0.00267997
0.00571771
0.00144748
0.00207596
0.00310699
0.00398973
0.000200749
0.000260258
0.00128876
0.000713731
0.00356694
0.00420391
0.00054313
0.00114033
0.00675622
0.0012918
0.00355031
0.00430563
0.000417957
0.00276459
0.0069664
0.00331234
0.00204918
0.00730777
0.00064624
0.000311615
0.00340924
0.000590062
0.00270953
0.000778946
0.000421782
0.00689251
0.00472978
0.00289733
0.00110547
0.00391245
0.00699629
0.00257916
0.000453566
0.00730698
0.00304183
0.00615938
0.00234056
0.00748233
0.00699554
0.00147994
0.00110345
0.00380513
0.00226343
0.00636475
0.000921796
0.00738206
0.00753273
0.00150655
0.00117368
0.00522969
0.00701848
0.000611715
0.0013443
0.00114075
0.00389391
0.00334366
0.00164389
0.000989524
0.00559558
0.000759946
0.00153211
0.00679704
0.00477548
0.00122804
0.000347807
0.0030749
0.0022319
0.00647508
0.00715491
0.00220655
0.005283
0.00241338
0.00606467
0.0073592
0.00737953
0.0060928
0.00223053
0.000653311
0.00574113
0.000408778
0.00465913
0.00566675
0.00159358
0.00731378
0.00476706
0.00637441
0.00571457
0.00196704
0.00712025
0.00138874
0.00765094
0.00029532
0.000672849
0.00140476
0.00199055
0.00689899
0.005681
0.00360757
0.00733179
0.000630142
0.000620023
0.00355645
0.00205566
0.000672898
0.000653936
0.00189206
0.00100841
0.0004747
0.00409503
0.00742067
0.000498196
0.00522617
0.00723289
0.00550228
0.000675558
0.000321772
0.00536354
0.00584564
0.00151228
0.0019752
0.00128856
0.000535838
0.00359501
0.000850983
0.000932558
0.00353844
0.00524654
0.000606084
0.00634094
0.000751098
0.000185136
0.00750976
0.00609223
0.00504065
0.0070215
0.00212279
0.00437971
0.0071658
0.00276839
0.00421899
0.000930748
0.00179842
0.00568338
0.00115256
0.00663947
0.000301757
0.00641898
0.00425037
0.00428535
0.00743335
0.000821554
0.00495022
0.0032173
0.00256042
0.00221189
0.0045588
0.0020825
0.00212736
0.000719373
0.00681647
0.000697046
0.000645504
0.00152762
0.00443551
0.000964996
0.0021081
0.00485463
0.00600657
0.000985932
0.000837897
0.00218497
0.000523732
0.00164989
0.00103867
0.000874526
0.00298074
0.00268879
0.000581684
0.00151683
0.0074559
0.00271308
0.0044765
0.00150284
0.00314029
0.000610497
0.00681025
0.00477278
0.00570998
0.000888777
0.00567133
0.0004328
0.00253658
0.00603165
0.00711198
0.00262868
0.0023382
0.000841304
0.00229505
0.00333791
0.00131204
0.00093885
0.00502604
0.000809652
0.00129382
0.00467701
0.000445281
0.00112555
0.00159162
0.00189765
0.00559128
0.001963
0.000544043
0.00215976
0.0010888
0.00279669
0.00678379
0.00208899
0.004956
0.00388424
0.00623683
0.00122528
0.00183396
0.00145054
0.00607794
0.00184702
0.00527919
0.00555614
0.0014294
0.00196765
0.00247431
0.00455404
0.00703018
0.000304511
0.00113586
0.00183553
0.00144334
0.00213253
0.00724
0.000923437
0.000639374
0.00173727
0.00300928
0.00508041
0.00230974
0.00221193
0.00090223
0.00696172
0.00122936
0.00151831
0.00720501
0.00166585
0.00350418
0.00255904
0.00294929
0.00159234
0.00202852
0.00742291
0.000490347
0.00262826
0.000580901
0.00271678
0.00632108
0.00252975
0.00313717
0.00168603
0.00441161
0.00602629
0.00470287
0.000394666
0.00563711
0.00586663
0.000550329
0.0075494
0.00529736
0.000590267
0.00616379
0.00251461
0.00148074
0.00272006
0.00102551
0.00549384
0.000173039
0.00122517
0.000702911
0.00217985
0.00128184
0.0042558
0.000884304
0.0016812
0.00126411
0.00231354
0.00428574
0.00581638
0.0044117
0.0045094
0.00295483
0.000420158
0.00330152
0.0069785
0.00674805
0.0068503
0.00434921
0.00144995
0.00716594
0.00720865
0.00311254
0.000816202
0.00742021
0.00295267
0.00481264
0.00572095
0.00729128
0.00175025
0.0031981
0.00736061
0.00729695
0.00358629
0.0040701
0.00597882
0.00397376
0.000535345
0.00421976
0.00503527
0.00723712
0.00764304
0.0010546
0.00644998
0.00716198
0.000619419
0.00133708
0.000754213
0.00722636
0.000563077
0.0004207
0.00742814
0.000187893
0.000746002
0.000214861
0.0034068
0.0056573
0.00449183
0.00173432
0.00760311
0.00428612
0.00298593
0.00401897
0.0034422
0.00503607
0.0035961
0.0011081
0.00471707
0.0045047
0.000663119
0.00458176
0.000191005
0.00228704
0.00111921
0.0074949
0.00192859
0.00187663
0.00736081
0.00550078
0.00201003
0.00758926
0.00197422
0.00167654
0.00031171
0.00638464
0.00150788
0.00704497
0.00324886
0.00530604
0.00685571
0.00128223
0.00673551
0.00230373
0.00719892
0.00107108
0.00018761
0.00497267
0.00755222
0.000314684
0.00504353
0.00018783
0.00633576
0.00389739
0.00573082
0.00565523
0.00695203
0.00704804
0.00612136
0.00275168
0.00639289
0.0022196
0.00268923
0.00586694
0.00751236
0.00260023
0.000863347
0.00430912
0.00108606
0.00719949
0.00594251
0.00316717
0.00453315
0.00569695
0.00707439
0.00246238
0.00307286
0.00729484
0.00520235
0.00621872
0.00540024
0.00396492
0.00116271
0.00126744
0.00545994
0.00415905
0.00221363
0.00454835
0.0072061
0.00617777
0.00742843
0.00219426
0.00228044
0.00195147
0.00370534
0.00534379
0.00585214
0.00127547
0.0071233
0.00738635
0.00655221
0.00145996
0.00241563
0.00110879
0.00105631
0.00102199
0.00472235
0.0063375
0.00663808
0.00630734
0.0072679
0.00106741
0.00538778
0.00747692
0.00474814
0.00360286
0.00572201
0.00271671
0.00617638
0.00241204
0.00420236
0.00356698
0.00734248
0.00554131
0.00444151
0.00404472
0.00597453
0.00320493
0.00454459
0.00524353
0.00543519
0.0054447
0.00488699
0.0025119
0.00217025
0.00692002
0.00314036
0.00339845
0.00140544
0.00231049
0.00744691
0.00730265
0.00320856
0.00668178
0.00709426
0.00258479
0.00743534
0.0074558
0.0056123
0.00490323
0.0032414
0.00547234
0.00249991
0.00736561
0.00593404
0.000519014
0.00475192
0.00437607
0.00673297
0.00661136
0.00416589
0.0043927
0.000235069
0.00361246
0.00128557
0.00742733
0.00676008
0.00519235
0.00748626
0.00731631
0.00362035
0.00440742
0.00725968
0.00753027
0.0036434
0.000848589
0.00133424
0.00312017
0.00188572
0.00380683
0.00588205
0.00360363
0.00219082
0.00216623
0.00509741
0.00515429
0.000752926
0.00647497
0.00488294
0.00416114
0.0043113
0.00746371
0.000295007
0.00610878
0.00275736
0.00703449
0.00306036
0.00380848
0.000255196
0.000210746
0.00591542
0.0073382
0.00749597
0.00361823
0.00391572
0.00683624
0.000200979
0.00112148
0.00658833
0.00220222
0.00139197
0.00666098
0.00739493
0.00231482
0.00752519
0.00647382
0.00720403
0.00561651
0.00449742
0.00441081
0.00506402
0.00625864
0.00278769
0.00560747
0.00720145
0.00113491
0.00555233
0.00440962
0.00201873
0.00131961
0.0011859
0.00359374
0.0019873
0.00619073
0.00180423
0.00310994
0.00715957
0.000450428
0.00132862
0.00132238
0.00452184
0.00355397
0.00407683
0.00369085
0.00278172
0.007521
0.00744756
0.00553702
0.00549365
0.000893741
0.0014224
0.000781065
0.0008747
0.00380451
0.00218027
0.007511
0.00754041
0.00462647
0.00663133
0.00568854
0.00715983
0.00768426
0.00147977
0.000540783
0.0074853
0.00755397
0.0036546
0.00120915
0.00437863
0.00756782
0.00659927
0.00115543
0.000793158
0.00535895
0.00174259
0.00328439
0.00231438
0.00067611
0.00265806
0.00722382
0.0075647
0.00583696
0.000802382
0.00723383
0.00403451
0.00473205
0.00757145
0.000563625
0.000286462
0.000178631
0.0018042
0.00265304
0.00708547
0.00713435
0.00376082
0.00566479
0.000376405
0.00061662
0.000682527
0.000329088
0.00115943
0.0020124
0.00739476
0.000755241
0.00699207
0.000232689
0.00399933
0.000653592
0.00464903
0.00184239
0.00733896
0.00262007
0.00131381
0.0020868
0.0073924
0.00552958
0.00423037
0.000886466
0.00137384
0.00488955
0.00582952
0.000373967
0.000374932
0.00566569
0.00129987
0.000651486
0.00109207
0.00646974
0.00741196
0.000741731
0.000517068
0.00200501
0.00740256
0.000960827
0.00730719
0.000729223
0.00067849
0.000566881
0.00300348
0.00696398
0.00214966
0.0074932
0.00569479
0.00461634
0.00209112
0.00644383
0.00509416
0.00668075
0.00414809
0.00574762
0.00743273
0.00746407
0.004162
0.00737756
0.00738829
0.00474408
0.00695015
0.00192412
0.00410876
0.00243025
0.00412473
0.00739459
0.00692906
0.000922775
0.00636126
0.00403336
0.00219552
0.000354149
0.00621242
0.00187271
0.00435289
0.000965206
0.00190286
0.00122864
0.00379826
0.00743715
0.00645472
0.00425518
0.00726065
0.00424029
0.00382391
0.00471232
0.00674505
0.00600535
0.0072771
0.00586247
0.00344299
0.00670019
0.002563
0.000589133
0.00443805
0.00475863
0.00534005
0.00344522
0.00122591
0.0018724
0.00473985
0.0058247
0.00363561
0.00101453
0.000843976
0.00553751
0.003513
0.000278173
0.00161425
0.00206616
0.00423267
0.0017181
0.00329213
0.00470216
0.00433771
0.000995793
0.00482726
0.00448833
0.00164742
0.00673495
0.00207441
0.00350427
0.00334457
0.00388331
0.0012688
0.005361
0.00687756
0.00748982
0.00266684
0.0051709
0.00453212
0.00269144
0.00666358
0.000998986
0.00306374
0.0043964
0.000331338
0.00237712
0.00746161
0.00376511
0.000595361
0.00267938
0.0024742
0.00749873
0.00290745
0.00128854
0.00664583
0.00750896
0.000570572
0.00185447
0.00158271
0.00191077
0.00729801
0.00620895
0.0010044
0.000603784
0.000656301
0.00745604
0.00609701
0.000430161
0.00744193
0.00207268
0.0044181
0.00166889
0.000899642
0.00731624
0.00440218
0.000771049
0.00408427
0.00623358
0.00637028
0.0039095
0.00575846
0.00114914
0.000258414
0.00487753
0.00388546
0.000642733
0.000555241
0.000530692
0.00244229
0.000786482
0.00250438
0.000429574
0.00180033
0.00138407
0.000755438
0.00515033
0.00348679
0.000952887
0.000713281
0.000294209
0.00748302
0.00741823
0.000748869
0.00639418
0.00435688
0.000520968
0.00649796
0.00412992
0.00630466
0.00588737
0.00529734
0.00728425
0.000374546
0.000754165
0.00156413
0.00144344
0.00239047
0.0055052
0.00463888
0.00616928
0.00341983
0.00634018
0.0071044
0.00596992
0.00628245
0.00082848
0.000770812
0.00704443
0.00229695
0.00719886
0.00405355
0.00284077
0.00337925
0.00397485
0.00610487
0.000749924
0.0012862
0.00544565
0.000811937
0.00299356
0.00143737
0.00645632
0.00452706
0.000738688
0.00283485
0.00110494
0.0030288
0.00291913
0.0030953
0.00721421
0.000613352
0.00749588
0.00716968
0.00288089
0.00361338
0.00141767
0.00376742
0.00421952
0.00383205
0.000661645
0.00482941
0.00231547
0.00252133
0.0074834
0.00293139
0.00704173
0.00158818
0.000149718
0.00432839
0.000447607
0.00398356
0.00599028
0.00239517
0.00580331
0.00647692
0.0064394
0.00371435
0.00111103
0.00116184
0.00171873
0.000566859
0.00245427
0.00602138
0.000255015
0.000971255
0.00719607
0.00158478
0.00153439
0.00495952
0.000719361
0.000379745
0.00266996
0.00109318
0.00146104
0.00405216
0.000771713
0.00215565
0.00616444
0.00311511
0.000796734
0.000946353
0.00752287
0.000938998
0.00582256
0.00123888
0.00654335
0.00154758
0.00381711
0.000998532
0.000758035
0.0059647
0.00549051
0.000171198
0.00753366
0.00535326
0.000995231
0.00667831
0.00297685
0.00276507
0.00362424
0.000363055
0.00136502
0.000191417
0.00129117
0.00320715
0.00129957
0.00741241
0.00680421
0.00119452
0.00755497
0.00415701
0.00174783
0.00650729
0.00143252
0.000724666
0.00729071
0.00204274
0.00715084
0.000797859
0.00514701
0.000457382
0.00323534
0.00247412
0.00719753
0.00271416
0.00264653
0.00722717
0.00663979
0.00389079
0.00756693
0.00100039
0.00561212
0.00266856
0.006594
0.0058788
0.00374109
0.00288834
0.00242105
0.00186373
0.00347116
0.00585721
0.00437338
0.00190614
0.00104835
0.000622199
0.000692974
0.00135958
0.000994052
0.00238997
0.00300584
0.000328815
0.000967123
0.00104929
0.00216073
0.00361353
0.00188489
0.000818264
0.00330891
0.00124137
0.00211708
0.00682028
0.00310104
0.0013858
0.00419489
0.000782015
0.00336466
0.000799084
0.00214995
0.00104703
0.00137252
0.00214845
0.00075536
0.00196255
0.000813993
0.00304988
0.00156582
0.00533352
0.00181452
0.00652312
0.00664742
0.000983049
0.00423676
0.000687903
0.00137117
0.0062465
0.00238741
0.00625548
0.00131015
0.000998006
0.00706888
0.0064802
0.00186862
0.000753012
0.00491535
0.00294027
0.00125602
0.00100282
0.00700349
0.0073237
0.004046
0.00600493
0.000683571
0.00726721
0.000916731
0.000273037
0.00631098
0.00360426
0.00652612
0.00581184
0.000598024
0.00244009
0.000638737
0.00496323
0.006318
0.000366248
0.000700181
0.00694576
0.00261112
0.0069479
0.00728243
0.00105979
0.00334076
0.0005778
0.00529216
0.00726643
0.00213569
0.00691882
0.00543415
0.0067775
0.00650312
0.00279145
0.00196975
0.00133123
0.00175516
0.00124626
0.0036595
0.0073561
0.00228695
0.0011812
0.000695172
0.000934449
0.00135794
0.00191964
0.000796937
0.000959656
0.00096741
0.00086351
0.00570819
0.00218916
0.00412952
0.00146136
0.00426126
0.00185016
0.00354488
0.00182842
0.000428937
0.00158523
0.00118946
0.00184113
0.00686196
0.00360322
0.00680877
0.00673103
0.0063821
0.00212489
0.00421086
0.00337006
0.00719583
0.00336784
0.00158081
0.000755449
0.00575098
0.000560556
0.00694694
0.00491311
0.00752875
0.00506114
0.00104884
0.00270642
0.00124482
0.0017528
0.00518423
0.00469782
0.00474262
0.00688751
0.00301219
0.00470823
0.00229415
0.00667148
0.00087457
0.00372978
0.00155015
0.00296622
0.00124547
0.00680372
0.00475861
0.00439602
0.00231639
0.00210907
0.000767779
0.00748352
0.00614077
0.000779917
0.0024909
0.00235397
0.00339727
0.00247508
0.00251352
0.00339298
0.00701691
0.0069388
0.00622197
0.00225419
0.00189792
0.00642637
0.000207779
0.00692806
0.0027145
0.00714192
0.00736722
0.00170709
0.00466529
0.00629341
0.000969999
0.0072127
0.00257418
0.00182839
0.00303137
0.00748727
0.00103925
0.00736112
0.00720184
0.00118435
0.00332644
0.00289798
0.000833072
0.00740934
0.00255972
0.00152458
0.00178315
0.000919781
0.000734196
0.00520704
0.00497992
0.00296644
0.00600349
0.00234567
0.00128031
0.00678831
0.00747979
0.00248137
0.00102346
0.00303445
0.00446063
0.00188041
0.00354806
0.00159835
0.0067626
0.00212226
0.00148619
0.00441848
0.00691725
0.00564809
0.0067123
0.00406381
0.00449768
0.00232807
0.00429104
0.000465465
0.00508766
0.00744276
0.000668019
0.00292468
0.00055483
0.00076497
0.00713905
0.00479273
0.00109104
0.00208082
0.00074171
0.00146781
0.00115387
0.00152645
0.000698832
0.00311557
0.00219213
0.00221038
0.000537616
0.00087835
0.00303499
0.000801422
0.000672692
0.00106696
0.000199365
0.000836401
0.00215502
0.00131035
0.00100781
0.000638871
0.00740149
0.00389043
0.000776259
0.00090126
0.00099993
0.0015905
0.00172326
0.000540669
0.00187143
0.00375979
0.00510556
0.00749674
0.00355794
0.00735321
0.000818785
0.00298454
0.0040361
0.000682137
0.00517289
0.00239493
0.00633876
0.00655404
0.00328874
0.00677849
0.00178557
0.00745825
0.00234608
0.000459479
0.00650906
0.00710113
0.00523142
0.00679014
0.00110932
0.0018938
0.00628705
0.00689724
0.000542731
0.00734143
0.00597828
0.00667778
0.00217299
0.00413626
0.0048726
0.00701113
0.00653791
0.000308646
0.00592167
0.00218507
0.006798
0.00717296
0.00731499
0.00696007
0.005257
0.00397477
0.00739213
0.0046857
0.00417923
0.00289798
0.000909144
0.00130339
0.00474291
0.00199625
0.00467172
0.00275791
0.00348285
0.00401266
0.0069548
0.00236373
0.00445619
0.00648153
0.00217552
0.00412648
0.003732
0.00110822
0.00516813
0.00293588
0.00130574
0.00475723
0.00110188
0.00409326
0.000917957
0.000315077
0.0029783
0.00668419
0.00126702
0.000457804
0.00282321
0.00699782
0.00744115
0.00705712
0.00616124
0.00506183
0.00747354
0.0075081
0.00494266
0.00363003
0.00718372
0.00724351
0.0074475
0.00659993
0.0027569
0.00180467
0.00326367
0.00698522
0.00472862
0.000772123
0.00677258
0.00708696
0.0040243
0.000465396
0.000392671
0.00385802
0.00507232
0.00682255
0.00368394
0.00542268
0.000515799
0.00196135
0.00582909
0.00412805
0.0069585
0.0045075
0.00233223
0.00476963
0.00340166
0.00511682
0.0013367
0.00196124
0.00130693
0.00106694
0.000288773
0.00142513
0.0019423
0.00503967
0.00475568
0.00389699
0.00331935
0.00716016
0.00547884
0.000377821
0.0072566
0.00190527
0.000726914
0.0035039
0.00305564
0.000595732
0.00188502
0.00554521
0.00401906
0.00735394
0.00203089
0.000810475
0.00403128
0.00169381
0.00151298
0.00255263
0.000539427
0.000670352
0.00411816
0.00534285
0.000995562
0.00600862
0.000662433
0.000680426
0.000793777
0.00556373
0.00733469
0.00044858
0.00686106
0.000437133
0.00227585
0.0037132
0.000782842
0.00106207
0.00632693
0.00747832
0.00104383
0.00717566
0.00722617
0.00631803
0.00728669
0.00448767
0.00671477
0.00251884
0.00651654
0.000296012
0.00354632
0.00619838
0.0051927
0.000258041
0.00457744
0.000418088
0.00614307
0.0044002
0.00466419
0.00112157
0.00663208
0.00392129
0.00667948
0.000666864
0.0020413
0.00199529
0.0011057
0.00329006
0.00691565
0.000945445
0.00361801
0.00343595
0.00310001
0.00672536
0.00356468
0.00551035
0.00750594
0.000382915
0.00151914
0.00558953
0.00666613
0.00177812
0.00627503
0.00321927
0.00437025
0.00671272
0.00131894
0.006182
0.00672298
0.00474105
0.00153036
0.0057554
0.00610813
0.00640501
0.00389037
0.0075694
0.00590059
0.00696849
0.00289747
0.00650101
0.00128525
0.00258292
0.00489827
0.000781277
0.00679075
0.00344594
0.00103606
0.00104981
0.00085514
0.00463056
0.00256809
0.00222138
0.000531267
0.00402865
0.00259498
0.00402978
0.00697883
0.00380791
0.0018416
0.00410392
0.00674217
0.00715155
0.00715273
0.000291346
0.0071389
0.00670121
0.00300512
0.000385688
0.000684314
0.00528773
0.000208608
0.000477478
0.000865234
0.000930634
0.000753315
0.000710978
0.0063255
0.000813389
0.00409755
0.0073305
0.00154318
0.000460869
0.00242402
0.00735797
0.00711635
0.000703796
0.00651605
0.000449592
0.00738242
0.00294179
0.00675043
0.00283042
0.000538544
0.00707695
0.00320081
0.00331468
0.00715953
0.00370499
0.00733979
0.00185695
0.000489112
0.000384593
0.000703856
0.0016226
0.00151689
0.00744541
0.00720468
0.00681018
0.00394783
0.00737755
0.00187814
0.00751961
0.000999988
0.00427372
0.00721131
0.00705153
0.00494202
0.00709262
0.00435493
0.00339574
0.00753422
0.00352434
0.000766708
0.00672549
0.00139363
0.000791882
0.00617414
0.000199579
0.000428581
0.0025347
0.00295643
0.00536039
0.0013171
0.00550748
0.00220562
0.00102511
0.00695913
0.00180712
0.00696331
0.00255903
0.00543401
0.00299607
0.00233595
0.000536631
0.00339484
0.00442755
0.000699878
0.00172714
0.00214072
0.000779327
0.00540026
0.00129706
0.00562646
0.00193796
0.00282368
0.0060164
0.00115845
0.00382097
0.00402812
0.00729587
0.000764334
0.000782651
0.00064277
0.00664597
0.00473461
0.000951176
0.000697067
0.00174446
0.00521857
0.00267694
0.00128583
0.000871617
0.00217474
0.00712483
0.00126092
0.00441942
0.00683843
0.00416546
0.000626226
0.00659067
0.00209026
0.00318904
0.00689445
0.00299076
0.002842
0.00736385
0.00547501
0.00193406
0.00230216
0.000621082
0.0059694
0.00154397
0.00258123
0.00361019
0.00319185
0.00196938
0.00137597
0.00370079
0.00669147
0.00705832
0.00679811
0.00053042
0.00585524
0.000972541
0.0033406
0.00607158
0.0065454
0.00442186
0.00754409
0.00262457
0.00734588
0.00265471