/*--------------------------------*- C++ -*----------------------------------*\
| =========                 |                                                 |
| \\      /  F ield         | OpenFOAM: The Open Source CFD Toolbox           |
|  \\    /   O peration     | Version:  2506                                  |
|   \\  /    A nd           | Website:  www.openfoam.com                      |
|    \\/     M anipulation  |                                                 |
\*---------------------------------------------------------------------------*/
FoamFile
{
    version     2.0;
    format      ascii;
    arch        "LSB;label=32;scalar=64";
    class       volScalarField;
    location    "0.0100456";
    object      omega;
}
// * * * * * * * * * * * * * * * * * * * * * * * * * * * * * * * * * * * * * //

dimensions      [0 0 -1 0 0 0 0];

internalField   nonuniform List<scalar> 
47425
(
53.0827
70.8093
57.9395
152.944
72.8278
66.9432
64.7056
96.3366
51.3649
245.643
138.373
51.8427
60.6356
66.1331
79.4671
94.588
56.6201
60.1601
787.547
135.034
72.0947
49.6448
102.142
56.2276
51.1522
51.0669
63.2103
636.463
56.3852
56.1604
54.1078
49.9048
54.8272
59.2644
50.986
64.5116
50.2406
73.7102
66.6931
66.0337
74.3113
50.8502
51.2281
146.517
1541.62
110.594
88.7411
79.475
70.1389
50.957
464.889
63.7439
52.1437
459.197
116.203
116.872
49.8884
60.9763
68.2032
61.8597
621.897
1497.88
642.676
53.6499
52.9478
52.1698
62.8756
54.9296
581.288
55.3361
64.7073
52.9743
53.6458
76.5839
445.041
52.4445
642.991
74.8862
1211.39
92.3258
473.122
58.3492
51.9288
56.608
50.0515
71.2651
51.9712
49.7536
57.4796
159.283
50.3714
79.0095
50.6282
109.983
148.488
189.498
50.0553
49.6785
67.6531
81.3399
57.8498
91.2567
52.0134
102.479
50.1807
54.3874
50.6677
68.831
48.8542
51.6345
229.018
57.13
54.9803
145.458
54.8283
839.312
53.9323
201.038
84.4726
57.3165
59.7871
52.8162
57.5189
59.4176
99.8792
57.735
76.6416
50.6148
99.9528
51.4021
51.7875
103.507
128.418
125.932
52.4565
62.8733
55.1135
58.687
65.0335
86.8226
72.6575
135.519
63.4866
58.8022
54.4176
51.8749
60.2933
58.5196
148.356
74.4309
57.5326
450.269
55.3541
643.68
53.8329
83.9832
57.703
782.971
96.9789
74.0928
54.4014
50.4718
51.7132
51.3366
260.608
720.94
50.3323
451.241
101.748
605.341
442.727
90.6638
74.5513
51.6521
75.8973
72.3218
652.792
58.4031
53.2667
49.0129
860.374
49.943
54.2038
51.9098
50.4954
54.1082
53.5896
83.3279
139.893
52.875
53.8702
59.3257
71.1089
80.4962
49.9881
52.3578
67.0398
65.8285
52.7156
63.6608
66.2593
119.351
49.4777
52.0603
55.464
152.042
52.8401
51.9553
90.5521
55.8991
57.931
57.2932
54.07
64.375
58.4274
56.8726
62.8583
98.3189
55.2832
97.4497
121.577
77.6898
53.3883
71.4923
167.311
106.252
50.4059
117.72
57.9567
64.6136
58.9561
70.6787
109.504
49.8548
157.677
85.2224
116.354
121.382
97.7224
173.553
63.0083
53.3054
49.9636
76.693
51.2152
63.2625
55.1689
78.5285
49.4466
67.6553
49.2925
83.923
58.1838
52.3239
84.0847
50.6425
50.449
120.473
74.5643
56.6997
128.007
55.2729
63.2106
130.987
59.866
94.3177
49.855
59.7086
55.4439
71.4268
67.2461
89.711
108.216
54.138
80.2033
175.025
82.9649
142.398
98.8784
181.838
590.214
51.8129
594.759
126.678
70.6849
64.4484
102.705
66.9075
93.1868
55.351
501.233
54.8001
50.9971
52.513
53.7608
99.6825
95.4914
54.2695
58.5701
59.354
94.3315
50.9166
91.9972
53.436
587.164
888.447
602.261
49.2581
50.5071
52.2819
99.9239
572.983
77.6425
114.979
112.169
77.7493
99.9008
125.595
69.9859
248.208
104.055
50.3494
54.3222
50.0392
87.2223
50.0322
66.553
54.5105
51.8302
67.3697
60.1921
396.661
54.577
65.9894
131.135
50.5737
409.572
50.9739
49.7191
54.4166
53.513
53.7834
49.9748
50.7268
51.8505
57.294
59.5154
53.079
64.6925
89.1888
52.5173
52.6514
60.1895
51.9261
51.9014
59.7856
73.9187
50.4027
55.3253
95.7301
64.1715
56.5303
85.3908
78.7273
51.8732
51.8255
134.888
56.7796
64.1648
52.1547
135.375
520.428
65.46
50.3439
200.448
50.1932
51.9578
97.1698
78.4092
50.5111
71.3443
50.7905
49.3678
76.1247
89.6951
85.5423
84.9327
51.6966
56.0094
81.0036
52.3762
53.9595
75.1852
55.9166
62.5644
52.3922
56.3252
86.7645
69.6278
51.1691
277.487
49.8488
175.571
74.8514
109.456
107.871
50.5852
136.242
49.496
94.889
53.2989
1234.72
264.278
53.7888
57.3811
68.5811
73.2652
73.8363
75.8341
63.5319
89.6325
68.3503
50.9214
90.4449
58.1786
51.2495
66.7819
59.9255
54.2099
136.367
1110.29
52.6789
267.385
868.079
93.0431
867.301
561.055
51.7065
64.6255
62.4665
60.7913
545.404
94.2203
50.4375
51.9283
57.7699
58.9826
78.2804
71.8189
243.452
565.057
130.141
70.8333
77.2984
58.167
54.6151
52.7947
60.0988
53.7146
86.0576
78.8416
134.297
68.7403
50.5156
66.6781
53.7896
82.9226
53.2384
56.9558
61.9422
68.0919
67.7965
110.237
129.354
58.6818
88.2111
53.6279
285.647
121.308
73.8445
53.12
142.849
83.0146
54.3017
51.4388
55.4871
59.3348
58.4645
56.228
112.238
60.2939
54.4129
53.0754
154.839
95.0453
50.2114
58.9646
53.1603
62.4164
50.2466
54.6717
50.3998
64.57
56.4494
110.347
57.8675
49.5533
49.2051
55.3081
72.3364
127.214
53.2474
50.5441
53.8985
51.3168
52.9622
55.4296
74.5786
67.0724
56.6916
79.2346
103.568
374.38
64.1112
67.2396
56.7393
50.9631
95.7911
96.679
81.4684
54.0464
85.0139
62.8679
53.2718
104.846
51.8789
356.172
56.9092
58.3714
62.1432
95.6111
49.28
63.2179
63.8739
51.0008
50.098
52.5333
939.15
53.4868
154.114
51.5765
83.7954
56.2037
59.183
75.2248
72.5661
73.3889
50.118
316.134
51.1506
53.0877
52.3441
51.5697
49.9346
65.7437
63.0244
56.0808
52.3811
64.6591
49.7071
155.686
51.7027
59.4563
338.642
67.8998
51.5486
178.613
432.553
50.1211
676.913
702.458
59.6948
56.7774
50.7866
50.6405
88.5203
93.9849
285.745
52.8017
135.406
52.3669
86.2184
64.1253
87.6619
61.6092
199.128
82.626
52.2516
81.145
72.8934
66.4765
120.882
127.519
50.9138
91.9337
135.004
63.8458
69.9326
99.7947
58.4223
50.8334
105.675
93.4787
63.6701
125.448
106.777
54.8806
78.6593
55.1818
63.8692
69.0708
53.9351
51.3343
1354.21
56.5989
64.3464
800.147
818.967
48.9995
79.8121
1400.42
178.085
86.3653
148.834
121.378
542.975
55.3979
49.903
67.3005
103.091
115.704
115.55
50.9215
122.422
60.6282
70.1098
53.9522
79.8294
55.9347
166.843
544.091
121.948
60.7312
87.6363
52.0476
111.377
56.1782
66.6059
73.5726
64.2045
52.1322
189.627
76.7933
52.8572
77.5225
194.825
678.931
170.028
89.9641
53.5846
75.7731
49.4072
744.633
67.1589
364.809
81.1429
64.439
60.0268
67.686
63.6242
63.9683
68.3936
76.0029
51
209.314
61.966
51.1975
62.8689
90.9852
866.294
59.8635
206.784
61.122
51.2896
49.5426
149.688
66.1173
63.6069
51.2936
62.1029
60.7237
73.4269
73.383
76.3854
57.4786
119.949
192.819
63.423
95.1046
64.3033
110.357
73.62
49.2786
52.2204
57.0677
60.2248
70.0519
50.5211
305.101
241.634
87.1912
61.7296
50.7937
88.5145
50.9752
136.197
53.8418
137.189
87.2483
49.571
73.5176
50.308
55.4507
64.6661
50.9136
86.2614
51.4768
51.5782
55.7713
154.982
49.3221
258.242
100.236
190.677
379.166
79.912
59.3523
61.0511
60.995
135.505
342.968
303.915
64.6941
54.3331
63.5699
123.961
148.291
133.189
91.0179
53.2131
58.8799
64.3027
118.796
58.1389
86.7112
207.867
64.3774
68.1105
155.517
114.185
107.869
57.831
542.353
324.418
218.51
243.475
87.49
125.329
50.4079
50.2782
70.6299
412.891
190.752
68.5455
74.6448
49.4883
263.276
375.926
49.642
172.247
84.6825
49.8098
170.695
49.7553
49.9153
65.5504
72.0658
90.2307
50.7324
49.8566
54.8129
71.2644
70.0898
130.08
90.5782
49.2576
265.732
52.3688
49.6441
50.4531
207.845
82.164
258.316
85.3074
51.532
55.3188
71.6629
981.5
69.5979
79.2569
82.444
67.3363
61.4528
122.021
117.546
130.217
315.243
78.3662
586.07
52.404
68.4474
51.5851
64.0861
51.1771
164.737
129.356
51.9044
340.817
106.475
62.5535
141.523
63.7372
51.6689
71.6882
67.9854
69.166
90.0434
378.338
63.8189
66.2257
206.002
223.399
635.505
220.711
91.8799
188.835
54.2191
50.4962
83.832
76.821
80.2792
84.2907
94.079
88.2418
52.6094
56.6653
111.356
101.548
90.2455
73.7113
1418.99
76.7431
55.7525
83.6058
172.434
131.764
224.948
95.8699
70.5767
99.3738
95.2388
56.104
51.0194
54.5885
98.9162
237.21
102.732
66.5954
91.815
50.0967
109.961
131.123
84.7177
143.741
51.1722
71.8082
132.76
100.799
72.5561
68.6031
107.515
96.4478
84.0603
66.071
148.726
59.1708
54.8585
55.3651
88.672
54.9125
147.898
53.684
228.894
312.791
79.9987
78.3832
87.8201
54.0114
72.5163
114.116
437.146
99.7434
404.756
53.7818
62.5669
55.572
172.549
73.6803
231.565
239.354
235.723
63.4212
278.26
79.083
66.842
62.1303
57.2997
56.905
71.3422
74.6477
81.0573
65.3332
52.2258
60.0544
240.531
632.496
138.106
161.411
523.845
192.412
95.4655
77.239
64.8689
104.329
174.948
189.927
387.619
55.1828
56.3729
60.8427
55.8524
67.7131
103.718
81.7005
57.1826
102.573
52.7809
75.6415
51.123
54.3636
118.847
62.4832
122.802
56.9057
53.7212
163.54
51.5102
69.4019
80.3367
56.7064
66.3461
108.575
62.2149
63.0377
60.2235
133.734
186.145
121.36
92.4327
1694.74
850.615
145.589
420.872
110.119
58.0009
1599.28
283.762
57.9193
70.9406
107.599
88.9578
290.871
135.727
55.6571
118.012
61.0474
51.803
199.853
823.701
110.367
1370.12
138.765
249.609
1305.5
53.6991
80.962
131.368
156.102
98.2667
54.7093
58.0005
738.713
51.8188
132.459
63.2633
160.192
49.6473
55.0113
175.028
181.4
87.7608
61.7697
60.8326
269.84
51.3515
49.5287
109.958
216.485
73.1735
55.3914
954.343
662.241
258.288
98.524
71.6602
141.512
323.638
70.6444
110.789
86.8569
56.7752
81.9833
158.801
984.734
61.9519
61.3557
57.9909
53.457
58.1496
74.7323
133.197
61.7002
51.0621
51.513
62.8743
247.759
1514.2
55.1942
248.023
73.427
65.0219
124.959
51.4245
80.5164
60.3409
59.1886
201.525
53.6714
434.786
49.6956
748.008
875.399
239.852
203.906
55.5978
66.6212
107.39
51.3789
198.859
1782.78
109.156
273.962
188.37
389.028
129.105
715.274
418.354
91.8134
51.2124
2327.04
71.8245
53.0693
68.6573
394.239
1131.87
69.4812
56.0728
360.199
73.9563
353.017
656.832
109.432
128.375
889.414
108.616
56.6967
567.973
52.6462
1012.04
985.232
50.1846
62.7725
76.0651
54.5348
128.052
85.1727
53.5613
127.829
91.4178
116.271
62.7131
53.7252
125.426
54.6002
699.6
59.8673
91.0097
85.2134
51.1195
673.322
74.4573
118.553
145.097
198.936
81.2768
554.777
182.759
133.28
58.5207
1456.66
200.192
112.356
72.6856
148.855
65.9245
78.0693
59.9554
288.716
388.932
87.2628
607.544
151.309
98.6874
171.72
131.622
139.049
527.996
98.8046
49.9943
141.156
84.4816
149.855
154.824
614.668
55.4119
55.8125
67.014
861.146
67.8513
347.554
62.1388
63.2786
54.3773
70.6765
61.2655
183.97
167.255
58.2002
69.4537
90.9041
73.7066
866.735
113.953
81.5146
692.737
251.388
123.604
110.682
69.2379
62.5746
802.773
64.8189
782.507
110.759
56.4693
64.2517
61.182
98.1342
61.9936
75.094
88.1351
78.4773
61.7417
70.0652
71.5366
72.5645
66.7434
204.362
160.169
89.1635
54.4859
690.812
252.723
69.5996
328.024
296.811
52.1221
117.342
490.532
230.515
57.3117
78.6153
112.615
114.111
241.128
53.6599
516.163
94.4991
53.0861
67.2665
112.579
112.169
130.245
67.5597
198.643
49.6899
323.731
112.714
906.626
148.119
61.7205
123.048
101.382
63.8435
67.6501
65.5925
81.6259
1168.64
69.4346
65.6387
776.89
49.725
71.1501
368.833
57.765
130.419
648.871
144.22
81.9111
70.1956
854.883
160.15
253.524
113.392
79.7999
60.2726
104.075
414.756
688.42
74.9246
89.4837
58.556
86.3338
83.7046
132.534
290.296
97.2614
53.1765
58.2418
55.1708
55.8446
89.2773
56.1659
58.8392
125.089
96.9973
51.5645
135.326
82.6546
66.415
52.5887
135.566
60.3389
54.4992
51.0921
107.381
94.0201
53.8404
99.222
580.38
87.7837
55.6019
51.8375
50.4906
165.899
57.3571
52.7567
526.571
684.078
256.966
53.4138
563.889
158.642
51.0686
800.664
111.143
786.592
99.8799
69.3461
86.5615
72.5607
49.7526
87.81
86.2258
94.4533
107.317
73.9416
108.005
142.002
80.9326
67.1405
359.13
84.2293
1256.11
75.1131
574.54
50.7356
123.207
189.286
51.6495
69.5873
188.762
49.8572
208.589
156.737
1049.5
60.5
342.734
54.5555
114.512
76.1177
53.9947
460.582
56.3899
220.166
53.2988
565.204
589.475
76.3959
49.8209
282.764
74.3977
273.953
60.6577
99.0606
67.136
66.6628
54.6885
55.1294
62.3569
144.998
60.3383
179.349
89.073
66.0357
51.1973
146.935
216.979
88.0427
136.308
52.5539
62.8301
122.972
85.5933
65.6721
52.8347
157.336
123.831
52.5042
71.3587
62.1129
71.6713
94.682
111.901
151.292
69.713
95.2305
123.853
81.3231
52.4178
61.4829
50.5132
176.866
169.145
202.827
106.885
71.5128
65.4671
72.4687
53.3996
52.0163
57.7957
427.761
130.512
608.502
435.145
563.611
55.2776
60.8248
57.5721
59.1824
52.9443
260.056
73.2517
49.8111
79.0916
105.349
66.946
108.713
62.012
158.324
65.3472
104.661
50.48
68.8005
83.9245
94.0493
62.8031
120.316
85.8052
75.138
69.9176
70.4559
77.875
152.082
177.936
53.772
86.4142
111.51
100.736
171.332
51.3199
50.9774
118.591
57.3918
52.7929
78.7431
51.0149
51.7695
68.64
77.1755
134.863
69.7046
82.2799
51.9773
64.598
452.723
79.9845
87.9329
54.6938
57.2394
91.9381
88.2587
787.047
111.557
146.756
49.7031
56.0662
74.0945
50.825
52.9278
111.763
87.4527
51.9622
49.3049
121.662
101.596
437.484
123.751
118.13
102.363
68.1098
111.228
170.65
175.296
74.7412
74.7272
818.159
58.6417
77.8856
93.4097
89.3846
51.7994
870.146
63.7094
98.7132
56.8903
124.575
60.1875
889.793
904.889
65.0645
51.0344
50.0909
94.2249
100.014
55.9507
1059.37
547.9
57.8485
144.358
260.221
57.991
51.1709
91.4317
50.857
58.8101
52.7057
68.3191
77.0326
85.7828
75.177
53.0542
62.3061
67.4424
53.097
169.156
68.0729
75.6061
113.682
270.54
161.157
106.077
135.42
63.8587
134.514
128.926
55.2907
538.769
163.157
132.559
75.1892
105.901
95.1929
93.405
136.154
50.5232
50.3374
71.1063
70.2672
131.771
81.2399
310.424
434.299
54.4675
133.057
51.0616
50.9598
81.8984
58.5715
67.9846
52.262
50.4264
204.629
375.447
50.3866
50.6302
74.2919
932.026
59.6836
50.2016
57.8282
132.377
827.171
69.5449
249.463
131.385
206.22
286.682
75.1083
52.2835
49.9591
68.0625
860.029
52.3092
87.6454
80.2038
51.051
472.186
827.573
824.86
215.367
152.411
54.2441
54.8663
58.2413
68.9832
515.845
391.619
379.644
492.165
274.662
65.0641
51.865
764.167
55.0804
803.201
97.5412
795.366
83.1175
124.357
52.6908
85.9168
172.129
173.347
51.3332
69.0634
91.0084
87.838
70.6422
79.3117
66.014
965.135
551.822
68.1368
170.342
465.791
161.742
58.0317
51.236
413.487
317.322
214.965
53.6986
867.27
51.9371
744.479
1386.16
507.46
134.503
55.6015
60.0152
48.6822
67.0373
80.1935
135.233
59.9718
74.6273
55.9307
91.2359
65.2104
51.0092
50.0639
101.019
51.0695
50.5863
82.3332
55.6833
85.8771
94.0487
158.226
92.6639
51.2979
56.398
106.693
58.1907
92.6939
118.782
1238.54
57.0032
413.51
64.3827
97.9394
121.274
74.8264
61.7308
50.972
60.1484
89.202
51.4984
90.5934
97.9038
78.9426
57.4542
64.5399
51.0147
62.5573
114.076
57.0831
101.861
256.249
86.2391
79.5008
70.5656
109.828
82.4645
164.992
53.0269
66.2524
104.642
152.197
166.363
69.1945
110.904
863.058
248.299
188.013
90.1465
71.8023
116.065
78.7876
54.0658
124.425
79.8646
84.3198
87.3758
56.5544
165.31
109.049
118.648
98.6914
202.833
71.9481
54.7764
51.6117
57.8101
71.6426
84.3699
256.381
56.237
88.0568
127.988
87.9853
745.41
60.0668
50.5482
105.385
278.209
164.625
156.737
50.4246
135.869
72.2375
58.0938
51.3676
490.671
98.4284
63.5038
243.005
52.703
61.6765
143.956
694.97
799.552
50.9729
64.3098
954.171
51.5712
92.6306
69.3427
277.192
320.86
51.9556
87.4114
926.338
93.6047
61.7025
59.1505
95.9365
57.0264
73.3423
374.676
54.6479
96.2169
508.179
149.003
499.37
82.02
341.187
56.6094
952.732
109.191
108.636
476.622
76.7225
100.391
335.984
262.563
299.005
51.1364
51.3048
411.664
59.938
87.8011
355.067
59.1487
61.1338
60.1442
67.7219
71.5444
52.5072
709.904
389.879
116.156
209.224
166.623
69.7821
82.9647
63.098
113.298
61.1212
53.4262
64.968
61.616
342.767
356.516
53.8468
58.7586
51.9783
65.8807
81.4415
107.667
95.7655
64.5647
382.092
65.0591
64.1919
235.83
126.4
303.549
59.99
84.3487
418.733
139.335
108.428
141.856
134.867
122.845
52.7492
880.308
50.4582
51.6447
61.8997
88.9861
74.7809
100.582
94.1207
99.9104
157.684
77.9945
112.782
103.454
50.6348
71.9175
54.4429
185.266
1007.53
86.9458
288.357
77.0956
63.6972
303.657
65.6372
58.7781
59.2904
69.3644
502.48
138.472
58.6392
298.621
179.503
64.4635
1676.59
303.762
53.7359
138.196
69.3791
75.7493
219.224
368.242
146.559
629.767
63.8747
54.3428
147.764
58.2901
53.1494
104.162
251.092
354.103
49.5168
132.437
55.5127
146.255
59.3519
145.78
111.038
90.7639
233.438
64.9203
71.5196
650.603
50.6095
53.3376
127.037
57.0563
132.394
175.101
56.6881
896.161
476.763
743.816
303.319
121.488
73.323
50.3333
56.3347
88.3068
50.4476
89.7328
149.463
57.839
76.5004
502.365
52.7731
128.934
53.5869
123.4
61.5075
667.526
117.1
76.8933
53.9089
139.487
150.232
53.5115
58.1285
97.5331
49.6439
191.577
66.6246
108.308
59.0165
54.6651
101.922
57.9772
131.406
120.58
53.8435
60.2209
53.5518
67.1971
246.382
213.443
136.349
245.207
610.796
116.332
68.5644
655.31
269.265
315.478
65.2269
124.436
110.512
261.414
130.605
706.074
61.8403
57.2522
111.549
505.706
59.9054
379.821
72.0475
384.795
75.9773
76.6297
384.943
182.153
233.125
66.2558
349.253
125.412
270.027
54.6836
216.153
57.7031
57.5792
93.2993
88.6922
305.486
99.7777
61.6344
164.425
61.8078
134.386
190.772
53.9014
59.8756
63.5618
756.026
66.5412
127.208
101.148
130.072
54.2774
52.9333
95.7665
64.0699
263.446
53.535
106.78
345.299
59.7771
55.92
59.6269
56.9789
479.052
140.103
173.022
76.5734
61.1172
1166.15
1474.55
54.2331
145.694
54.457
52.6248
273.387
67.8922
409.566
63.3327
52.3459
91.3551
55.4717
58.8442
56.4776
59.6361
139.447
115.846
139.206
136.878
74.574
74.8537
52.087
166.644
444.59
747.669
78.2867
255.004
191.153
490.908
88.8387
370.571
109.673
69.4491
130.114
89.7153
276.485
67.4938
142.344
107.713
61.2593
945.404
110.702
358.643
110.316
55.1933
104.662
55.9902
56.3803
58.1395
90.0283
88.6963
109.843
51.4764
113.342
210.731
128.664
66.1654
158.106
59.1173
59.9958
49.7071
75.0194
80.889
148.414
75.8791
100.287
72.616
65.3018
79.6127
54.1052
64.0408
59.4832
78.9493
57.4922
99.5414
58.5264
69.68
129.885
79.2919
57.6413
79.9745
84.8025
93.7582
130.25
282.161
49.6924
62.9843
340.721
160.077
157.857
55.9091
159.09
83.5958
116.596
54.6273
54.7575
62.0024
80.9904
63.4101
58.4248
660.621
57.0126
134.349
53.8304
50.8864
148.843
82.4567
62.3233
125.42
53.135
87.0862
61.1671
181.996
50.3621
141.784
51.0118
53.2431
83.464
69.1423
133.907
101.557
51.4478
117.068
71.74
77.6755
101.504
631.559
55.5344
70.5017
132.427
65.4571
58.1579
129.599
56.7043
50.7881
110.046
180.592
128.209
87.686
228.571
113.904
343.195
53.7015
184.336
68.9432
84.5882
55.4968
60.0681
56.6567
62.3147
86.8596
166.716
61.4874
457.498
64.8342
52.0579
377.578
133.953
1782.51
277.559
54.1852
80.1311
102.517
124.289
417.598
70.6041
279.757
89.3198
394.264
68.0311
186.924
67.6151
230.964
196.772
129.82
266.143
438.851
769.337
1239.61
352.925
546.367
183.671
313.836
352.507
51.7074
102.215
250.116
74.9076
357.492
63.7146
296.255
517.964
128.401
103.864
74.5268
50.3079
106.417
51.4713
224.038
133.349
86.3208
173.474
72.1222
155.658
61.3671
58.4305
117.187
57.0736
221.075
51.2545
74.2899
682.388
57.6114
54.2129
74.0363
55.5553
357.927
122.53
63.3556
55.5108
178.243
51.2613
66.0264
57.5324
61.4757
91.1673
77.2228
53.5955
57.313
295.526
63.7504
69.0545
56.545
54.1746
52.6016
56.5519
72.9594
96.1545
50.8192
67.9709
89.5838
61.8089
194.089
78.7052
60.4462
66.5202
81.3528
143.721
111.637
95.4542
54.8718
120.918
85.1027
61.0904
60.5022
80.7238
70.6953
98.1787
74.7652
134.083
73.0641
66.4829
116.564
96.7501
553.367
1002.41
132.936
59.2287
150.956
161.57
71.2798
54.4237
50.8065
54.2962
61.5546
75.2387
50.438
52.5139
53.9161
103.667
53.7897
53.0915
50.7897
60.6211
114.608
61.1217
117.779
55.037
79.9393
257.591
56.1388
52.7441
62.2565
805.71
1614.48
102.736
79.4632
56.449
61.1922
66.5519
293.019
71.3648
65.1107
93.4458
55.2108
83.6821
59.9045
61.0981
112.46
73.6359
69.3697
205.204
132.612
69.7722
1691.19
128.189
203.258
61.6425
78.877
96.6854
118.248
53.1255
68.6692
316.057
53.6137
206.23
508.068
112.602
128.688
501.131
73.6382
68.4294
93.5562
52.1759
125.193
278.957
94.6767
88.4164
109.563
172.644
892.85
574.932
91.282
55.2732
130.481
63.0333
169.742
148.884
473.564
52.4817
51.036
494.208
56.3647
215.368
76.2747
102.464
580.723
598.635
54.791
50.6746
656.135
53.928
52.0935
58.3764
52.3082
86.2095
56.5191
201.572
59.2645
546.007
106.064
56.0741
71.4812
660.114
82.595
544.465
64.1062
61.1463
80.9225
89.3239
56.9978
63.3542
55.7427
459.122
101.941
102.584
349.919
113.963
55.1175
473.231
71.3187
113.838
70.9014
57.6515
106.923
64.6361
52.2562
251.517
74.252
69.3726
55.6045
83.2595
61.5162
63.3648
57.2501
56.3653
160.364
61.2376
56.2867
79.7104
255.904
65.1291
62.2315
59.823
97.0559
49.4555
64.5545
54.8292
131.272
59.5657
144.226
151.133
76.6676
398.794
57.958
62.6794
259.479
260.403
592.958
82.6026
218.973
62.0459
443.826
97.0268
136.977
97.0412
55.138
99.027
212.863
97.1737
56.7876
53.0969
52.9719
469.524
52.865
57.8745
62.9941
2121.16
399.772
53.5446
1339.45
378.567
310.633
129.486
1293.62
379.141
61.0524
195.818
93.8716
52.3563
188.718
879.599
71.0053
51.8677
53.6641
492.756
60.105
858.342
50.9007
130.928
57.6473
130.021
319.228
53.9759
119.171
113.597
53.2136
106.118
50.8942
129.097
1506.45
1592.38
413.889
95.3645
276.544
50.9277
52.9308
54.6368
95.9442
51.0759
62.7186
50.5651
78.9015
92.3773
53.0774
54.307
77.7269
54.594
86.4609
112.418
50.5516
108.226
131.702
57.7276
61.76
766.133
62.4062
736.317
538.255
133.43
135.457
69.7477
118.342
59.0116
60.7413
253.855
55.0449
67.6749
54.7756
61.2853
69.7272
126.761
77.7193
183.369
115.111
55.1358
424.233
65.0849
237.839
189.959
72.0032
744.568
67.5136
63.754
60.6145
64.58
76.9138
57.6607
93.8835
51.8006
244.833
201.105
413.349
57.4521
63.047
84.5486
384.44
116.082
72.8031
141.218
70.653
214.337
70.4242
53.6023
149.012
87.5231
56.4343
91.277
1120.32
58.1758
62.7936
123.08
55.4317
128.327
138.933
51.0165
68.7759
131.587
172.142
715.746
62.7474
208.301
147.675
99.9804
59.0838
189.227
91.3288
106.613
57.9246
53.6105
56.8932
419.549
67.6075
107.573
77.256
65.0456
58.6419
86.5665
50.5032
143.086
52.0135
65.9895
168.908
107.298
69.3477
169.025
96.7999
82.9455
72.3084
126.463
50.4408
106.972
297.737
110.561
58.762
51.9099
100.052
52.2957
51.6987
82.8785
50.4172
109.467
88.4065
50.3996
53.1143
105.523
88.3102
140.142
50.3672
685.354
50.49
96.6316
76.6274
54.7676
640.781
150.938
583.585
51.4495
62.8726
517.659
664.136
94.2977
94.6595
169.501
130.644
60.0867
59.8026
69.2622
150.381
81.3923
134.783
54.2581
136.919
98.7319
106.943
52.0706
91.7234
51.1546
61.5673
358.452
97.1986
76.6701
53.0524
109.021
87.2766
84.497
138.416
53.4806
54.7258
63.2106
87.7991
84.7965
68.9602
107.313
62.3833
58.0152
53.4586
60.7688
63.2222
53.3919
88.4767
66.5083
60.8404
1977.26
75.1249
62.3261
76.5215
51.8536
87.1337
183.98
56.9467
82.313
80.1385
864.912
66.905
62.0286
94.806
1368.92
97.1467
143.986
125.474
74.9532
49.8375
64.0333
69.2602
737.05
96.0182
74.3853
62.8543
52.6012
131.101
54.755
687.745
161.338
114.403
77.7076
66.9935
104.524
92.564
68.0362
212.554
116.684
331.761
56.5311
139.527
444.875
119.476
58.7658
98.0489
60.0473
491.209
65.1605
57.4722
84.6085
50.393
57.1009
81.1485
52.0808
90.9931
51.1192
135.533
51.4939
79.6343
61.6798
143.035
84.9102
125.15
69.3627
491.776
101.993
122.424
76.4231
52.9552
106.331
61.2763
59.1022
65.4879
62.4432
58.5255
121.426
51.1011
62.7429
51.3811
216.059
87.9038
244.61
516.222
154.56
158.993
70.7851
70.7995
53.7652
191.917
90.0049
55.3021
52.2298
108.648
71.8645
54.5128
77.4166
957.101
74.7881
63.345
65.7993
389.3
788.071
63.9464
477.656
516.099
188.787
230.668
158.835
352.233
74.4726
215.471
688.026
68.2594
54.6173
58.0363
96.1337
314.285
56.1307
53.2415
69.6443
153.067
157.168
733.559
110.986
793.175
114.263
55.7668
86.9289
59.0085
61.2605
753.7
51.9491
165.838
388.649
55.3492
314.454
2003.11
56.4066
78.7093
71.948
414.112
156.057
117.787
659.368
1075.19
94.0518
346.601
125.703
203.442
82.0903
54.093
154.798
447.38
549.226
65.4181
111.823
134.673
99.3104
209.433
54.7727
61.3377
774.75
168.93
431.305
50.5084
232.378
62.2309
413.332
65.0991
91.3434
180.542
363.549
84.0815
98.6034
393.98
93.3811
447.962
85.4753
76.1416
215.311
53.7322
161.116
53.758
52.9333
51.3458
74.9195
358.672
420.99
176.137
63.6078
76.3669
170.328
62.82
440.616
71.8005
60.3492
71.3349
111.544
155.364
537.716
52.9795
73.8172
69.747
267.868
106.434
579.921
751.19
366.188
106.981
68.2563
307.204
386.742
137.162
60.3432
64.4438
50.2389
705.953
180.737
277.223
1692.77
239.773
90.24
85.0207
626.834
369.156
77.053
91.7698
101.951
362.485
61.2855
50.9926
92.1508
68.7182
533.842
318.955
211.972
67.6591
165.753
374.816
172.181
97.3693
694
245.264
623.879
197.464
206.928
469.874
150.707
61.6684
99.3607
64.6579
54.1062
71.7541
64.493
139.865
115.654
82.3609
179.462
181.167
140.151
55.306
186.96
90.4872
62.834
129.666
493.616
1007.94
526.671
67.4145
108.408
67.3416
104.334
327.395
146.997
356.348
69.7968
420.809
265.325
170.974
54.9939
51.3827
65.2255
66.5075
524.501
84.9303
61.4856
170.14
66.1195
720.711
288.967
94.7898
332.662
62.7589
52.2723
49.8682
50.7673
102.629
70.5806
89.9595
129.297
67.6501
52.282
166.458
442.004
452.571
51.322
106.003
60.3389
72.2007
62.1064
505.173
56.7106
58.6046
55.7514
86.5808
53.5145
54.4419
93.8154
55.5084
61.7411
58.6705
225.037
51.4253
65.9785
86.2532
355.246
324.081
67.9976
599.043
563.968
59.1129
58.893
152.897
61.1553
104.255
81.8249
83.267
76.326
145.009
71.4845
88.6346
859.123
337.325
96.5842
497.32
54.5478
54.6477
64.5244
51.1745
51.8782
69.6864
53.7185
68.9932
176.8
70.2797
400.13
58.3923
442.583
69.5001
49.8062
710.733
102.87
80.5152
486.485
93.6791
581.68
74.3229
299.885
50.668
168.408
93.7389
190.42
52.4735
84.1576
72.0807
433.304
53.9659
51.2809
52.916
81.3046
106.237
58.5579
61.1345
93.9154
52.8902
120.769
53.2946
62.09
132.283
89.1655
131.471
60.2288
55.3714
56.4029
51.4558
59.7916
63.1485
50.5736
82.4789
51.8611
218.371
117.837
59.6007
108.987
115.063
62.8507
82.5414
60.1328
126.958
155.396
56.0481
53.3521
90.2435
74.2273
289.24
373.863
437.692
66.2774
57.4665
55.9605
59.8978
75.2167
732.765
226.634
64.2164
60.9778
62.2459
54.0319
50.0866
72.5364
139.597
147.22
429.504
151.79
63.1564
74.8235
72.2364
50.2569
266.644
74.2933
58.4006
117.678
57.6839
834.719
73.5787
53.0038
66.2449
73.6181
137.188
489.623
52.2576
365.615
61.2972
656.639
93.6016
486.376
67.9062
52.9097
60.5115
107.201
60.1764
54.2267
104.772
49.1862
50.3205
58.3991
66.892
187.3
64.5373
697.774
81.2311
56.1416
126.187
173.211
52.6758
286.545
858.976
723.188
527.721
313.098
55.7178
385.351
351.423
75.578
62.0397
59.4717
665.336
94.1678
95.3562
49.4011
68.1625
102.325
491.299
148.453
81.9236
50.1312
69.1187
223.064
54.7149
56.0715
430.959
342.235
258.098
629.023
71.9453
49.4283
69.4736
71.2939
1000.67
52.401
51.6865
51.0145
296.734
50.5797
59.5365
99.32
99.1816
51.6974
83.8722
54.2216
135.559
62.8281
133.449
60.3666
189.107
93.7288
117.012
150.303
116.514
171.57
59.5107
598.207
91.4024
248.364
273.557
232.334
84.8078
64.5227
186.66
76.0711
49.557
54.6979
50.4291
90.4342
552.004
119.808
51.6752
83.9551
59.9354
49.4176
120.744
58.2325
138.307
91.4572
57.3102
103.126
58.1948
66.9876
113.589
344.697
64.9127
99.4175
79.6719
109.101
469.074
178.086
351.384
725.602
136.556
57.7878
58.9402
50.2596
109.572
713.063
79.4484
749.057
114.14
55.1273
120.659
389.647
57.0838
56.8741
59.3941
69.8694
52.4351
158.249
58.207
79.3176
122.759
50.7116
101.552
53.1101
120.81
54.9111
59.1698
488.857
70.1945
118.987
60.5908
56.3743
51.5271
93.2191
124.077
102.089
91.1969
67.9436
60.7855
67.4189
58.7836
232.151
59.01
59.855
116.699
184.114
234.383
53.8031
87.3859
110.277
160.33
65.819
135.904
54.0531
131.401
84.6014
56.158
134.647
79.1727
51.8864
191.369
74.9127
53.1553
56.001
132.753
91.7553
94.4393
58.6687
117.513
84.9707
54.0318
94.4665
303.774
62.0894
64.032
85.1428
529.974
66.0157
75.6533
152.389
61.8696
144.958
56.6817
588.628
85.7059
73.4911
81.9632
55.088
113.291
54.9673
373.396
50.486
68.5123
490.004
63.3208
110.096
200.655
79.1603
54.4941
339.06
53.699
51.6858
82.4543
118.317
60.725
272.316
52.2592
387.912
112.228
50.9299
80.9003
121.957
604.872
181.322
75.6446
52.2178
120.211
296.111
470.295
112.458
127.067
869.858
198.872
101.524
132.902
82.5215
102.732
65.3971
512.991
839.054
155.021
170.729
103.324
797.206
426.161
438.622
301.282
163.373
59.9799
56.6624
153.499
77.6239
477.306
338.55
64.1007
547.487
110.883
52.3845
57.1556
55.8508
110.514
85.9593
92.4776
78.9935
141.289
184.895
787.339
59.9079
120.499
616.005
532.989
183.11
184.233
68.6797
684.429
50.2356
66.5772
355.411
149.611
53.9981
280.618
358.766
65.0832
108.988
59.2079
98.0125
53.6616
83.9337
175.09
86.8809
483.186
49.7407
59.1621
87.8265
432.299
173.694
124.02
165.74
120.024
123.908
64.7033
338.061
104.633
69.8908
163.182
761.723
213.587
56.548
236.768
161.236
81.2512
67.8683
125.802
55.7595
69.3217
78.6621
80.2541
73.756
66.4716
81.2741
53.344
50.9642
50.609
104.262
55.6198
162.56
432.446
595.251
79.0154
74.0627
57.6548
57.6417
103.018
536.171
59.9014
147.021
71.1269
103.075
56.6031
71.5652
53.6013
219.428
50.4023
54.8945
219.533
55.3148
65.2901
70.5226
55.6062
316.264
74.0399
495.565
290.74
244.486
510.821
169.668
309.92
69.0394
76.5415
139.127
62.7876
297.556
74.0145
82.2719
113.654
70.1732
67.0937
56.1562
58.3689
55.6955
51.9662
87.4448
268.368
50.8602
743.093
115.294
274.773
121.578
186.076
1732.96
58.9208
269.665
1421.74
72.176
271.969
77.0658
70.9666
631.463
880.12
239.636
157.09
62.5044
219.3
99.6103
422.765
55.5687
61.5457
197.289
925.218
60.7826
70.0601
58.1024
107.545
374.415
59.3693
498.397
287.889
532.036
630.569
60.6358
139.698
66.1505
490.869
373.186
266.174
166.764
74.672
337.246
121.672
224.717
63.2593
64.0604
58.0287
64.4628
60.7552
1505.29
62.2081
93.6581
70.7308
60.368
71.1499
831.21
72.1834
189.594
289.714
70.5844
89.6028
128.65
50.1598
58.7345
828.858
465.099
200.909
180.556
127.796
65.3729
356.761
58.7698
129.412
103.197
58.3477
355.216
102.883
133.934
360.245
69.2547
80.0555
81.7945
72.9791
58.5586
128.599
67.436
316.598
59.9601
158.52
68.7461
189.361
65.9177
67.7762
379.397
125.013
224.572
51.7285
1626.33
53.222
53.7614
55.2105
63.1835
70.3577
445.168
78.9459
52.6978
555.11
74.169
54.0549
65.8644
663.406
50.9613
82.7643
768.482
97.1882
678.872
344.459
78.3631
82.1885
159.785
166.12
624.196
72.7693
249.145
73.1185
59.4298
167.688
70.7496
74.3453
58.2544
391.875
351.652
316.321