/*--------------------------------*- C++ -*----------------------------------*\
| =========                 |                                                 |
| \\      /  F ield         | OpenFOAM: The Open Source CFD Toolbox           |
|  \\    /   O peration     | Version:  2506                                  |
|   \\  /    A nd           | Website:  www.openfoam.com                      |
|    \\/     M anipulation  |                                                 |
\*---------------------------------------------------------------------------*/
FoamFile
{
    version     2.0;
    format      ascii;
    arch        "LSB;label=32;scalar=64";
    class       volScalarField;
    location    "0.0100456";
    object      p;
}
// * * * * * * * * * * * * * * * * * * * * * * * * * * * * * * * * * * * * * //

dimensions      [0 2 -2 0 0 0 0];

internalField   nonuniform List<scalar> 
47425
(
25.7868
27.4582
0.866575
37.6808
26.9763
1.54222
27.8618
0.510452
71.1917
23.6378
0.12942
59.5591
30.1885
0.341977
35.154
57.1067
1.55868
65.1658
-59.6057
16.114
43.7814
55.8741
1.16003
19.0732
56.7189
17.4386
1.6092
6.1646
1.71847
5.01968
53.7121
56.3317
65.9756
7.32964
0.891295
0.799008
56.2359
68.3912
43.4058
25.3994
25.4805
31.5726
32.5239
71.4897
22.7659
23.4147
2.16476
65.0235
20.78
8.11564
90.8534
34.0509
4.55562
20.7899
19.5252
44.6538
29.1652
0.896145
23.1036
1.51176
18.6453
20.5605
-0.661816
58.1216
67.6941
39.9488
60.9408
32.4294
10.6656
59.9806
39.623
14.9859
38.0578
46.0267
8.02036
73.9233
0.0601883
7.30425
-45.0703
26.7949
3.1494
46.9784
59.532
60.9014
26.3888
27.5881
36.2284
23.7278
32.6164
23.4762
54.0832
38.2284
9.34665
28.7662
32.9693
29.0725
7.15438
32.5361
26.9335
57.8669
62.5973
65.4109
46.1533
85.2201
47.5764
34.5831
27.9168
27.2379
24.7421
56.9648
6.41048
56.8922
33.9312
32.572
34.7833
77.5274
35.1397
92.1715
45.5395
33.6983
31.6591
67.2181
63.0489
34.0254
56.5566
34.3317
25.5783
69.6423
16.4166
13.0344
58.3056
31.5376
95.9908
45.4403
31.1578
33.9054
38.6807
34.2803
54.4757
35.6664
61.7385
29.7945
41.5354
34.202
49.0613
69.8357
27.4059
62.8997
42.6448
63.9047
34.2654
85.1283
66.5668
40.1166
59.7739
21.958
45.0476
-69.3367
25.9038
4.01364
34.9375
17.3058
14.7972
48.4592
4.85141
-33.5735
63.8009
5.40216
17.1154
2.85818
5.47932
14.8811
62.488
57.078
24.8255
50.8979
75.742
0.323878
2.65627
7.34186
69.7551
21.25
2.27084
4.8588
5.95209
63.7473
47.4384
91.0015
6.90612
25.9493
62.6908
5.58717
29.6897
65.6711
9.36237
35.7119
63.256
17.5126
35.2591
31.9949
7.90606
35.2639
27.426
35.5696
47.7066
37.6969
1.90899
35.8744
57.404
67.5857
27.464
35.642
59.3619
18.3276
34.9359
34.6477
35.4793
26.125
59.5396
61.2908
25.6339
33.74
33.6841
38.8893
39.6948
26.5355
8.29733
33.8639
34.2016
31.5966
38.3674
5.86166
33.3527
68.9039
3.20262
53.8786
24.4475
8.98339
25.5627
2.3821
4.86295
7.88077
8.78142
32.1123
45.0611
72.4166
27.8411
71.1909
14.6366
1.34103
20.1506
27.8021
1.22745
68.173
4.04562
2.70385
54.3333
5.02736
42.8276
67.1996
7.80188
69.1096
47.6349
51.1494
31.6205
31.4708
2.75545
31.8562
3.71778
48.4946
51.2309
25.7183
24.5794
51.7347
26.7684
53.6434
26.4046
68.3869
25.8094
75.7853
22.694
26.4423
20.4117
13.1236
11.3041
35.6002
9.18887
0.275699
28.5374
34.5825
98.5094
56.9941
69.7119
1.91485
0.620673
42.7586
32.7746
46.6576
56.199
31.8129
28.6647
18.6414
5.12364
2.28443
-41.2206
-56.1889
80.4497
8.00898
15.0942
49.4696
50.8162
93.3693
-0.114312
0.504499
30.3207
30.3913
11.9679
11.3589
3.31223
2.15046
30.4535
54.9855
54.64
-1.16642
28.9188
0.298964
51.1752
22.6718
9.1752
2.84557
33.4924
-23.117
47.3848
2.02188
64.6996
-0.244723
-25.8319
57.9987
12.6636
16.0649
47.5633
48.6378
22.6126
54.6646
10.1149
-0.580744
2.9159
54.5298
-0.608751
7.6062
50.312
46.0602
54.4919
53.3081
51.9311
34.8129
8.39405
58.1029
48.51
66.128
48.0585
33.6591
12.7401
-0.239981
45.9325
32.5004
2.51259
65.4955
56.9027
47.2348
2.02749
21.9299
34.8038
48.0664
73.218
48.2481
31.6917
59.438
69.4713
55.9802
64.5753
48.1672
18.4881
66.3116
19.2285
67.8482
1.68875
49.3467
60.8511
2.52392
44.6803
45.6517
1.59342
43.3465
11.047
45.1003
57.0379
2.96835
27.6152
5.81489
23.2214
7.23954
22.9451
5.29196
38.9911
4.90681
5.81835
4.26615
0.853225
0.608011
45.9732
-73.0105
101.545
18.1428
45.6165
44.8462
43.031
16.6691
0.777832
8.30989
3.03754
13.9219
25.7794
41.7428
2.06779
0.60602
33.2851
36.558
37.3621
59.5078
-44.9339
32.4271
69.4899
-37.4652
27.2603
-51.7503
20.4378
16.7251
40.3416
41.2705
38.6139
-49.6868
23.5922
17.1945
8.84925
38.3606
40.5065
24.5594
25.2015
26.457
-40.5074
24.1518
65.6849
62.6198
33.2091
18.337
38.5239
31.4676
38.5179
63.9207
65.4579
67.6073
44.0436
68.9344
15.3091
53.4717
3.031
36.9034
13.9961
10.6007
62.4681
62.2784
63.348
46.46
57.5956
24.6244
37.7099
26.9221
61.9114
30.0662
61.5062
34.3451
33.7623
51.3604
16.1777
49.8303
62.7244
62.1331
48.5643
11.2953
34.3976
50.3958
26.0552
49.4229
66.5573
15.7448
51.5545
62.2749
53.9545
23.3712
7.63559
18.9459
2.16567
38.837
1.01577
2.0704
14.3459
21.2933
37.3082
1.61969
0.808137
63.4451
-1.2983
25.1234
24.843
18.0979
2.54403
5.79509
57.7178
47.3885
68.3583
70.7896
90.7175
4.56344
-0.183999
55.7404
70.0022
22.2127
19.2674
9.07952
20.6241
22.3383
31.9626
59.3891
17.8743
67.9244
-51.8734
67.2929
52.9221
1.79014
23.2611
6.56383
25.3216
8.20037
26.6715
1.18071
14.4463
-37.738
4.69881
3.25711
3.94187
22.348
13.6434
1.39021
22.7148
26.4425
6.2889
4.91447
-26.1466
7.78756
33.6324
2.55937
9.22155
8.49534
29.0964
31.7305
56.0275
25.8625
20.5316
0.605868
18.0166
58.9708
22.0851
-27.1944
3.59224
4.9712
-28.0881
9.0419
56.5665
-26.5755
-26.9299
2.40109
64.4817
0.444155
55.3403
60.1365
1.59564
9.42263
51.9798
1.38902
10.898
24.2788
29.3488
62.4099
45.3837
-8.57803
29.4042
40.3743
12.2733
32.5316
46.8932
11.7197
12.7826
56.9676
46.1318
66.4344
33.246
62.1592
22.2588
45.478
42.7683
20.1907
51.7076
10.8426
42.8776
50.8278
9.55744
66.5948
33.9588
70.4658
58.627
34.943
26.7188
-85.8036
43.711
31.3503
10.6265
7.49108
5.10399
29.5191
6.83578
0.708802
47.0197
29.2387
68.8954
12.0457
1.82971
1.49034
62.0144
18.6926
70.8186
70.0033
10.6884
4.42173
17.2314
0.310045
14.3628
19.024
36.5335
26.1999
-10.6119
40.8804
48.421
1.62679
55.8917
59.3177
64.0523
62.8227
67.0802
62.309
60.7046
37.1676
63.5573
46.1885
24.0766
1.11819
-28.0288
20.125
-1.23859
56.8143
40.3928
2.02034
-44.4294
2.56551
7.7692
10.5748
30.7945
30.9768
14.096
62.6786
47.5259
68.4659
5.33478
10.7476
32.9563
29.3104
72.3179
29.172
33.2499
-30.9324
31.913
32.7099
30.4415
67.6171
22.1146
43.9966
32.4859
29.6503
65.2051
49.3178
29.9843
4.71326
33.256
0.334356
13.3004
75.4079
75.1903
48.4921
61.8227
2.16199
-0.973661
43.7038
30.1756
31.815
2.54202
20.6592
1.65615
19.9126
79.1849
32.653
1.0677
63.0892
16.1462
17.0248
26.3348
0.483218
35.3514
25.7566
23.9552
5.92793
1.18128
17.3055
55.8189
3.19609
34.7157
15.4286
11.9828
17.5162
59.1704
82.887
18.4886
-27.8081
33.9474
17.4516
-26.7244
32.6451
33.7668
49.265
36.0565
88.2787
-30.552
102.327
30.3902
36.7497
28.4103
5.78618
100.121
46.2681
34.0998
18.7284
6.01168
31.5112
29.7995
18.8573
18.0589
-22.7335
69.455
63.3916
68.055
89.2228
85.5653
32.2979
14.484
29.0211
93.1172
90.9581
66.799
12.4125
56.174
7.63114
44.5052
-25.5662
45.4995
41.3367
45.0017
7.44595
-27.2469
-27.5092
1.7489
41.3382
14.5467
8.68863
43.0363
7.38994
56.0401
-0.23991
13.4098
76.2319
3.96616
-1.58173
-1.01156
8.48236
6.9002
96.1654
24.3971
2.43478
48.0929
13.5436
54.2763
53.6802
31.4112
7.86088
-41.8929
30.2503
43.0799
40.3412
69.1695
-28.8042
3.64493
1.19902
23.9576
20.3607
63.4233
37.8296
1.3031
68.221
-28.499
25.976
-22.7679
67.2738
69.9506
1.03432
31.0028
55.0224
30.6387
0.371937
56.699
-37.1666
20.08
30.0618
-34.017
30.2204
31.3581
-0.662922
30.0592
1.18438
29.7544
-32.9265
-0.0665111
28.8091
20.7304
21.1684
5.80638
17.9092
27.9495
49.539
54.511
51.5526
24.2458
33.4941
22.9112
25.9034
88.3111
35.9602
54.9091
23.5454
29.5263
20.1598
21.2142
30.838
-80.7517
30.6876
34.2088
29.2019
31.9913
30.0438
29.9838
25.0645
69.3966
73.0399
21.4526
32.5678
54.1395
59.7478
70.906
-26.0802
30.565
30.8561
24.5002
8.78799
26.1875
74.7355
65.3767
33.1622
3.94304
48.9587
67.8517
64.6637
63.0985
58.3468
69.9629
18.6083
30.7987
58.5054
60.7097
54.2345
45.4356
35.7993
79.3001
33.2559
30.3685
34.0923
30.6381
-18.8252
33.237
32.1028
67.7703
54.232
67.6183
28.1159
-20.5381
23.3232
18.0846
47.6658
32.5887
47.2052
1.45203
27.6372
7.80547
29.3168
31.479
31.7532
27.5006
27.6353
51.3821
8.03665
40.6661
30.9508
14.9142
43.2135
26.2097
25.4636
33.2266
53.5218
96.8814
-53.1621
78.4708
22.2854
0.997177
5.36482
19.3631
57.7248
10.4889
93.354
11.6192
9.57616
-31.0855
50.4009
39.3492
4.39992
70.7479
65.9729
60.6167
14.8696
48.6018
28.2737
48.783
57.2331
54.7478
64.5043
13.9405
32.8446
31.7245
67.4283
50.8048
17.9686
48.018
12.3071
12.5099
44.3693
32.1137
9.82093
31.878
35.0951
53.3457
22.1657
15.9255
12.2746
12.2956
-73.8115
3.34245
30.7327
-24.1233
35.5713
34.8128
16.7435
-24.2651
35.2506
44.6457
17.6741
31.8917
20.6945
41.0665
35.1575
19.6659
51.9907
36.5301
79.8147
-53.3964
30.9872
24.1754
18.8567
97.8893
-79.8497
24.9597
54.5778
37.8398
13.9769
54.0073
34.0653
54.7285
26.8867
32.3605
25.4029
36.8346
34.0378
30.6488
44.8741
29.5131
28.8755
56.2959
54.955
31.345
11.8353
47.0132
29.1023
31.6657
24.3545
63.3087
45.6465
-11.9464
-14.939
22.4587
51.9641
33.6239
31.4001
17.069
51.4287
54.8014
22.0153
33.3839
32.3952
29.7688
23.1391
40.3242
53.0001
61.7025
54.0863
49.0828
50.6713
16.7293
59.5042
67.2828
52.5811
30.4854
-21.6592
23.7345
50.5122
77.7085
27.9784
56.297
-4.49722
43.1645
51.7457
33.207
34.3217
57.3302
47.0258
3.87842
53.8748
12.1786
-55.1983
16.2566
53.0071
31.3778
53.2601
27.3148
23.0426
28.4528
21.0864
31.8688
-32.9964
6.43033
102.845
23.2138
-48.3232
22.9316
-0.239465
27.1216
19.4436
31.0384
56.6013
-0.975811
4.74182
17.9377
-0.233109
41.1639
12.8414
19.0747
18.2824
90.901
9.10997
20.8907
-66.1602
30.5609
60.1112
27.912
55.0134
-64.0394
14.2225
49.4176
8.31423
9.67866
38.12
11.3187
38.6095
37.7465
14.6862
44.3426
80.2929
49.0384
63.554
11.8258
31.676
57.6987
34.4606
34.7178
31.9575
52.3993
-15.2025
18.916
27.9664
18.8745
26.8247
19.5504
-20.971
19.6358
53.8961
38.441
-81.5512
95.7642
-29.2363
25.8836
81.3808
41.7307
67.3347
31.956
18.857
-66.5447
22.8097
93.193
68.9267
30.0208
-6.28764
31.9248
39.1887
15.0476
27.6403
30.6091
30.2083
63.8045
68.9994
13.2919
11.9504
36.3758
46.3252
65.2946
-71.9765
63.5304
6.24058
28.6201
59.441
67.0676
27.372
36.7149
94.6571
29.55
44.4113
73.2938
72.3296
49.941
-35.4808
21.9289
29.621
-73.2439
105.572
69.5325
14.4161
67.2717
64.2071
-25.1883
41.9889
-80.5489
23.4045
35.0129
61.6499
33.3063
66.6216
63.962
57.6301
24.1957
29.1597
1.80169
67.4727
3.88716
32.8496
58.4935
32.8422
36.2377
27.7459
54.9583
-14.2782
16.9774
40.6699
19.9451
-24.8781
3.02933
87.6292
-17.1378
34.7104
68.074
31.5536
32.3772
25.5685
25.4955
45.8696
3.71493
26.5948
44.2176
44.0182
11.7755
25.1125
32.2495
66.3262
-8.44864
27.4234
51.2803
14.1697
-3.216
-0.992
3.28621
31.3705
26.5631
63.7914
34.4555
30.7723
31.5657
-51.3438
1.40471
32.0196
-8.23223
16.2042
29.8221
98.9907
36.0976
26.3092
0.128429
2.1701
38.3305
0.305442
-92.3804
-23.452
22.975
-18.1908
65.0107
39.7745
26.5624
11.9525
-8.2162
32.1763
9.3375
64.7113
22.754
12.1547
41.148
92.0197
65.3651
60.3513
35.3782
9.35247
51.8677
61.5121
62.423
60.9931
11.5822
51.0449
51.8009
56.4801
29.9936
25.1084
49.7586
51.8568
33.7211
67.6039
8.54628
15.9282
57.3075
52.8066
66.7139
-44.8124
57.3951
60.1004
22.3889
3.73557
15.4691
56.662
57.1933
-36.9831
7.18402
99.4962
54.6226
-41.8274
53.7229
26.0641
-38.1153
38.6603
-44.1168
22.6174
20.8354
59.489
63.2593
50.9556
23.6519
18.0177
23.7538
47.6053
46.7326
16.9973
28.538
18.366
30.8447
103.433
63.0276
4.6394
25.5803
-18.5955
17.7321
56.2884
1.71484
55.1632
26.884
65.76
16.7921
18.6298
25.5896
12.6378
34.4634
33.6155
21.3759
40.5617
21.9236
24.8385
-0.523237
33.6286
4.70117
22.8909
-5.02189
-33.952
32.1267
0.715995
2.36691
6.11307
1.78723
58.7375
34.9131
19.081
32.7332
38.7328
34.5438
31.1608
23.4331
32.6485
62.8902
24.9648
61.6429
16.5183
60.0053
10.0866
52.9143
20.7534
33.3024
22.9152
51.6818
12.1791
50.8443
49.6636
7.00221
26.5048
69.4024
26.1087
34.0967
25.0774
26.2968
26.6296
15.0681
31.4891
26.0532
15.5124
27.4486
10.0808
7.49848
8.32543
5.76761
23.5839
71.5486
63.8833
17.569
15.5787
83.1413
26.7866
17.9696
23.1242
1.90954
34.6268
-0.308161
11.2026
6.38155
51.3337
3.5823
33.9752
1.78152
15.7124
7.08517
34.0302
14.8848
14.6445
33.9472
35.4023
-28.8801
35.1353
0.490622
29.488
14.5373
11.2342
4.99397
8.7745
4.86584
6.67387
10.9984
33.9158
29.9173
0.609559
60.2962
31.4746
35.0951
36.2916
9.71775
22.7439
33.1837
31.1537
3.68707
22.8646
16.2316
33.9936
0.715997
23.5875
14.8378
10.3882
22.8458
33.3462
0.523501
-18.1403
14.2492
26.8051
31.0431
-3.5408
-12.6603
0.441344
34.1543
2.12354
14.7084
16.8015
31.1537
96.0262
34.3078
25.2549
16.7984
0.771862
25.3939
14.14
9.37785
31.7271
8.56456
15.284
1.03559
31.1207
28.2497
9.24314
50.0246
30.9878
27.6181
21.5117
30.7686
30.4755
3.09082
2.00409
2.04647
-7.05066
2.15487
28.5393
2.77033
5.37408
28.3013
-89.1283
0.528891
25.2282
62.9796
0.567666
32.0412
57.888
70.4998
0.611542
45.3116
2.32076
22.4706
9.42622
1.73591
-5.49369
8.11047
1.48072
16.7338
13.3052
0.144558
31.8721
24.1995
1.524
16.3259
41.6998
-0.775431
32.1434
-0.537546
32.2439
56.934
35.0114
1.20702
67.9252
26.5702
66.1358
23.5273
21.0174
-22.1951
25.4598
13.4485
69.0016
28.45
68.8518
34.8537
54.083
14.9107
24.3654
69.9428
28.5835
66.2981
12.0632
25.1844
-31.2174
15.4111
12.4504
64.4489
64.7167
82.018
85.3859
105.18
-34.4606
66.428
68.1265
52.7544
60.9969
68.0412
7.96829
1.50043
9.22547
-0.659678
-32.5979
-34.4146
12.0035
27.6591
34.4361
-18.1129
35.5166
16.7438
33.9804
13.9701
-7.04234
15.2296
11.5111
31.2583
21.4022
20.3839
23.9974
5.77997
11.8191
67.1761
-6.95962
3.96156
70.7082
10.6419
4.3596
-25.708
-28.8108
-34.1196
36.2831
6.72627
55.5132
46.3977
43.3594
31.6774
-36.2206
-31.2372
-25.3454
102.47
-26.2604
75.106
57.6981
8.66917
65.033
-7.93919
66.6055
-4.6984
60.8518
21.7289
30.9959
23.3031
73.7044
70.2226
31.9999
64.2169
63.112
71.497
41.8251
70.9022
62.0501
-15.9338
-21.1863
31.8716
24.9695
-20.9373
25.336
21.1852
55.4267
-19.9626
22.9317
22.6634
54.3158
-58.17
44.4718
3.97394
-87.3141
-19.5031
29.8618
55.3443
47.1005
49.6512
59.7611
26.6086
18.3073
34.7248
35.9659
24.7206
3.09713
3.03841
20.5446
7.06536
23.3586
6.08564
5.11991
11.1324
30.7975
26.5776
16.4435
3.97873
3.8958
27.1424
32.0418
20.6207
14.524
53.0506
18.3261
-88.5581
33.6407
-38.525
34.8291
25.3261
29.2982
73.9317
42.1398
46.3315
32.8606
0.936234
1.6717
29.7732
0.518526
0.675632
35.9708
3.59594
28.0088
26.2949
44.7047
32.1771
30.1727
89.7437
1.35964
54.0886
1.30089
0.738818
80.8821
4.17638
64.4556
3.06662
31.2171
24.7667
-35.8244
32.0054
27.1367
55.8826
33.4248
11.8552
6.01183
25.12
58.1971
4.157
55.0719
96.3039
27.8373
32.9579
32.9699
34.4669
17.4499
12.8393
30.2665
60.1826
64.5841
43.7507
61.6203
51.3527
44.1233
41.1195
32.2017
18.5033
44.389
31.7996
57.6679
62.3672
103.887
43.0055
31.2703
34.7025
-0.806591
20.361
40.0981
56.5772
32.0194
72.4057
33.5392
53.2681
16.4462
89.1499
70.4984
32.3171
31.9529
45.3958
7.96681
-54.0542
-18.6722
32.681
31.4702
-56.1051
30.0882
31.718
32.6004
21.546
-49.7436
30.6082
49.7617
-59.107
53.7007
33.2206
31.286
51.4154
33.3787
48.49
21.687
51.9766
51.9477
-17.924
50.7741
101.369
27.1438
96.7298
69.9144
-20.985
69.9234
73.1645
-2.40749
31.2576
34.7949
-21.6348
25.4238
22.8345
25.6408
26.6547
-21.0514
33.937
42.7321
100.434
32.6964
41.1371
33.7141
28.9193
46.3751
44.405
16.354
-19.7119
20.0927
-29.737
15.256
29.8925
31.1623
29.6195
28.4973
23.4319
32.0885
30.7937
34.0126
-28.9244
-30.3505
32.7195
46.74
31.8629
31.0351
26.0154
49.3733
49.6839
30.1492
-30.5975
48.2455
32.8263
-31.4817
37.6692
22.1185
33.2987
32.1631
11.4504
37.5004
94.5991
32.1656
35.7222
37.6725
33.5655
-67.8093
15.0518
16.9369
33.4755
10.4371
49.1318
13.1416
23.0307
57.9949
67.223
53.2274
62.9775
58.5623
15.0415
33.6947
31.5566
32.6884
-84.2654
32.9905
16.3687
32.376
-0.375376
10.9623
1.44521
13.5784
33.9234
32.7354
1.8199
27.821
51.0039
82.8007
32.2972
31.4073
20.9457
12.0541
32.3443
20.4786
74.2808
60.1169
36.7968
76.7347
63.4573
-13.7104
54.5894
45.5028
89.9036
73.7706
51.9116
53.8016
104.149
-14.965
24.2829
94.9214
44.543
64.8201
33.1621
61.8394
24.5352
53.2664
101.27
58.4442
67.7068
83.1886
48.0349
49.5816
22.4699
35.3438
55.8344
4.63555
63.5745
20.0606
-2.58976
-10.0665
28.3413
71.035
77.3602
54.0637
42.791
53.2079
51.4518
52.9331
33.1514
27.1675
82.6777
16.269
49.6801
22.0111
40.0931
50.378
29.6979
-19.3272
26.5874
29.2081
50.06
40.7943
28.8179
49.6082
33.7872
28.3981
19.7675
-1.88119
40.1792
17.0714
32.4106
49.3254
12.4605
59.1239
17.3064
31.8255
64.23
44.7685
57.343
75.4056
-31.5382
99.3099
82.6042
21.9022
-5.07105
-32.5746
23.3831
-30.8312
-31.528
27.1537
25.3346
20.0255
-32.5254
102.423
34.5033
-5.13994
42.963
36.3817
18.0141
-5.53094
31.5347
-24.0727
29.1804
-22.9051
29.446
79.5645
12.3686
28.9618
-31.248
65.764
-30.5979
26.2099
-26.469
63.9509
48.7117
23.5623
34.1076
86.0582
44.3122
-1.27074
19.3866
60.5178
26.3295
35.8032
24.4811
20.2946
35.8907
33.7719
55.6026
25.0213
33.1142
28.2117
26.7096
83.9788
33.9379
43.9889
25.7538
42.4462
13.9782
48.1629
46.5479
19.0369
26.6475
44.7554
40.6037
39.6497
106.39
41.936
11.0793
34.3909
37.4074
-68.4764
-74.98
47.5253
50.4677
47.4459
49.5195
27.1535
32.012
101.182
30.8864
50.1481
21.216
34.0277
33.466
48.4204
31.1707
47.6568
27.5158
-36.9386
17.7486
75.5111
20.2455
54.3231
49.6369
-1.85006
-14.3392
69.6331
-20.0306
52.5706
-5.47475
76.8304
5.88657
65.0649
28.9581
38.6524
4.9877
38.1436
30.8243
13.9746
38.5866
53.2266
-40.228
71.1078
20.2347
69.245
33.8891
51.3297
34.0415
33.9972
6.81495
34.4017
43.0293
37.6401
55.4505
32.0768
-18.9653
74.1494
59.1031
80.5568
66.3507
44.2708
54.1364
61.0912
69.6961
32.4586
69.6796
28.4086
30.7415
28.6073
17.2768
5.41167
26.138
28.7559
28.2524
34.354
75.873
41.5742
69.1252
16.1631
48.3607
55.8099
18.8647
14.5105
10.2719
18.8287
102.763
8.45908
32.0859
-23.6575
67.7191
71.7223
56.3553
69.116
27.1287
19.2136
40.4617
34.5915
34.3779
30.4914
74.9398
4.57396
3.13928
33.1269
23.7867
36.9178
48.5564
21.8048
66.032
63.4441
27.6406
71.2017
27.5499
45.7974
17.9047
55.6046
97.4568
34.7342
34.9078
76.8958
48.8373
36.7039
72.8457
45.3665
30.6574
78.1175
21.6889
80.5011
-42.2024
43.1026
67.0205
33.0709
32.3107
41.433
20.0012
33.2735
6.62108
68.7031
15.6503
45.4862
23.5926
27.7988
33.4886
18.3749
64.9239
67.6611
62.4045
42.0064
33.929
32.2307
33.5873
32.6422
59.9532
28.519
27.8716
103.181
28.0422
33.2197
102.268
64.2565
-77.54
94.5756
33.0767
39.0895
71.8886
67.4598
-28.2812
74.719
-26.4022
41.734
-27.5392
25.9991
16.5095
77.3327
42.6815
103.466
15.7268
-28.3894
-21.467
-74.9003
-86.9355
15.5192
2.66836
22.7226
-20.8898
101.437
46.9121
56.9396
88.9208
62.9283
13.2812
47.375
11.2486
90.7699
18.5331
57.627
2.33057
19.2995
18.0691
14.9653
102.358
20.6028
16.3153
59.636
21.0777
19.6667
52.7379
33.1687
16.5529
33.106
18.3304
45.2267
70.5765
5.12319
37.5271
39.0029
32.5765
34.3031
5.6336
14.8042
26.8444
34.3319
83.5611
53.2749
36.3775
33.4619
41.9577
40.8251
18.6988
52.9089
51.2149
-46.9288
17.6993
48.5454
35.3331
39.8752
48.8296
31.3809
47.8004
49.1791
56.0048
29.9582
55.3485
50.882
91.0045
69.1598
47.955
66.5364
57.5831
35.5159
58.5363
22.3902
36.0597
29.6389
42.6833
-2.33987
55.0475
51.6053
28.2224
68.994
4.26062
47.5085
71.4092
30.4219
73.4121
26.3833
8.21094
-33.2985
35.2477
2.90722
29.786
72.4058
32.6728
35.2185
50.2011
38.8123
36.9171
2.88278
47.6112
53.7294
68.415
44.3045
39.1351
56.7287
49.0046
0.314856
17.9646
75.2147
-1.42326
47.5085
32.1149
79.1795
52.2687
53.3723
31.1352
3.66663
-84.4385
71.4294
69.1933
32.6492
28.8566
32.2926
23.3207
73.8684
24.8069
30.3139
36.7562
8.65569
55.0099
29.3659
10.6409
11.9472
73.8221
11.0396
33.9117
61.5918
23.2374
25.0904
10.864
31.747
58.2045
0.249133
16.6678
51.6665
48.0609
26.5746
61.0892
44.7793
-12.1474
11.4805
16.5005
-19.8096
27.1571
57.2257
16.4444
45.4256
57.3767
105.731
16.7859
33.7831
26.8248
14.7342
-26.8554
-9.39252
15.6579
56.1214
91.5189
1.86116
53.4354
52.5798
2.8736
68.0219
43.6091
24.282
50.2316
56.3698
28.4294
46.5834
5.54592
1.59255
53.6551
59.0709
-14.8723
54.8138
50.5032
39.3473
52.5843
56.9732
34.2313
16.5844
33.5324
58.0867
56.5381
54.6134
56.8348
49.3792
0.799178
84.6304
0.798636
36.9334
36.2168
77.7809
63.2743
30.6678
41.7106
99.4744
24.3873
20.3218
-4.25776
40.9868
34.8923
4.76633
28.2602
56.5997
29.5269
32.8212
0.669888
32.709
58.0918
50.6247
47.5623
3.05538
4.2823
27.1157
33.5232
30.7091
37.4333
33.6362
4.02776
32.0431
34.2542
58.2155
15.2583
55.7878
34.1762
33.6827
52.7223
59.4878
64.1673
37.6812
33.745
31.275
42.1537
34.2672
37.8369
-24.796
38.6796
31.6723
-27.4795
-25.5705
-20.5064
54.3859
-5.38134
55.6382
-21.8287
26.9139
-29.9821
23.2154
39.7328
39.4397
34.1183
23.8907
40.2359
36.486
53.9683
35.0914
53.8452
34.2363
29.9167
-90.2244
-31.2045
64.0583
68.4435
4.67337
9.73384
15.2072
-22.8402
-30.9672
32.5029
-31.8637
32.7223
32.8655
9.91346
-59.4418
28.3173
35.7549
52.5965
90.7645
34.4206
-57.2581
32.7837
41.6639
33.906
35.4648
6.7634
37.943
32.2762
32.597
40.0575
47.2494
34.3471
18.2404
-47.2896
-50.1423
18.3008
67.8546
13.3874
50.1488
16.0426
54.7926
43.112
41.4727
64.6917
50.136
67.5935
24.84
41.9202
41.953
33.3086
39.2821
32.6372
44.5696
58.8104
46.2137
80.3489
38.2938
58.9818
-7.48485
34.0406
7.5406
75.2749
55.5646
54.2785
41.5222
13.8077
31.096
47.8681
10.5553
44.8473
40.9166
34.3818
52.7494
50.4329
33.2138
30.3237
9.24164
69.3326
35.5526
0.656003
38.936
8.78142
3.40889
67.5505
-15.3384
33.9651
70.1891
32.8262
61.9229
47.8377
53.7183
34.5956
61.5349
-29.4676
34.6369
-28.4666
33.9991
30.243
62.4007
-30.4775
30.6729
30.3383
36.0985
60.6399
-30.2087
52.4995
33.7056
24.9458
16.5757
36.9988
64.2461
-96.8058
34.1591
44.3542
29.8988
37.5647
63.0757
48.1113
32.8502
59.346
28.281
59.9588
-32.9104
63.1932
-0.140429
27.4172
32.8772
45.2338
35.3296
27.8082
57.904
35.1219
32.7552
34.3652
98.2808
1.41164
78.4629
33.6382
3.8477
34.7295
3.66162
59.9317
52.6301
70.9404
38.4988
3.57126
69.7545
31.7531
6.31883
15.4664
25.3964
39.4346
4.54808
52.9444
20.2502
-29.3023
5.31345
32.734
12.6182
25.9037
7.43271
6.65525
27.9409
8.35557
30.7201
27.1684
1.11354
15.2883
62.9915
24.4808
11.537
73.27
92.2731
56.0728
62.3294
-0.333654
66.3092
85.2888
0.98903
82.1678
35.5997
3.31616
49.1601
74.5342
16.4014
1.1732
95.4886
67.582
64.6057
32.5871
30.6825
3.32181
35.9392
0.05837
16.7168
38.5798
14.9454
93.4561
18.0702
14.7839
10.9224
55.8398
22.482
29.9518
33.578
29.7354
33.4139
11.6562
46.1612
21.1458
63.164
57.9989
35.6548
11.2843
85.8602
30.074
85.2496
67.0115
48.9288
58.6362
8.02949
34.0017
37.62
31.3884
31.1224
58.8522
-82.7722
30.5056
28.3432
13.936
52.9941
19.2472
93.6961
34.9276
87.2654
22.0435
-6.55658
30.1898
30.5998
20.1741
11.2965
16.4252
75.1928
52.5833
75.1293
28.5898
28.8538
42.3032
8.90657
65.1825
68.057
51.5697
34.9818
25.9836
50.1856
-30.9015
26.9742
73.4215
76.5787
64.6478
24.8997
86.8674
41.1979
34.3662
85.1162
72.3648
39.0701
37.5
4.90256
83.9562
47.6989
84.0262
34.0294
5.97933
66.9233
34.6719
0.502923
3.88109
1.89195
34.5523
54.0235
23.6899
35.4128
22.8017
56.3
80.8679
29.2756
77.6627
1.1619
0.659508
30.1343
99.3949
28.7539
92.5889
57.4436
42.6199
65.8473
45.5031
57.8428
-0.532553
-0.404502
1.31255
-0.497552
47.1611
30.9994
53.0281
14.9068
35.0265
24.9943
54.4947
27.4096
91.1665
41.4852
40.0845
2.62948
85.2175
0.261549
61.3383
36.1727
47.6893
32.5062
39.1812
75.2752
80.2646
30.8638
2.11947
33.3614
12.9399
-15.6892
31.6125
95.842
71.3806
99.234
100.752
90.4922
-12.3118
38.9004
90.6219
-0.352538
-0.314878
42.6144
1.42617
23.4229
5.92825
36.2967
38.5574
35.6713
1.8806
57.5978
16.3834
82.1722
9.22245
60.0703
38.14
50.3484
40.9108
32.854
-63.1281
32.3359
19.7737
30.6379
56.4916
-27.7269
-84.4681
58.086
31.8841
30.9902
55.1443
57.5728
31.8576
66.5911
-51.7991
20.8729
16.1776
79.3002
15.9256
44.4732
65.0943
42.3027
6.557
-0.235139
45.2114
33.4158
94.9988
40.4581
11.2544
34.6072
30.0177
-10.6149
30.9923
-28.2278
27.7975
-28.9001
6.0813
-28.0478
48.1318
25.7807
96.0802
-29.1207
63.2339
20.4728
-31.359
29.6498
19.6586
75.5832
73.3566
22.2163
50.2326
56.7777
54.0465
45.0068
51.1833
33.1087
-34.3786
-173.548
5.3871
60.2852
63.7773
16.6688
66.8063
-21.8113
32.5158
45.9353
39.7411
10.5105
68.9408
-21.486
54.2379
74.4956
75.4661
105.354
74.3482
22.825
-2.52919
91.513
68.9405
77.378
6.82617
-32.2109
90.7641
66.8056
36.1827
59.9128
56.9645
9.86668
-26.385
-76.5107
64.5054
46.2082
79.3467
2.54005
89.4091
71.4634
61.0244
80.8327
-42.9175
46.818
40.7109
64.8061
33.0627
7.10337
-44.6889
87.0061
32.203
11.717
-26.0765
88.639
85.3025
84.5289
7.71206
-45.2958
87.0669
25.0819
-0.826847
87.7801
38.8883
33.3355
62.8317
30.4898
36.403
32.6776
85.1842
27.9436
20.0245
35.5056
35.3845
38.4762
33.8253
50.2956
19.1131
32.9593
35.0446
2.95747
-19.9254
-30.3346
29.7618
37.8055
30.761
23.123
22.5774
36.1316
-20.8827
42.2739
-19.9993
-24.04
84.957
61.3611
65.6557
-1.81856
50.5899
-11.4467
25.4529
33.0083
-11.6315
0.134925
0.866065
13.6711
24.6207
12.6173
39.6819
56.3292
56.5307
53.6028
59.3422
82.1935
4.5212
0.298458
0.393883
54.583
14.4788
-27.2748
-2.30174
53.1904
80.4213
62.7785
72.4766
44.2233
-31.0825
34.7606
54.2389
45.554
32.1778
58.3869
49.4819
32.8195
56.8941
32.1129
32.5703
39.9111
54.2994
77.1115
21.5145
99.2795
-37.1088
59.5179
-47.5851
-23.4275
32.3152
45.6212
81.1611
35.6582
22.8668
32.3425
56.2225
21.999
-33.6693
60.8078
88.8797
105.951
-8.05669
16.6028
-0.939922
53.6034
37.8076
29.9844
51.0163
45.2665
24.2633
42.3202
50.7771
11.282
32.9501
-36.5818
33.6005
-61.5712
2.43653
50.7803
-53.3905
30.0009
0.0376878
104.137
45.3446
93.8313
37.9242
-43.124
56.9587
46.063
76.9537
99.2267
54.9281
77.6499
0.695372
14.852
70.0856
51.4155
33.8663
52.8937
16.4283
41.0363
32.4432
72.8886
42.6991
26.9854
43.967
49.7899
34.7823
35.9159
19.6107
1.04414
51.0875
1.41561
54.5907
1.17757
31.5723
51.2795
26.3668
50.3186
-7.1849
0.876433
71.7577
31.0858
79.8547
2.59272
34.1547
-0.136598
0.548154
33.3721
40.6696
54.2588
78.3155
62.9956
-33.8611
3.16952
90.506
68.1304
60.1005
49.1818
0.0149886
-0.621762
-16.2757
90.7611
62.5201
58.2447
0.829857
57.8342
2.60955
1.96313
28.1653
22.6437
12.8776
-14.5767
51.552
29.9171
24.5316
51.6332
78.0042
54.5964
29.5833
56.2505
33.8702
-22.2759
26.9265
5.08286
46.8579
36.842
32.7671
-18.3077
50.3049
-19.1431
66.5649
-20.7798
20.4998
18.508
6.82859
61.713
47.4155
68.3222
73.6961
66.2009
34.8275
49.0129
50.1864
51.1095
64.5795
12.5489
47.4449
54.8176
84.0547
57.9112
26.6509
68.7225
67.3022
-28.2366
-21.7168
22.4309
-25.9798
-24.7688
51.1011
97.1266
-59.3734
26.6008
56.5379
62.9167
-25.5664
12.6168
9.24619
48.9225
26.0133
-25.327
12.1917
77.8912
44.5054
20.9604
48.5475
-33.2852
68.2219
47.4209
0.315095
-48.3968
-44.7197
107.04
55.4897
48.8689
48.2592
56.1166
-23.9747
56.7478
50.3512
59.1642
-0.0631342
54.3583
64.9376
88.0747
79.5523
48.698
29.8893
63.3124
36.066
12.8342
11.1692
69.5479
19.9207
22.5111
9.47891
98.9256
11.6145
-36.5442
66.0354
67.5621
82.6193
-37.6015
1.75675
-30.2903
76.0501
32.0441
17.6228
23.274
49.6136
38.5611
54.6221
29.8581
62.3422
32.3172
51.0348
32.3058
34.6008
3.28437
79.6385
46.929
39.3655
24.0356
44.1032
31.9661
44.8105
39.7265
23.8623
9.09264
28.9311
40.2384
79.2958
27.4397
103.293
3.75473
102.523
98.7901
26.7491
40.2036
41.2997
18.6708
25.5322
-35.6936
56.1722
-14.3942
5.09185
43.28
32.4596
-26.2957
42.483
42.3453
50.5425
44.3671
18.2636
0.0955944
37.4611
27.3676
32.4417
29.8432
30.3075
30.8687
27.4987
32.1017
41.7931
0.993172
28.386
21.8822
31.4171
31.736
59.6667
25.467
72.9519
72.8686
-0.635018
0.777512
33.5319
31.4457
43.1355
6.97711
42.5349
44.706
0.671531
96.9532
4.37904
33.3729
1.05955
1.34686
21.1743
0.328455
-32.5772
31.5337
91.3883
40.9779
32.4369
13.8025
24.5333
31.8895
19.2028
38.2765
3.87665
43.4763
-31.0541
-0.503442
39.6324
61.9928
78.4578
37.0365
45.8255
48.5054
14.1728
25.59
0.26481
88.7848
-3.38015
27.6127
32.5371
94.1911
32.0613
35.743
69.954
-10.8229
44.6369
2.44557
2.57656
0.866287
0.748527
0.558104
-15.4958
56.1523
0.0783268
2.87004
45.0937
1.9994
36.469
39.1393
57.6922
11.3663
43.4884
56.077
23.809
38.2382
48.3827
103.998
53.8015
-71.0372
83.6184
57.2852
65.6073
6.74646
91.1693
15.2157
51.3864
61.3809
5.11551
14.849
-78.6951
15.999
14.3376
-82.1177
65.5317
-28.5103
25.2791
32.9504
16.6711
63.7432
69.8949
96.1288
67.238
94.7255
65.4656
-26.1175
-61.0238
-33.6897
-48.5656
35.7283
38.8257
66.4983
69.4316
66.527
107.045
37.3443
25.7244
-4.83271
4.14482
30.5196
41.2637
36.5261
6.56164
46.5028
45.8147
36.083
47.9924
66.614
18.5973
65.4923
64.6632
55.2921
90.1903
69.5311
50.0528
75.363
14.8974
53.3851
69.662
77.5935
68.979
61.2948
105.016
99.0839
27.742
34.2754
50.7384
85.1684
52.4982
67.6751
34.1948
85.5883
7.00563
22.0112
39.1906
47.7134
93.5462
80.3533
47.7056
41.2185
19.0398
48.9856
35.0172
4.08232
44.7361
16.6767
-16.7704
-17.0812
-4.67346
52.438
-13.3981
69.9608
24.0477
56.3778
62.3242
60.3636
24.8469
48.0096
58.2038
84.5596
62.9988
57.0655
65.9101
56.9563
70.2009
63.8294
59.329
68.1593
51.518
0.824321
48.1273
27.534
34.1595
74.6085
35.1469
106.749
32.9235
41.552
46.3005
20.903
33.629
33.1264
32.7688
13.9764
20.4859
37.9565
20.421
35.8713
43.0106
33.1821
31.2299
7.36386
23.4182
-71.7979
8.58762
-58.4995
3.69709
41.0434
98.7584
33.8157
33.3981
73.4165
32.1511
10.1607
32.8015
55.7479
23.1394
33.2068
33.8199
61.689
72.551
44.6271
56.697
39.7898
9.27049
57.4856
13.5769
45.1609
10.0906
91.211
21.7922
-83.303
54.0775
36.049
-73.3201
33.3334
107.094
52.4628
55.7178
105.995
-32.0173
20.0741
79.7212
75.6118
12.8455
74.0862
21.9702
50.5797
66.6252
10.2795
-27.7302
43.9199
25.581
64.2219
32.766
-16.0075
33.3346
-27.6635
24.9307
41.3505
-15.1305
31.5876
31.5184
36.7576
-20.8775
-42.7558
29.3137
17.1011
32.5091
-21.671
31.213
96.4854
29.9036
26.6824
13.9251
52.7687
31.0487
15.4326
30.6094
25.5014
29.2776
28.7118
34.7999
-32.2577
34.7734
-47.3113
-69.9997
33.9449
-27.3117
22.3751
56.2315
32.7035
-32.7053
25.9989
-19.1602
99.1948
33.1522
27.919
0.270328
34.3584
30.2358
32.4394
33.9936