/*--------------------------------*- C++ -*----------------------------------*\
| =========                 |                                                 |
| \\      /  F ield         | OpenFOAM: The Open Source CFD Toolbox           |
|  \\    /   O peration     | Version:  2506                                  |
|   \\  /    A nd           | Website:  www.openfoam.com                      |
|    \\/     M anipulation  |                                                 |
\*---------------------------------------------------------------------------*/
FoamFile
{
    version     2.0;
    format      ascii;
    arch        "LSB;label=32;scalar=64";
    class       surfaceScalarField;
    location    "0.00481384";
    object      phi;
}
// * * * * * * * * * * * * * * * * * * * * * * * * * * * * * * * * * * * * * //

dimensions      [0 3 -1 0 0 0 0];

oriented        oriented;

internalField   nonuniform List<scalar> 
7683
(
0.00209375
-0.0155198
0.00480448
0.00862152
0.00165752
-0.000176507
0.000652824
-0.00213384
0.00320271
0.00560906
0.00228512
-0.0110969
-0.0298171
0.0057252
0.016136
0.00795592
0.000311456
-0.000858182
-9.34013e-06
0.000556066
-0.0086135
0.0262432
-0.00811437
-0.00951535
0.00233771
-0.00166741
0.00145358
-0.00212389
-9.32709e-05
-0.000953719
0.000565499
-0.00410093
0.000182572
0.00275278
0.00116558
-0.00170317
0.00073287
-0.0022092
0.0031795
0.000333054
-0.00109628
0.00211576
-0.00135253
0.00893403
-0.00275724
0.00624759
-0.0124244
0.0277563
0.00843382
-0.00409585
-0.0320942
-0.000471469
-0.00568974
0.0074321
-0.00127089
-0.000104222
-8.8506e-05
0.000849891
-0.000657163
0.0207431
0.0220084
-0.0325922
-0.0101593
-0.00502947
-0.0054754
0.00582422
0.00468064
0.026268
-0.0042462
-0.0220218
0.0015861
0.00015226
0.000535808
-0.00227417
0.000120552
0.000694985
-0.000923744
0.000108207
-0.000965723
-0.00465925
0.00112152
0.00450346
0.000124
-0.000717506
0.00293122
7.77529e-05
-0.00167781
0.00292494
-0.00132488
-0.00323462
0.00141093
0.00131266
0.000511032
-0.00569642
0.00224139
-0.00872905
0.0121841
-0.000868152
0.000105395
-0.000467176
0.00122993
-0.000700424
0.00156789
-0.000837082
-3.03833e-05
0.000655006
-0.0043036
0.00350396
0.000144635
0.0141975
-0.00433948
-0.00469295
-0.00516507
0.00193845
0.000245235
-0.00758849
0.00540481
0.000293764
-0.000636937
-0.00205013
0.0023933
-0.000359783
0.00174399
-0.000510367
-0.000873837
-0.00247341
0.00171675
0.00203999
-0.00128332
-0.000359781
0.00266122
0.000682056
-0.00298349
-0.0122134
0.00229684
0.00131933
0.00859725
-0.000119044
0.00276726
-0.00200716
-0.000641055
0.00167426
-0.00142754
0.000139543
-0.000386259
0.00045291
-0.00149341
-0.000917126
0.00511256
-0.0149723
0.0117022
-0.00184238
-0.00309695
-0.00364806
-0.0111443
0.0178893
0.000513761
-0.00056269
-0.000988833
-0.0464039
0.011677
0.00209155
-0.00261335
-2.99326e-06
0.000524799
-0.0278079
-0.018596
0.0373317
-0.0194256
0.0101217
-0.0280278
0.00115116
-0.000679665
0.000456174
-0.000927674
-0.000307764
-0.000638039
0.000945802
0.0146791
-0.00498372
-0.00633369
0.00107353
-0.000431158
0.00144918
-0.000992078
-0.000598228
-0.00010279
0.0016931
-0.00254942
-5.77235e-05
0.00321917
-0.000612026
-6.91317e-05
0.000937778
0.000805612
0.000213773
-0.000753739
0.00284685
-0.001183
0.000292664
-0.00135123
0.000563982
0.000494582
0.00924842
0.0154563
-0.0224952
-0.00220952
0.00347755
0.00786574
-0.00306425
-0.00827904
0.00594217
0.00584225
-0.0114406
-0.000343775
0.0232843
0.00447203
-0.0251955
0.00152591
0.0321034
0.000181829
0.00131149
-0.00113363
-0.000359693
-0.00012969
0.00105625
-0.000744732
-0.00233023
-0.000913315
0.00124188
0.00200166
0.000375443
-0.00303358
0.000327908
0.0023974
0.0130872
-0.0204895
0.00500485
0.00110844
0.00177011
-0.00391238
0.00103383
-0.00117761
-0.00357756
0.00236085
0.00239432
0.000549621
0.0019232
-0.0034527
0.000979877
-3.58553e-05
-0.00124733
2.90154e-05
0.00125417
-0.0104911
-0.00225585
-0.00185393
-0.00122712
0.00112226
0.00195879
0.00452697
-0.00340385
-0.00375259
0.00262946
0.000615751
0.000433826
-0.000820812
-0.000228766
-0.00712042
0.0114724
-0.0136352
0.00928314
0.00125934
0.000172787
-0.000807194
-0.000624929
0.000806286
0.00339408
-0.000300333
-0.00390003
-0.000315456
0.00040362
0.000433218
-0.000521383
-8.655e-05
-0.00191718
0.00190553
9.82017e-05
0.00282748
-0.00731994
-0.00241687
0.00690933
0.00302353
-0.000300108
-0.00136608
-0.00135734
-0.00159315
-0.00125321
0.0101626
-0.00731621
-0.00212383
0.00172452
-0.00180487
0.00220419
0.00234115
-0.00245404
0.00340486
-0.00329197
-0.0106826
0.00224841
0.00340474
0.00138876
-0.00124219
-0.00113279
0.00098622
-0.00127026
0.00231077
-0.00156391
0.000523398
0.00542227
0.00181087
0.00906805
-0.0163012
0.0304112
-0.00530842
0.00484768
0.000128935
-0.000403851
-0.000524413
0.000799329
-0.00683329
0.00116998
-0.00134239
0.0070057
-0.00126878
0.00128855
0.00145813
-0.0014779
0.0020735
-0.00151321
-0.000920067
0.00224572
0.00137753
-0.000959469
-0.00266379
-0.00266221
-0.00136452
0.00311376
0.000912964
0.00249127
-0.00310747
0.00385473
-0.00323853
-0.00235848
-0.00129289
0.00276879
0.000882577
-0.000560427
0.000745036
0.000471283
-0.000655891
0.00114784
0.000411597
0.0015216
-0.00308104
-2.34607e-05
0.000659779
-8.1679e-05
-0.000554639
0.00158008
-0.00446599
0.00207398
0.00081192
0.0101993
-0.00881538
-0.0018554
-0.00372902
0.0110542
0.0110844
-0.0184096
-7.418e-05
0.000325733
-0.00179206
0.00154051
0.000416708
-0.00722428
-0.00111965
0.0123699
0.000381434
0.00485371
-0.0176051
-0.000592866
-0.000117408
0.000191006
0.000519269
-0.0011679
-0.0021074
-0.00123626
0.00451155
0.000316462
-0.00018474
0.000179634
-0.000311356
0.000284423
-0.000577423
0.000293
-0.00318129
0.00122476
0.00205424
-9.77093e-05
-0.0013006
0.000650316
0.00061893
3.13558e-05
0.00200189
3.44128e-06
-0.00560348
0.00359816
-0.000876839
0.00183038
0.000140711
-0.00109426
0.00343615
-0.00359146
-0.00290965
0.00919074
0.0221868
-0.0062424
0.00079523
-0.000876793
0.000202116
-9.39367e-05
9.46613e-05
0.000794505
-0.00151734
0.00254307
-0.000731968
0.0070117
-0.00593506
-0.00481685
0.00374022
-0.000512499
0.00203937
-0.00214985
0.000622983
0.000467617
-0.000796772
0.000405981
-7.68259e-05
0.0010448
-0.000581019
0.000583738
-0.00104752
0.0171436
-0.00537326
-0.00945196
-0.0023184
0.00469663
-0.000173555
-0.000501601
-0.00402148
0.000447759
-0.00257134
0.00292824
-0.000804652
-0.00081558
0.00293913
-0.00327738
0.00115384
-0.000236931
0.000683124
0.00231133
-0.00275752
-0.0399961
-0.0258801
0.0245794
0.000371697
0.00074969
-0.000404133
-0.000717254
0.000143624
0.00127745
-0.00145705
3.59764e-05
0.00205241
0.00739932
0.00214446
-0.0115962
2.183e-05
0.000664101
-0.00711767
0.00643173
-0.00269861
-0.00130452
0.0047538
-0.000750663
-0.0132192
-0.00705488
0.0165684
0.00370568
-0.00259395
0.00516195
-0.00305668
0.000488685
-0.00362113
-0.00217754
-0.000528564
0.00632723
0.00164129
-0.00825382
-0.00568645
0.012299
0.0115733
-0.0026183
-0.0151549
-0.00452206
0.00331088
0.0138824
-0.0126712
-0.000359363
-0.0017641
0.00148214
0.00064133
-0.00115466
0.00287984
0.000619323
-0.0023445
-0.00216981
0.0012747
0.00204295
-0.000443164
6.68821e-07
-0.000290406
0.000732901
-0.000684088
0.00086065
-0.00116864
-0.0042765
0.000671557
-0.000139192
0.00325242
-0.00369806
1.84686e-05
0.000427169
0.00133526
0.000173195
-0.00906868
0.00756023
-0.000650698
0.00107603
0.000963432
0.00117294
0.000226332
-0.00139927
0.00217248
-0.000139101
0.00099255
-0.00302593
-0.000129399
-0.000965312
-0.00215894
0.00325365
0.00195989
-0.000571211
-0.00185354
0.000464853
-0.000192171
0.00102437
-0.000832195
-0.000512184
0.00124863
-0.000844799
0.000108354
-0.00169289
0.00222099
-0.000404096
0.00295301
-0.00311263
0.000341781
-0.000182164
-0.0017055
0.000352263
0.00066915
-0.00146704
0.00136241
-0.00032636
0.000430989
0.00145124
-0.000518183
-0.000317221
-0.000615831
-0.000510893
-0.00140223
0.00178343
-0.0156176
0.0202441
-0.00772339
-0.000594548
0.000670471
0.0003815
-0.000457423
-0.00681813
-0.00378323
0.0134175
-0.00281618
-0.00233168
-0.00372332
0.00358624
0.00246877
-0.00037877
-0.000841324
0.000893199
0.000326895
0.00131367
-0.00432051
0.00455724
-0.0015504
0.0038855
0.00488822
-0.0084202
-0.000353523
-0.003378
0.00408942
0.000133408
-0.000844827
-0.00598899
4.29781e-05
0.00493464
0.00101137
-0.0190446
-0.0173768
-0.0125051
0.00596607
-0.000477021
0.00701602
0.00331724
6.93596e-05
0.00145575
-0.00484235
-0.000603962
0.00288394
-0.00140337
-0.000876602
-0.00215547
0.005302
-0.00314653
-0.00197852
-0.00246954
0.00444806
-0.00412197
-0.000475736
0.00499849
-0.000400785
0.0172628
-0.00640968
-0.00921181
-0.00446036
-0.00404458
0.000999806
0.00750513
0.00164625
-0.00196072
0.000315906
-1.43641e-06
-0.000782734
0.00130867
-0.00201695
0.00149101
-7.64101e-05
0.0015033
-0.00142515
-1.74867e-06
-0.000220477
-0.000393107
-0.000895448
0.00150903
0.000560688
-0.00334181
0.000988915
0.00179221
0.00169968
-0.00759629
0.0306651
-0.0247685
-0.00729913
0.00783379
-0.00491056
0.000824508
-0.00568309
0.00318922
-0.000761489
-0.00586077
0.00546622
0.00115604
-0.00174737
-0.00157648
0.00675999
-0.000316427
-0.00114403
0.000944517
0.000515943
0.00279863
-0.0036
0.000517999
-0.029841
0.00462421
0.0252168
0.000268051
-0.00183099
-0.000354048
0.000441689
0.000192771
-0.000280413
0.000677894
-0.00132951
0.0013348
-0.000683183
-0.000821054
-0.000717862
0.000599824
-0.00335678
-0.00430721
0.00289165
0.00861116
0.00476747
-0.00795636
-0.00167366
0.00141438
-0.000543915
0.00411314
-0.00551073
0.00250603
0.0165936
0.00235223
-0.0168803
-0.00206551
0.00104879
0.000333265
0.000154601
-0.00153666
-0.00179353
-0.000640746
0.00116402
1.9062e-05
-0.00536253
0.0036403
-0.000969646
-0.00268943
-0.00100638
0.00466546
-0.00230892
0.000792585
0.000769014
0.000747319
0.00133949
0.00172917
-0.00317881
0.00011015
0.000345981
-0.00184637
0.000432134
0.00106825
0.00103542
-0.000817318
-0.00229214
0.00207404
0.000927851
-0.00216873
-0.000552652
-0.00114156
0.000782165
0.000437047
-7.76489e-05
0.000284783
0.00236708
0.00204269
-0.00469456
-0.000790326
0.00203922
-0.00246076
0.00121186
0.000743446
-0.000116107
0.000465422
-0.00109276
-0.00423521
0.00564963
-0.00411303
0.00274292
0.000386305
-0.00215421
-0.00097502
0.0152015
0.0131684
-0.0187583
-0.0096116
0.000517946
-0.000832208
-0.000137577
0.000451839
0.00146668
-0.00235988
0.00155283
-0.00065963
0.00103796
-0.000137856
-1.52495e-05
-0.00218899
0.00161345
-0.000177205
0.000752743
0.00335278
0.000161309
-0.000866932
0.00330127
0.000823647
-0.00325799
-0.000726233
0.000461947
0.000512886
-0.0002486
-0.00331504
0.00149708
0.00132655
0.000491405
0.00115204
-0.000898911
0.00011857
0.000601971
-0.00146305
-0.00146886
0.00232994
0.00272894
-0.0101518
0.00388487
0.00353803
0.00687261
0.00301697
0.00601858
-0.000525605
0.000393898
-0.00300706
0.00658908
-0.00973322
0.0061512
-0.00345765
0.00718185
0.00138481
-0.00510901
0.000847593
-0.00144488
0.000280879
0.000316407
-0.000490791
0.000744906
2.31634e-05
-0.000277279
-0.00717809
-0.0233251
0.0292826
0.00122067
-5.34236e-05
0.00291597
-0.00314574
0.000283191
0.0142092
0.00699344
-0.00405904
0.000604826
0.0203752
0.000749572
-0.0217296
-0.00333702
0.00314049
0.00126815
-0.00107162
0.000367752
0.000289798
-0.000189933
-0.000406621
0.00170797
0.00165166
0.000227802
-0.000823431
0.000326026
0.000269602
-0.00113373
-0.000352417
-0.000987264
0.00944002
-0.00272467
-0.0115545
0.00483913
0.00134355
5.00463e-05
-0.00135558
-3.80225e-05
-0.00163508
0.00076906
-0.00177563
0.00264165
-0.0107355
0.00571133
-0.00159193
0.000632332
-0.00109644
0.00499108
0.0039939
-0.00315433
-4.35231e-05
-0.00079605
0.00338737
-0.00140703
-0.000430357
-0.00154999
-0.00519266
0.0104084
0.0130749
0.00050576
-0.00254081
-0.0110399
-0.00104443
-0.00575991
0.00270341
-0.00655756
0.0232828
-0.00515199
0.0176911
-0.000223898
0.00343616
0.00229939
-0.000152159
-0.00266225
0.000515025
-0.00121802
-0.00245799
0.00200574
0.00167028
-0.00141466
0.000531093
0.00032314
-0.00337966
0.00369564
0.000242439
-0.000558412
0.00135138
-0.000710505
0.000368703
-0.00100958
0.00246341
0.000264337
-0.000108401
-0.00261934
-0.0021849
0.00125806
0.00069584
0.000231003
5.70024e-07
-5.62639e-05
-0.000654842
0.000710536
-0.000201142
0.000640956
-0.000439814
0.0044648
-0.00635527
0.0142604
-0.000361763
-0.000101897
0.00108098
-0.00061732
0.000595914
-0.000793671
0.0012313
-0.00103354
0.00273633
0.00044218
-0.000317848
-0.00286066
0.00462111
0.00241581
-0.00090202
-0.0061349
0.00223418
-0.00225289
0.00106468
-0.00104597
0.00108135
-0.000895098
-0.000180982
-5.27268e-06
0.000508414
0.000189867
-0.000229584
-0.000468698
0.00446087
-0.000791986
-0.00303655
0.000155296
0.000292707
3.8735e-05
-0.000486737
0.00113454
1.66251e-05
0.00191239
0.0011628
-0.000809737
-0.00226545
9.15661e-05
-0.00278525
0.0203848
0.00396438
0.00731795
-0.00357044
-0.00771188
-0.00228461
-0.00684425
0.000875033
0.00082255
-0.00384132
0.0024176
0.000601167
-0.00205231
0.00146005
0.000232893
0.000232123
0.000213796
3.92614e-05
-0.000485181
-0.00201455
0.00428491
-0.00390543
0.00203795
-0.00298119
0.00131415
-0.000370916
0.00394869
0.000100037
-0.000131253
-0.00391747
0.00180316
-0.000554897
-0.000646296
-0.0044766
-0.00937063
0.0169081
-0.00306089
-0.000285759
0.000491804
0.000483439
-0.000689485
0.00108601
-0.00058705
0.000362139
-0.000861099
-0.00847589
-0.0123047
0.005163
0.00119731
-0.00212589
-0.00152088
0.00212943
0.00336147
0.000995875
-0.00205796
-0.000115285
-0.000582072
0.000311842
0.000385515
-0.00779714
-0.000118183
0.00541153
-0.00498987
-0.000406288
0.00169162
0.00370453
-0.000901043
0.00196697
-0.00167941
0.00499635
0.00244795
0.000823089
-0.0042929
0.0050173
-0.00154749
0.00541055
0.00485197
0.00220486
0.013973
0.00322471
-0.000886389
-0.00301346
0.0215185
0.001025
0.000583349
0.000164276
-0.00177263
0.0127314
-0.0097139
-0.00783466
0.00481715
0.00181864
-0.0010201
0.00348314
-0.00428168
-0.00101522
-0.000465056
0.00177462
-0.00029435
-3.03386e-05
0.00367084
0.00122518
-0.00486569
-0.000302751
0.000666215
-0.000363464
0.000495892
-0.00370028
-0.000671126
0.00387552
-0.00113695
0.00126287
0.00113341
-0.00867405
0.010127
-0.0107314
0.00927847
-0.00975761
0.000999778
0.00275089
0.00600695
-0.00521741
-0.0139304
0.00313063
0.0160172
-0.000457463
-0.000975192
0.014298
-0.0128654
0.000763967
-8.34901e-05
-0.000679808
2.62873e-05
-0.00109919
-0.00276945
0.00384235
0.00175515
0.000545448
-0.00237478
0.015986
-0.0173749
-0.00497529
0.00636425
-0.00624632
-0.00291482
0.00471961
0.00444153
-0.0015104
0.0352403
0.00251438
-0.00016766
0.00265717
-0.00500389
-0.00234367
0.00442737
-0.00104828
0.00131898
-0.00423666
0.00407492
-0.00115724
-0.00383009
0.000283799
0.00161632
0.00192997
0.000814273
0.00344387
-0.00187725
-0.00238089
0.00355436
-0.00107638
-0.00260738
0.00349657
0.00462996
-0.00552844
-0.00259809
-0.00287206
0.00200592
0.00130249
-0.000436345
0.00152683
-0.00111729
-0.00250825
0.00209871
-0.00423935
0.000325363
-0.000921003
0.00483499
0.000205261
-0.000787945
-0.00192023
-0.000598285
0.000353135
-0.000507388
0.000752538
-0.00425385
-0.0014316
0.0060936
-0.000408149
0.00214593
-0.000321209
0.00287191
-0.00322304
0.00106096
0.000458857
0.00170322
0.00156256
0.0174783
-0.018436
-0.00132181
-0.000933783
7.70665e-05
0.00217852
-0.00330096
0.0009078
0.000893257
0.0014999
-0.00323382
0.00208071
0.00206452
-0.000911408
-0.00353008
0.00226733
-0.00381436
0.00507712
0.000684192
-0.000479538
-0.00211667
0.00191202
-3.26028e-05
0.00162623
0.00380522
-0.00539884
0.00538065
-0.00281003
0.00208339
-0.004654
-0.00197906
0.00531744
-0.00235602
-0.000982351
0.00860399
-0.00356549
-0.00466142
-0.000377077
-0.00217502
-0.000267177
-0.000171159
0.00149306
-0.00202519
0.00184017
-0.00130805
-6.27038e-05
0.000449196
-0.000589274
0.000202782
0.000766956
0.000172762
-0.00131281
0.000373088
-0.00168222
0.00198541
0.0216883
-0.0219914
0.000467699
-0.000235192
-0.000895723
0.000663216
-0.00548952
-0.00167018
0.00477156
0.00238813
0.0238206
-0.0153333
-2.53184e-05
-0.00846199
-5.23088e-05
-0.00114804
0.00120035
7.16759e-05
-0.00245782
0.000713837
0.00167231
0.000354484
0.000382332
-0.000736817
-0.00115549
0.00321121
-0.00168385
-0.000371877
-0.00479713
0.000797747
-0.000596365
-0.000563146
0.00159392
5.52185e-05
-2.88798e-06
0.00364384
0.000640269
-0.00223152
-0.00205259
-0.00216437
0.000352148
-0.000156342
0.00196856
-0.00139696
-0.00186286
0.00107083
-0.000795075
0.00064707
0.000148005
0.00283916
-0.00342962
6.15215e-05
0.00052894
0.000633402
-0.00193501
0.00344754
-0.00108394
0.00198997
0.00234639
0.00226839
0.000703117
-0.00388482
-0.00100487
0.00952282
9.32137e-05
-0.00205651
0.00340222
0.000933227
-0.00227893
0.00129055
-0.00178092
-0.000118576
0.000608949
-0.00318447
-0.00102209
0.00197956
0.002227
0.00101454
-0.0001667
0.00146294
-0.000330875
0.000104711
-0.00109267
0.00131883
0.00279968
-0.00500614
0.0049354
-0.00114345
0.000351587
-0.00032111
0.00111298
-0.00254847
0.000220844
-0.000906993
0.00238568
-0.000626953
-0.00291422
0.00249397
-0.00089878
-0.00358242
0.00198724
0.00114631
-0.000867108
0.00274789
-0.00302709
-0.00105268
0.00067309
-2.18986e-05
0.000401489
9.74909e-05
-1.33946e-05
-8.40963e-05
8.66745e-05
-0.000355299
0.000771079
-0.000502454
0.00404024
-0.00282706
0.00245338
-0.00366656
-0.00354246
0.00132451
0.00189674
0.000293812
-0.00238874
0.00185799
0.000104173
0.000569736
7.57801e-05
-0.000655332
0.00203646
8.55609e-05
-0.00048038
0.000606639
-0.000125688
-0.00148461
0.000978713
-0.000869308
0.0013752
-0.00287591
0.000128243
0.00289129
-0.00153829
-0.000203271
0.000390846
0.00135072
-0.00237462
0.00101197
-0.0031334
0.00620465
-0.00193553
-0.00113572
0.00664473
-0.00193494
-0.000715294
0.000751054
-3.57597e-05
-0.0088604
0.010326
0.00877219
-0.00374341
-0.00836905
0.00334027
0.00154183
0.000773125
-0.000327852
-0.00198711
0.00181587
-0.00219135
-0.00298052
0.00348726
0.00300712
0.000927389
-0.00742177
-0.00081697
0.00012908
0.000792063
0.00147684
-0.000145929
-0.00246464
-0.00310482
-0.00133125
0.00226954
0.0011799
0.00415852
-0.00877013
-0.00417439
0.00878599
-0.000411324
0.000235584
0.000460164
-0.000245275
0.000201702
-0.00145537
0.000582722
0.000386281
0.000486367
-0.00486664
7.41144e-05
-0.000701768
0.00549429
0.00529759
0.0119394
-0.00301806
-0.000496164
-0.00187723
0.00539145
-0.000453334
0.00297291
-0.00207181
0.0032718
-0.00226847
0.00146008
-0.00680133
0.00430267
-0.019854
0.0223527
0.0216458
-0.00127051
0.0214177
-0.0426523
-0.00144169
-0.00133245
-0.000835535
3.44486e-05
0.00213353
0.0107352
0.027185
-0.0111448
0.00515085
0.0176156
-0.0116217
-0.0194811
0.00704471
-0.00423129
0.0166676
-0.00193181
-0.00298675
0.00151207
0.00340648
-0.00484447
0.0165466
-0.022847
0.00489614
-0.00709861
0.0028395
-0.0103836
0.00633679
0.000409358
-0.00202627
0.00385109
0.00145117
0.00156321
-0.00238016
-0.000634217
0.00164434
-0.000843238
-0.00043431
-0.000366795
-8.00477e-05
0.00192112
-0.00187693
-0.00390483
-0.00328312
0.00498685
0.0022011
0.000136752
-3.44414e-05
7.68279e-05
0.0034197
-0.00346209
-0.00326689
-0.000952006
-0.000134055
-0.00470992
-0.0055722
0.00809229
0.00218983
-0.00726289
-0.00889245
0.00293614
-0.00257194
-0.00914449
0.00794704
0.00376938
0.0139931
-0.0115615
0.00268099
-0.00320889
0.00663472
-0.00237601
-0.00104982
-0.00115117
0.00139741
-0.00249914
0.00282418
-0.000128406
0.000784832
-0.0034806
-0.00322502
0.00146263
0.000611219
-0.000465451
0.00329298
-0.00346447
-0.00267291
-0.00153309
0.00113816
0.00306784
-0.00085809
-0.000782077
-0.00214136
0.00378153
0.00456271
0.0106369
0.000399706
-0.0155993
0.00645723
0.00245899
-0.0104603
0.00154412
0.0144375
0.00320017
-0.00823594
-0.00238922
0.0107936
-0.00016845
-0.001934
-0.000230982
-0.00106004
-0.00281494
0.00108404
0.000948164
0.000247663
-0.000611142
0.00124697
-0.000883489
-0.000607173
0.0010725
-0.000350489
-0.000114842
-0.000319061
0.000750798
0.000311709
0.00273587
-8.08537e-05
-0.00306593
0.000410912
0.00334351
-0.000111753
0.00261555
-0.00301174
0.000315334
0.000825306
-0.000758227
-3.11487e-07
0.00355802
-0.00174166
-0.00181605
0.00169646
0.00172018
0.000577259
2.50621e-05
-0.000115507
-0.00278161
0.00330105
-4.3651e-05
-0.00145179
-0.00180561
0.000136457
0.00347093
-0.00160147
0.00131636
0.0025343
-0.00122256
0.00352213
-7.5662e-05
-0.00222391
0.0013659
0.00222845
-0.00066942
0.000694369
-0.0019836
-0.00128551
0.00257474
-0.00227845
0.00332888
-0.00188474
0.000834302
0.00693185
-0.00628713
-0.00127677
0.000632049
0.00161206
0.00132083
0.00399896
0.00303655
0.00176841
-0.00117663
-0.00362833
0.00101235
0.00349685
-0.00147264
0.001002
0.000432794
-0.00204518
0.000610389
-0.00202542
4.75579e-05
0.00267765
-0.000699783
-5.75098e-05
-0.00206439
9.64778e-05
-0.00201724
-0.000719324
0.00278413
-0.0021898
0.000115048
0.00121627
-0.00115792
-0.00388844
-0.0013516
-0.000540617
0.00120302
0.00068919
0.00281009
0.000364021
-0.00195784
0.000146394
-0.00139759
0.003
-0.0017488
-0.00285925
0.00164156
0.000368872
0.00084882
0.000578445
-0.000442581
0.000281239
-0.000417103
-0.000226816
-7.15318e-05
-0.000470582
-0.000552522
-1.80619e-05
0.00104117
0.00109308
-0.000339565
-5.44495e-05
-0.000699066
0.000417332
0.00125402
-0.000578271
0.00132174
0.000437698
-0.000289074
-0.00147036
-0.000986682
-0.00124946
0.00181884
0.000417293
0.000636339
-0.00179385
0.00304323
-0.00188572
-0.00236209
0.00229752
0.000700944
-0.000636372
-0.00265938
0.00109693
0.000419586
0.00114287
-0.019623
0.00604948
-0.00166336
0.000273523
-0.0019252
-0.000100911
-0.00109878
0.000686786
0.000512906
2.5048e-05
-0.000703779
0.000839872
-0.000161142
0.00058039
-0.000950488
0.000984347
-0.00061425
0.000565975
0.000535224
-0.000504571
-0.000596628
0.000320377
0.000130314
0.000650213
-0.00262005
-0.000465103
0.00243494
0.00273722
-0.00038783
-0.00169917
0.00459211
-0.00628007
-0.00324557
0.00493353
0.00605972
-0.00551581
0.0144768
-0.000147329
-0.0158412
0.0015118
0.00136776
0.00608934
-0.00139737
-0.0111671
-0.00137383
0.0129577
0.002618
0.00806229
-0.00874184
0.00295669
0.0162878
-0.0103045
-0.00893993
0.00399156
0.00414956
0.00326697
-0.00124993
-0.0137393
0.0116887
0.00330059
0.030757
-0.00311687
0.0126065
-0.0166193
0.0119511
0.00341824
-0.0039364
-0.0105522
0.00074922
0.00314633
-0.00322789
-0.0165377
-0.0110892
-0.00336682
0.00328893
-0.00242726
-0.00458407
-0.000216425
0.00722776
-0.0093382
-0.00417829
0.000803388
0.021668
-0.0292728
0.00277533
-0.000626305
-0.00330369
0.00332594
0.000371604
-0.000922208
0.000604475
0.00263817
-0.0022623
-0.000980341
-0.00176684
0.00205597
-0.000782776
0.000493642
-0.00115833
-0.00135466
-0.00251721
-0.000944753
0.00318372
0.000278234
0.00207081
0.00175703
-0.00354306
0.000901624
-0.00059765
-0.00373749
0.00136046
0.00243626
-5.92332e-05
-0.000817319
0.000963055
-0.0014375
0.00129176
0.00366302
-0.00314271
-0.000693869
-0.00307087
0.00238074
-0.000464078
0.00115421
-0.000246668
-0.00258407
0.000617792
0.00221294
-0.00491211
0.00169124
-0.000966457
-0.0012935
-0.00206863
0.000291258
0.00238483
-0.00337187
0.00287081
-0.00188377
0.000779044
0.00169915
-9.33645e-05
-0.00113348
-0.000179784
0.000427363
0.000885899
0.0024049
0.000475829
-0.000476894
-0.00240384
0.00136011
0.00121072
-0.000378636
-0.00219219
-0.000826091
-0.00309087
0.00272946
0.0011875
0.00112467
-0.00152133
-0.00102114
0.0014178
0.000558062
0.000474279
9.23272e-05
0.00231385
0.00041806
-0.00246757
-0.00066126
0.00210651
-0.00106557
-0.000379683
-0.000337473
-0.000703504
0.000334518
0.000706458
-0.000653019
-0.000350902
0.000443863
0.000560059
-0.000158925
-0.000343283
-0.000150811
0.000715078
-0.000930933
0.000443657
-0.00408071
-0.00162256
0.00368461
0.00201866
-0.000433855
8.39808e-05
0.00106372
-0.000713844
-0.00102576
-0.00055077
0.00114267
0.0011024
-0.000563414
0.00076117
-0.00130015
0.00140891
-0.000282178
-2.43367e-05
0.0137956
-0.000343585
0.00253392
-0.00211536
0.0176107
-0.00539826
-0.00349708
0.0026586
-0.00281871
0.00420035
0.00125293
-0.00189768
0.00188781
-0.00124306
0.00374317
0.00016836
-4.05147e-05
0.000438922
0.00267291
-0.00307132
0.000348442
0.00196884
-0.0023578
2.76349e-05
-0.00240742
-0.0015216
0.000230929
-0.000968502
0.00106609
-0.000328517
-0.00034756
-0.000668532
0.000402256
0.000613835
0.000829916
0.000145848
-0.000395374
0.000108647
-0.000107509
0.000880806
-0.000881944
-0.000651046
-6.85128e-05
-0.000683275
-0.000342727
0.00170345
0.000953124
-0.00218688
-0.00187678
-0.000410127
0.00447379
-0.00198704
-0.000149801
0.000443947
-0.00100536
-0.00215116
-0.000495648
6.24338e-05
-0.00124044
-0.0010473
-0.00281485
0.00187511
0.000178154
-0.00060637
0.000256718
0.000171498
-0.000867896
0.00118173
0.00045977
-0.000773607
-0.000356877
-0.00238722
0.00224845
9.31161e-05
0.00184967
0.000800134
0.00179111
-0.00198607
-0.000777543
0.000972505
-0.00338821
-0.000756935
0.000675491
0.00346966
0.00111343
-0.00096393
0.000305281
-0.000454786
-0.00454795
0.00170173
0.00118926
0.00100841
-0.000773726
-0.00142394
-0.00073648
0.00264499
-0.00614786
0.000974631
9.31509e-06
0.000103943
-0.00108789
0.000887742
0.00195406
-0.00146992
-0.00137188
-0.00049336
0.00109802
-0.000136963
-5.52452e-05
-0.000775877
-9.27003e-05
0.000923823
0.000817877
0.000372861
-0.00113483
-5.59111e-05
0.000759724
-3.40851e-05
-0.000923485
-0.00264543
-0.00261706
0.00257305
0.00758261
-0.00972467
0.00365086
-0.0015088
0.000233621
-0.000907941
0.000326761
-0.000991685
0.00135526
-1.63824e-05
-0.000347192
0.000122783
0.000303662
-0.00156339
-8.19631e-06
-0.000202256
-0.000583663
0.000794115
0.00555707
0.000183842
0.00259748
0.00102856
0.000553823
-0.000192018
0.000380985
-0.00074279
0.00162015
0.00142655
0.000371975
-0.00341867
-0.000728007
0.000842762
0.000128431
-0.000243186
-0.00250118
2.675e-05
-0.00106752
-0.00243333
-0.00107798
-0.00398399
-0.000672348
0.00492003
-0.000263684
0.00561589
-0.00115812
-0.00111603
-0.00307459
0.00421691
0.00139232
-0.000264834
-0.000266831
0.00134535
-0.0021024
0.000757733
0.000518476
0.00033
0.00117093
-0.000743196
-0.00559274
0.000380057
0.00652455
-0.00131187
0.00288273
-0.00427343
9.72e-05
-0.00114999
-0.00696537
0.00252263
0.00139064
0.00108131
0.000142237
-0.00261418
-0.000789437
0.000526356
-0.000101943
0.000365025
-0.000235699
-0.0023628
0.00163876
0.000959739
5.90434e-05
-0.00061982
0.000173975
0.000386801
-0.019287
0.0128995
-0.00971493
-0.00035527
-0.010054
0.00176
0.0198858
0.00283832
-0.0204551
0.0172732
-0.0078743
0.0193774
0.0117811
-0.0105942
0.0126875
0.00469484
-0.0117761
0.00597662
0.00110464
-0.000183936
-0.000671938
-0.00132903
-0.0075793
-0.00392238
0.00785363
0.000468991
-0.00148448
0.00107445
-5.89714e-05
0.00584844
-0.00825162
0.0125378
-0.0129214
-0.00498966
-0.00744555
-0.0223954
-0.000765498
-0.00168876
-0.000933956
-0.00191306
0.00165782
0.00138584
-0.00113061
-0.00462996
-0.00132388
0.00464932
0.0161315
0.00524208
-0.00846057
-0.012913
-0.0169037
0.00538859
-0.00021305
-0.00088538
0.000902418
0.000196012
-0.00216543
0.00116103
-0.00171969
0.00272408
-0.00146262
-0.000383319
-0.00126669
-0.00255414
0.00479576
-0.0017375
0.00106684
0.00229081
-0.00490372
0.00181564
0.00385513
-0.000767057
0.000407112
0.00183223
0.000174014
0.000933964
0.000343257
0.000479272
0.000415629
-2.61295e-05
-0.000868771
0.000507941
4.8698e-05
0.000493263
-0.0010499
0.00181975
-0.00164207
0.00172463
-0.00190231
0.00150251
-0.00353546
0.00158108
0.000451875
-0.00699885
0.00380795
0.00500176
-0.000669032
-0.000270874
-0.000201657
0.000820381
-0.00171736
0.000281742
0.000247714
0.00233629
-0.00180017
-0.00351772
0.00298159
-0.000782472
-0.00197945
0.00210088
0.000661041
-6.9254e-05
5.06902e-05
0.000560524
-0.00054196
0.000217927
-0.00122862
0.00672619
0.00448906
0.00298225
-0.00262844
-0.00113295
0.0012086
-0.00090073
-0.00235994
0.00205208
0.00208347
0.000444327
-0.00108868
-0.00143911
0.00383815
-0.00326723
-0.00413634
0.00356541
-0.00051201
-0.00213745
0.000480734
0.000657934
-0.00200091
-0.00112246
0.00256808
-0.000631343
0.0227877
-0.00323385
0.00253691
0.00127377
-0.000844408
-0.00296626
0.00336441
0.000406116
-0.00492052
-0.00107243
0.00114113
0.00380517
-0.00387387
-0.0045139
0.00135613
0.000257139
-0.000886866
0.00120409
-0.000574364
0.00154596
-0.000878171
-0.0027243
-0.00127824
-0.000473016
0.00236929
0.000990485
0.00136737
0.00021809
-0.00257594
-0.0156855
-0.01118
-0.00280022
0.00361467
-0.000310572
-0.00312039
-0.000183703
0.0301517
-0.000905089
0.0068179
0.0134618
0.0191735
-0.0208557
-6.02819e-05
-0.0007943
-0.000101397
0.00095598
0.00416065
-0.00188995
-0.00186134
-0.000287962
-0.000101603
-0.00193698
0.000366493
-0.000530044
-0.000781749
0.0009453
-0.001006
-0.00118148
0.000218947
-0.000181074
-0.00806797
0.0204808
0.027924
-0.0119734
0.00049954
-0.00107623
-8.55934e-06
0.000585252
0.000940476
-0.00130803
7.37759e-05
0.000293776
-0.000132914
2.42464e-05
0.00138244
-0.00127377
0.000715575
0.000157255
-0.000656001
0.00041904
-0.000134676
-0.000623091
0.000624854
-0.00787045
0.0048411
-1.58094e-05
0.000517255
0.000205368
-0.000706813
-0.00791222
0.00421046
-0.00698086
0.0140118
-0.00269585
-0.00135501
-0.0099609
-0.00482364
0.00683296
-0.000695651
-0.000983205
0.000898043
0.00123603
-0.00115087
-0.00113157
0.00283355
-0.000157189
-0.00154478
0.000818727
-0.00269687
0.0126047
-0.0203063
-0.0171622
-0.00379998
0.00267054
-0.000518698
0.0031531
0.00686332
0.00189976
-0.000431325
0.0132502
-0.00325032
-0.00323749
0.000365988
0.00213502
-0.000170533
-0.000506638
0.00339979
-0.00272262
-0.000468078
-0.000497307
4.72764e-05
0.000918108
-0.00248599
-0.00183832
-0.00297483
0.00265762
-0.00114541
0.00528482
-0.00692319
-0.00126346
-0.00182825
0.00128289
0.00180882
-0.00410011
0.0020343
0.00135624
-0.00192842
-0.000251109
0.000823286
0.000340174
-0.0119097
0.000128919
0.00167497
0.001567
-0.00127313
-0.00222111
-0.000756745
0.0021383
0.000839556
0.0070574
-0.00790145
-0.00171009
-0.00224406
-0.000616185
0.0013972
6.87712e-05
-0.00462442
0.000571651
0.0026177
-0.0070884
0.00568818
-0.00121748
-0.0191536
0.00517721
0.0239897
-0.00734716
-0.00152586
0.00216559
0.000716515
0.00103976
0.000300254
-0.00106323
-0.000276781
0.00024344
0.000807938
-1.16162e-05
0.000360295
0.0011155
-0.00123236
0.00154548
0.000223732