/*--------------------------------*- C++ -*----------------------------------*\
| =========                 |                                                 |
| \\      /  F ield         | OpenFOAM: The Open Source CFD Toolbox           |
|  \\    /   O peration     | Version:  2506                                  |
|   \\  /    A nd           | Website:  www.openfoam.com                      |
|    \\/     M anipulation  |                                                 |
\*---------------------------------------------------------------------------*/
FoamFile
{
    version     2.0;
    format      ascii;
    arch        "LSB;label=32;scalar=64";
    class       volVectorField;
    location    "0.00481384";
    object      U;
}
// * * * * * * * * * * * * * * * * * * * * * * * * * * * * * * * * * * * * * //

dimensions      [0 1 -1 0 0 0 0];

internalField   nonuniform List<vector> 
3991
(
(11.9896 -0.245615 -0.515139)
(5.59807 1.61216 -0.0781079)
(10.4652 0.212119 0.162646)
(10.6852 -0.380863 0.470002)
(7.56754 2.57932 2.82819)
(10.3017 -0.0956989 -0.0541504)
(15.4535 0.254361 0.53994)
(1.63036 0.734482 -5.96888)
(10.4803 -0.906611 -0.482793)
(9.67663 1.42762 -0.310692)
(9.23483 1.61859 -0.471981)
(11.0848 0.0107546 0.532269)
(10.5709 0.0941136 -0.404014)
(11.0279 0.17502 0.169288)
(14.2951 0.151559 -0.908338)
(10.3268 0.602224 -0.0200999)
(10.1685 0.625799 1.27224)
(10.5409 -0.0447656 -0.0714794)
(11.9656 0.188058 0.87188)
(14.9324 -1.34762 -1.24998)
(12.2389 0.46971 0.660271)
(14.8878 -0.840448 0.679044)
(12.5983 0.312179 0.781826)
(11.7039 -0.665328 -0.72877)
(9.77081 0.661147 2.83089)
(7.96459 3.49833 2.90947)
(6.03242 2.6384 1.29838)
(9.06191 1.00575 3.02878)
(10.18 0.391509 0.512746)
(10.2787 0.346906 0.277011)
(10.8668 -1.22026 -2.07049)
(9.13873 1.64179 0.647414)
(9.58961 -2.27467 -5.03076)
(10.2646 0.97168 0.717024)
(12.039 -0.0679911 -0.229055)
(13.0418 0.945319 1.77681)
(12.9452 1.23181 -4.48069)
(5.81551 11.5718 -1.75372)
(10.671 -0.0487721 0.124474)
(10.7635 0.507248 1.23529)
(1.30542 -4.24411 -6.2897)
(11.0212 -0.209326 0.085559)
(10.9231 0.689574 0.694276)
(11.0559 0.0236539 0.209303)
(10.1837 -0.119397 -0.777445)
(3.52032 3.88609 8.82461)
(0.85133 3.7629 -7.78133)
(10.0372 0.300255 0.090113)
(11.0245 0.708714 0.643335)
(5.47039 2.02102 -2.02341)
(7.46446 1.5104 1.46967)
(12.2206 0.318171 -5.44258)
(-1.8437 -4.64398 -4.51061)
(12.4459 0.519723 0.625697)
(12.026 1.34807 1.52513)
(11.3558 0.309248 0.761103)
(10.8508 -0.0975619 0.102479)
(10.7031 -0.113925 0.176782)
(10.6534 0.183998 -0.118612)
(10.388 -0.0019001 -0.396262)
(6.6541 3.55956 -0.597446)
(5.83113 3.30332 -0.163778)
(7.87334 1.9108 -0.370651)
(7.8836 1.71471 -0.271113)
(10.9263 -0.42653 -0.849598)
(11.0805 -0.273427 -0.313118)
(10.3826 0.824952 0.773162)
(11.9286 -0.103215 0.0833966)
(15.5127 0.130862 -3.01202)
(10.4095 -0.647646 -0.36315)
(8.39712 2.15866 -0.305435)
(10.7207 -0.185839 -0.103301)
(2.07355 3.05325 1.05945)
(10.8138 0.197791 0.466029)
(7.0054 1.98981 3.0442)
(11.0836 -0.434149 -0.677978)
(3.32082 3.1725 2.30102)
(8.84739 1.73428 -1.13392)
(10.5873 0.0190833 -0.0876619)
(11.5979 -2.74883 -1.7086)
(10.5291 -0.3287 -0.238949)
(10.482 1.1277 0.94725)
(4.00205 1.15343 3.67187)
(10.2323 0.568601 0.923318)
(6.71013 2.56558 -1.51831)
(6.91771 4.37504 -0.448739)
(11.0611 -0.0197859 -0.142914)
(10.4086 0.213325 0.339083)
(4.86193 2.9542 3.72293)
(11.111 -0.130155 -0.189559)
(11.1369 -0.1512 -0.244533)
(9.23928 1.46332 0.860518)
(8.83625 1.92674 1.47931)
(11.3303 5.04318 -0.134873)
(11.8915 0.457713 1.28081)
(8.9295 2.10483 -3.82718)
(7.60455 5.18222 1.49932)
(6.9037 1.42404 -1.67343)
(0.76218 2.15431 0.0817155)
(10.7588 0.689489 0.268814)
(10.9418 0.190518 0.0128104)
(10.9287 -0.0285221 0.655246)
(16.1212 1.75182 0.537909)
(10.2366 0.147732 0.117828)
(10.8943 -0.169136 0.078357)
(9.10564 6.21584 3.85363)
(11.1478 -0.115073 0.0667501)
(8.02089 -1.49349 -6.03116)
(1.20108 6.22051 6.02892)
(11.5127 -2.14992 -0.14558)
(8.91426 -5.67984 -4.59073)
(11.5603 0.0667711 0.374068)
(1.38463 1.89828 4.57883)
(10.8762 -0.178376 0.16574)
(10.1974 -0.192899 0.32038)
(14.806 -1.94871 -1.79687)
(13.5538 -3.12431 -3.47928)
(10.4487 -1.84608 -2.42836)
(10.6145 0.285726 0.345795)
(9.03253 1.66845 0.895782)
(3.2767 4.90167 4.3779)
(12.7138 0.0690064 0.186058)
(10.5014 -0.400665 -0.383532)
(10.0292 1.48773 0.240835)
(11.377 -1.86726 -2.10287)
(10.6505 1.42665 1.28435)
(9.5206 1.28804 0.88492)
(10.5445 -0.568916 -0.24116)
(13.3765 0.853053 0.972888)
(12.7099 -1.11676 -1.36919)
(11.359 -0.0187724 0.113265)
(10.7501 0.366227 2.53838)
(9.37754 1.15313 0.472529)
(10.6073 -0.0914698 -0.154317)
(11.0017 -0.292425 -0.24609)
(10.7716 -0.00578463 0.149041)
(10.7872 -0.0149326 0.090399)
(10.3189 -0.26443 -0.00996818)
(11.6733 0.110855 1.19487)
(7.67472 2.12254 2.66706)
(10.5887 1.76894 0.431584)
(6.09906 1.30238 -1.69518)
(4.79023 4.287 3.60103)
(5.7364 1.62773 -1.33939)
(10.0752 1.20734 -0.373749)
(8.28041 1.79669 0.440681)
(10.5676 -0.416962 -0.570581)
(6.04408 3.0602 -1.69119)
(1.00063 1.39385 2.76694)
(7.64091 2.0433 -2.45047)
(11.3775 1.75307 0.410564)
(7.98225 3.37145 -5.60866)
(1.95754 4.91582 -4.61424)
(4.33952 2.68073 -5.34581)
(14.0953 -0.802218 0.374207)
(13.8999 2.27193 0.89938)
(5.65942 1.858 -0.687935)
(7.00348 7.05392 0.488845)
(3.90688 6.61773 -2.71047)
(5.76455 2.37474 -0.678874)
(10.3205 0.456663 2.07336)
(8.0401 3.59124 3.40303)
(11.0184 -0.339574 -0.12593)
(4.97253 0.88326 2.07928)
(3.72183 8.31024 1.20677)
(13.5886 0.910148 1.9874)
(8.46697 1.02552 0.151243)
(10.9386 -1.8935 -0.991721)
(14.4222 0.295264 -0.295901)
(10.9447 -0.0884351 -0.18777)
(12.2446 0.0647496 0.891876)
(12.0243 0.612155 0.940238)
(11.2321 1.41155 7.03985)
(5.04334 1.26656 6.24173)
(1.60788 1.26576 11.0939)
(3.12464 1.63016 12.2494)
(11.5376 -0.791464 -1.93765)
(10.6559 -0.0916144 0.0374497)
(10.5994 0.159538 0.368173)
(12.6831 -1.33704 -0.448079)
(11.7953 0.583313 0.921238)
(8.83307 2.14807 -0.584824)
(8.608 3.66312 1.00928)
(10.847 -2.53216 -1.55983)
(10.5167 0.321453 0.290384)
(10.4727 0.614199 0.158662)
(10.8233 0.381195 0.14115)
(10.4656 0.835121 0.184263)
(10.932 -0.253428 0.085612)
(15.1489 7.55771 -0.116244)
(11.3318 -3.30863 -0.686611)
(10.3282 0.0207161 0.494467)
(15.7404 9.63029 -1.8254)
(-0.476159 -3.08758 1.44862)
(11.7166 1.44945 2.16976)
(8.65197 -4.62476 -3.63168)
(10.601 -0.926943 -0.468909)
(11.1244 -0.0020434 -0.0584454)
(12.5655 -0.436664 -0.493396)
(10.9042 -0.360163 -0.261911)
(10.6856 0.123779 0.157562)
(12.5659 0.306175 0.321544)
(7.54853 3.62237 0.15678)
(9.34351 1.55503 -0.267143)
(11.1708 0.877524 0.329792)
(6.65189 2.14234 0.330442)
(7.65965 1.39928 1.99921)
(11.183 4.91796 0.974832)
(9.21333 1.72871 -0.258113)
(7.61511 3.1311 -0.0307004)
(5.47935 5.10129 -1.28616)
(10.1566 0.988936 1.27358)
(8.89787 2.88644 -0.202301)
(3.00271 2.32334 -1.49759)
(9.43274 0.925678 0.391609)
(11.5042 -0.314426 -0.331224)
(11.2526 -0.0767397 -0.0237115)
(2.11237 3.37628 -3.7459)
(12.1506 2.3838 8.91326)
(-2.15674 -4.51066 1.86698)
(9.42116 1.97123 -1.19014)
(2.37923 1.42446 4.29196)
(7.71553 1.58925 -1.10004)
(2.22873 1.7824 -1.91977)
(10.6903 1.40897 2.23564)
(12.7337 0.674807 0.672688)
(13.6381 0.41778 -0.205341)
(10.9734 -0.0926904 -0.0687945)
(9.6949 0.451988 0.134982)
(5.78641 3.91811 2.71363)
(10.8232 0.578507 2.6651)
(11.0263 -0.370184 -0.50118)
(5.04427 3.7795 -0.66488)
(2.87334 2.99165 -0.218715)
(10.3769 0.226927 0.785905)
(11.0291 -1.48199 -0.959485)
(10.4331 -0.394059 -0.341605)
(10.4995 -0.0948642 0.216583)
(11.0313 -0.0513185 0.310853)
(2.09479 4.4659 5.60257)
(14.4605 1.34128 0.619647)
(11.8905 3.19851 2.10972)
(9.81791 -2.27183 -5.4884)
(10.6682 -0.682067 -0.725997)
(10.3809 -5.25052 -0.126219)
(11.0475 -0.0583128 -0.0218672)
(10.7769 -0.186534 0.0336024)
(10.6521 -0.303547 -0.202931)
(11.286 -0.348349 -0.192584)
(11.0609 -1.03243 -0.679002)
(10.457 0.173306 0.197976)
(10.983 -0.0967474 -0.148358)
(10.7276 -0.745632 -0.385252)
(10.492 -0.415026 -0.0797221)
(10.5247 -0.220736 0.444636)
(10.9631 -0.0677043 0.0337705)
(11.7231 -0.711568 0.0136349)
(6.68935 5.06648 1.34033)
(9.70748 1.07402 1.8226)
(13.3476 0.861151 1.02595)
(13.1762 6.25402 -0.651591)
(5.80432 1.26564 4.90701)
(9.58259 0.315042 -4.89774)
(0.898437 2.6749 2.41176)
(10.8833 -0.144225 0.00148759)
(14.6165 -1.93557 -0.532481)
(13.7409 -0.860411 1.10176)
(11.2706 0.0870892 0.382011)
(13.6303 -0.279104 -1.37309)
(11.58 -0.810969 -1.09809)
(14.86 2.17377 0.775589)
(12.8306 0.67923 1.21075)
(10.8658 -0.431805 -0.251576)
(13.9464 2.27909 1.35597)
(3.40071 3.598 12.2636)
(12.2916 0.292309 0.578768)
(10.431 -0.320713 0.459471)
(12.173 -0.0517119 0.226484)
(10.8015 -0.060607 0.137197)
(10.2808 1.50441 0.488504)
(7.83837 2.11259 2.2964)
(11.6921 3.10493 4.45136)
(11.0845 -0.0076755 0.133298)
(12.2213 0.669697 6.34054)
(11.0588 -0.0837 -0.0784851)
(13.3939 0.112713 -1.14075)
(10.567 -0.362271 -0.287717)
(2.32249 3.98364 -0.000308023)
(13.2892 -1.84608 -3.87911)
(9.86671 0.332675 1.64605)
(1.86626 1.78863 6.02723)
(10.6803 -1.96537 -3.05001)
(10.8464 -0.128566 -0.00267498)
(11.5998 3.67247 4.45376)
(10.5767 1.01257 0.187836)
(10.7929 -0.0136149 0.106851)
(9.60334 1.42601 -0.425238)
(9.47943 0.977857 -0.0442096)
(9.19679 1.19785 0.445432)
(9.68808 0.579479 1.01032)
(10.4868 0.521588 0.212992)
(10.3325 0.0848782 0.381118)
(12.1049 0.557406 1.00572)
(9.98547 0.379998 0.900724)
(11.6941 -1.31513 0.121927)
(13.2095 -0.00214288 -0.222395)
(10.7232 -0.102138 0.200866)
(4.06488 7.40714 7.10679)
(11.266 -0.328455 -0.0685646)
(6.82065 2.08935 3.3028)
(10.5792 0.188003 0.162294)
(10.4087 0.759833 1.01954)
(10.4156 0.698019 0.44148)
(10.2482 0.21149 0.104933)
(7.03411 3.15957 3.98932)
(10.9806 3.19033 -0.312472)
(15.351 0.923749 2.1354)
(10.5834 -0.0154639 -0.051135)
(7.84094 0.581829 2.37292)
(10.5098 0.178285 0.702457)
(8.93145 1.61498 -1.1999)
(9.68336 1.46759 -0.00200384)
(10.825 -0.000449061 0.0541372)
(11.1194 -0.0323531 0.0614444)
(11.8881 -0.247498 0.103769)
(11.5263 3.04252 0.992017)
(10.8744 0.463639 0.68844)
(11.3072 -0.240526 -0.176728)
(11.4583 -1.18499 -0.92554)
(14.5271 0.559036 0.669941)
(13.7793 -3.73354 0.0760182)
(1.56674 3.60249 -2.23989)
(10.9489 -0.461298 -0.435362)
(10.1543 1.64006 0.240942)
(13.0757 -0.894548 -2.02295)
(10.9201 0.2201 0.236464)
(8.9096 5.38897 0.725501)
(11.0038 0.227528 -0.015906)
(12.3374 0.0421879 0.27079)
(9.1334 1.0596 1.21769)
(12.3573 -1.69201 -0.615131)
(9.81155 1.15674 0.417125)
(11.6296 -0.652542 0.178412)
(11.2186 -0.339739 -0.596533)
(10.2799 -0.00326256 0.0497159)
(10.7629 0.783134 0.790386)
(11.4654 0.639418 0.780061)
(7.54778 2.89121 4.22855)
(12.4923 1.58267 3.21355)
(10.0427 -0.651411 0.363732)
(12.1939 1.11125 1.95846)
(10.9397 0.0649219 0.0188761)
(10.2306 0.0931248 1.03588)
(1.87228 2.44353 -6.45223)
(11.8337 3.16704 1.00526)
(0.835913 4.12544 -4.62103)
(11.4917 -0.226294 0.0530079)
(10.8179 -0.152254 0.177383)
(15.5924 -0.0367977 1.24073)
(12.6407 -1.69555 -0.879349)
(11.2839 -1.4935 -0.600831)
(11.8316 0.0318922 0.256374)
(9.43809 1.74445 -0.938224)
(0.719014 3.7118 0.248932)
(10.6973 1.56236 0.26557)
(10.1727 1.9509 0.277671)
(8.19571 1.97135 0.446842)
(8.43023 1.91699 -0.499305)
(11.1016 0.144878 0.0254902)
(13.1691 0.254708 -0.752701)
(7.66941 3.99757 0.855529)
(9.12783 1.99771 0.0403751)
(6.90058 5.26896 -0.677208)
(16.7948 2.27408 2.93027)
(10.8756 -0.106667 -0.0844166)
(6.99974 3.68551 0.273175)
(11.9042 -0.526346 -0.545077)
(11.5547 0.0526259 0.189304)
(12.2332 1.55124 0.288161)
(11.2124 0.505835 0.254316)
(2.44214 -6.64714 -5.23711)
(-2.3871 0.436736 0.72596)
(7.64162 5.54234 2.67249)
(10.7454 0.277257 0.319447)
(10.0212 1.80279 0.450377)
(9.39003 1.49959 0.951067)
(13.551 0.373768 0.34264)
(14.0753 3.63503 7.87946)
(7.58428 0.96712 -3.66805)
(12.7465 -0.243772 0.408894)
(11.9439 -1.22333 -0.901523)
(12.0307 -2.61254 -4.27514)
(11.7504 -1.55087 0.0666866)
(10.766 -0.690816 -0.386301)
(10.9735 0.136999 0.0278854)
(-0.689957 -2.00112 3.54125)
(10.7248 -0.165949 -0.0855995)
(10.5974 0.151919 0.0920742)
(8.75903 -2.15867 -7.70099)
(8.76186 -1.31577 -6.39184)
(10.8785 0.268068 0.526116)
(13.8799 0.729267 0.348577)
(9.84694 -2.32544 -6.4044)
(10.3353 -1.39229 -1.00956)
(-0.690465 -4.39722 2.73544)
(10.6113 -0.169373 -0.38246)
(2.44386 5.53297 6.46345)
(3.51853 4.55063 5.94452)
(15.1722 -0.47269 -3.40412)
(9.33325 1.04575 0.925436)
(10.8809 0.261819 2.03851)
(12.7212 -0.401193 -4.20016)
(10.9407 -2.98365 -2.34306)
(15.1516 5.72236 1.7523)
(10.2373 0.431242 -0.356658)
(10.3449 -0.204018 0.716423)
(11.1152 0.0296883 0.389191)
(14.6921 0.151142 -2.05124)
(10.8732 -0.247887 -0.127948)
(10.5202 -0.141162 -0.213688)
(10.8625 -0.00824907 0.377217)
(13.2099 -0.555651 -3.78692)
(10.4783 0.528608 -0.443377)
(10.9908 0.198391 0.335777)
(10.5565 0.424791 0.211242)
(11.4229 -0.826581 -1.17871)
(12.6779 0.102734 -0.0335029)
(14.7322 2.03912 -2.30281)
(15.4296 0.921213 -3.38229)
(10.9702 -0.266118 0.131197)
(14.622 1.60361 -3.55568)
(10.6365 -1.45389 -0.96321)
(10.5775 -2.69638 -0.805884)
(10.62 -0.146253 -0.149584)
(10.63 -0.112647 -0.13295)
(10.6658 -0.0997131 0.0645806)
(10.7254 -0.0461788 0.160587)
(10.7581 -0.0193462 0.0499617)
(11.7887 -0.760232 -1.15314)
(10.8781 -1.60811 -1.62113)
(12.2502 -0.704025 -1.52832)
(10.9715 -1.1372 -1.48885)
(10.3451 -1.19667 -1.55769)
(11.654 -1.29567 -1.50621)
(11.2845 -0.141911 -0.479993)
(10.8903 -0.395965 -0.392579)
(11.0996 -5.69546e-06 -0.377531)
(11.2187 -0.437209 -0.631469)
(12.4437 -0.43946 -1.19356)
(11.4374 0.598638 0.643034)
(13.2885 0.626571 0.74365)
(13.3162 0.667385 0.644687)
(2.84305 2.77042 -1.30041)
(11.4887 -0.233615 0.0290987)
(11.4111 -0.371204 -0.0457342)
(11.987 -0.174554 -0.0461726)
(11.9511 -0.388412 -0.287622)
(11.0527 -0.158449 -0.170677)
(11.1699 -0.465134 -0.312081)
(11.3509 -0.185859 -0.0930651)
(11.7766 -0.0133553 0.12413)
(11.1827 -0.292216 -0.26444)
(11.8392 -0.133933 -0.0548042)
(11.771 -0.31423 -0.959508)
(12.7294 0.24979 0.486691)
(11.7478 -0.269496 -0.442129)
(12.4068 -0.9012 0.0178982)
(11.9505 0.0563545 0.288255)
(12.0578 -0.0410597 -0.0140585)
(14.0301 1.01332 1.92274)
(14.3887 0.83745 1.21935)
(9.81094 2.29132 2.65671)
(11.7466 1.21325 0.324223)
(11.4788 1.09025 0.346817)
(11.8194 1.30318 0.657121)
(11.4743 1.34764 0.419247)
(11.1412 -0.00391286 0.119259)
(11.2057 -0.104973 0.0327494)
(11.3532 0.00328813 0.132091)
(9.87638 1.16279 1.77648)
(9.38775 1.56964 1.75219)
(14.9036 -0.519561 -1.26688)
(14.7329 -1.00113 -1.4651)
(14.7776 1.86943 1.34538)
(14.7906 0.0528531 0.567797)
(14.6463 -0.288086 0.486308)
(7.93165 2.53901 5.75612)
(8.93721 2.1212 3.79232)
(9.68426 1.17491 7.78879)
(11.1197 1.33601 3.31949)
(9.24752 1.64375 2.2899)
(10.0025 -0.250859 -0.814834)
(10.4081 1.42856 2.23962)
(9.50902 2.99006 6.34828)
(15.0826 1.60056 1.90603)
(12.7516 1.75478 1.88998)
(9.79153 3.6084 5.83323)
(11.0006 3.47197 5.6556)
(10.9574 -0.0455044 -0.0319099)
(11.0859 -0.0814591 -0.0581279)
(10.1613 0.645676 0.52117)
(9.60233 0.74358 0.761815)
(10.4877 0.278499 0.814671)
(9.60733 0.840051 0.906419)
(10.6774 -0.0974349 0.217434)
(10.3555 0.263924 0.164466)
(10.8591 -0.121194 -0.263528)
(10.407 0.461699 0.156071)
(10.9401 0.113916 0.418612)
(10.8626 0.236671 0.282806)
(10.6587 0.0720462 0.373456)
(10.8457 0.0687136 0.445285)
(10.6049 0.0493277 0.394832)
(10.6763 -0.0723073 0.154104)
(10.4935 -0.0912493 0.231436)
(10.516 -0.0455877 0.158997)
(10.449 0.696895 -0.00348666)
(10.5469 1.33911 0.501842)
(10.7273 1.20833 0.577034)
(10.6498 1.57766 0.899158)
(10.2005 1.08534 1.07519)
(9.20587 1.56238 1.99834)
(9.76426 1.11081 1.43375)
(10.101 0.915785 1.04437)
(10.1023 1.04091 1.12282)
(10.5173 2.14062 1.69457)
(11.3356 1.85247 1.70157)
(9.68505 1.84151 0.101258)
(10.3351 2.1584 0.111143)
(10.6803 2.37179 0.356926)
(11.8546 1.7863 0.117255)
(10.0709 2.0901 0.00308739)
(11.3136 0.542091 0.39391)
(11.3812 0.392957 0.315951)
(5.03879 2.96197 3.06794)
(6.12224 1.50006 0.599162)
(3.47334 1.72775 1.5601)
(5.24095 1.49953 1.72149)
(4.95697 2.24426 1.269)
(4.54158 3.06915 1.04824)
(12.2623 3.7095 0.711396)
(13.1957 -2.57082 0.725776)
(7.09569 9.04037 2.77853)
(14.2291 3.18872 2.42138)
(13.8957 3.48006 2.59927)
(12.2296 3.06771 1.3087)
(10.9242 -0.0341264 0.128537)
(14.2848 -0.401722 0.0702847)
(13.4859 0.0252204 0.3375)
(12.954 2.14989 1.0917)
(13.0868 1.66325 0.956353)
(10.562 0.176575 -0.0654461)
(10.4602 -0.0629918 -0.024087)
(10.7567 -0.0152754 0.164702)
(10.7593 0.279725 0.393307)
(11.0375 0.367471 0.597726)
(10.852 0.284527 0.446193)
(10.8648 0.166896 0.658332)
(11.073 0.395762 0.664581)
(10.6792 0.344509 0.561646)
(10.955 0.454931 0.696848)
(12.3879 2.49269 3.24014)
(13.5662 1.37489 1.06651)
(13.0748 1.73401 2.10133)
(13.915 0.909576 0.988794)
(12.4565 1.84909 2.3268)
(13.9472 1.08592 0.98836)
(12.7665 3.63227 0.892037)
(11.5207 1.54251 0.101047)
(14.4283 0.0752054 0.410176)
(11.2309 1.17427 0.0812375)
(10.2577 1.42236 -0.034755)
(14.1205 1.13339 0.4112)
(5.81696 6.12197 3.69189)
(6.03994 3.59705 -3.03179)
(15.3512 0.0600489 0.380672)
(11.472 -0.384825 -0.484245)
(11.9551 -0.217504 -0.495503)
(10.9845 0.259199 0.349493)
(11.8854 1.14016 1.24816)
(10.9078 -2.53668 -0.574463)
(8.22454 -2.71802 -7.15116)
(9.13508 12.4304 3.343)
(14.0159 0.735502 2.38608)
(14.4681 1.27016 -4.2535)
(11.8008 -0.450052 -0.944168)
(12.4164 0.976644 1.58915)
(12.3237 6.35943 3.22149)
(3.385 5.94398 1.66445)
(5.1681 -3.39212 0.222983)
(10.9004 0.846285 0.295812)
(14.2146 -0.352414 -0.707127)
(13.3461 1.36029 1.95798)
(7.20477 3.06198 -4.07494)
(6.51519 2.05025 3.08637)
(3.93087 4.11283 -3.82394)
(10.6652 0.137199 0.31394)
(12.0846 2.80609 0.968964)
(1.4647 6.24987 -0.118945)
(11.0046 -0.0628612 -0.0846531)
(11.5943 -2.8049 -0.198585)
(10.4751 -3.45464 -1.54395)
(11.0665 0.214212 0.23929)
(0.485242 2.10422 3.60793)
(13.3501 0.922058 3.46574)
(10.4139 0.53142 0.198147)
(10.7961 2.92169 -0.164051)
(4.86008 1.97313 -1.73827)
(6.61777 1.37474 -1.24202)
(4.48529 2.21887 -2.11755)
(4.16489 2.20784 -3.17975)
(10.2578 1.27798 -0.0234123)
(10.0485 1.71296 -0.211837)
(10.0617 1.15082 0.0546852)
(12.895 -0.470676 0.22476)
(10.3278 -1.66233 -6.10495)
(9.82347 -3.02218 -3.67144)
(13.7227 1.8568 -1.51598)
(9.9672 0.4388 1.72668)
(10.0418 0.411349 1.44591)
(10.6769 0.475583 0.209742)
(10.692 -0.380955 -0.142056)
(10.5624 0.296496 -0.0485557)
(10.678 0.280971 -0.27342)
(10.6612 0.048221 0.275258)
(5.97499 1.23782 4.02618)
(10.6163 0.57806 1.22558)
(11.022 1.45244 1.75733)
(10.7418 -0.148282 -0.287568)
(10.5014 -0.352276 -0.434187)
(10.1019 -0.409051 0.590045)
(10.9083 0.281479 0.418803)
(11.7333 0.0897828 -0.0300547)
(9.60349 1.24138 0.266031)
(10.43 0.0925534 0.0935182)
(12.5707 -0.216745 -0.788948)
(2.13701 1.42463 -0.261655)
(15.0837 1.68305 0.361245)
(13.25 2.53534 1.05848)
(10.8258 0.253263 0.379766)
(11.1167 -0.0880896 -0.064041)
(10.8174 0.477587 0.660865)
(6.85935 3.70337 -0.53064)
(3.31654 7.92231 -2.62129)
(3.5608 3.47994 -3.61489)
(3.25008 -6.14015 -6.67466)
(13.3424 0.873178 0.913293)
(10.4991 1.30012 0.84077)
(11.0383 -0.0837244 -0.0621211)
(5.51871 4.56174 -1.43834)
(8.85124 -2.76658 -4.40689)
(0.12269 1.59228 0.0622234)
(11.7542 -0.0302087 0.296765)
(12.4787 -1.02168 -0.292244)
(12.4058 4.75761 3.15619)
(5.46077 2.3562 2.49263)
(10.2365 0.440103 0.610871)
(10.4289 4.57204 -0.178587)
(9.88941 1.44262 0.715134)
(11.2114 0.170345 0.15969)
(9.03259 1.24851 0.69941)
(7.6721 2.79349 -0.0774082)
(8.09538 2.93746 -0.357241)
(12.1923 -0.420114 0.127516)
(10.0692 0.568525 -0.261366)
(14.8575 -1.7136 0.609822)
(9.7846 1.50783 -0.176708)
(9.92873 1.09512 0.113926)
(5.39621 1.06534 1.21925)
(5.27093 1.26689 -7.65194)
(12.9161 0.343462 -0.0392027)
(7.07185 1.61214 -2.77409)
(11.5436 1.50618 4.013)
(10.371 -0.595581 -0.0766221)
(8.81454 0.777561 4.32971)
(10.7531 -0.42188 0.275341)
(10.8502 -0.0477326 -0.23579)
(10.0776 0.884363 -0.216056)
(11.3511 1.26448 -6.41241)
(11.2044 -0.79567 -0.713578)
(10.3786 -2.49821 -1.79736)
(12.9606 -2.79061 -2.58637)
(5.91987 -5.32223 -5.09253)
(11.9663 -0.10825 0.0423002)
(10.7268 0.0579098 -0.899943)
(7.16026 -7.52364 -3.05889)
(13.7272 -0.86152 0.235826)
(15.4344 -1.22842 0.0955441)
(14.6196 9.6206 1.99599)
(14.5408 2.3026 2.23735)
(14.4779 -1.76458 0.241208)
(11.0325 0.480892 0.200756)
(15.0266 2.64752 4.90032)
(10.0652 0.684833 0.73223)
(10.4451 -0.125677 -0.0713903)
(13.9383 1.01174 2.62338)
(9.76687 1.85178 2.19998)
(10.2381 3.32679 -0.439518)
(10.2387 0.590846 0.0781166)
(10.7699 -0.16997 -0.141781)
(11.6525 -0.255705 -0.576679)
(10.1944 0.0306347 -0.0316951)
(11.121 -0.135781 -0.11225)
(10.6654 -0.228929 -0.0596558)
(10.9853 1.50557 4.03784)
(15.9888 2.32329 0.822644)
(1.61158 4.85655 1.78156)
(15.0777 2.54298 0.367722)
(12.1656 2.1993 0.883806)
(10.4136 -0.23544 -0.123669)
(10.5996 -1.92085 -3.69558)
(11.1133 -0.0441573 -0.0805058)
(14.4886 -2.81987 -0.450268)
(10.7796 0.169422 0.0598627)
(11.1445 0.324678 0.393292)
(11.1982 -0.516823 -0.484305)
(10.623 0.163155 0.444692)
(13.9413 0.671256 0.162108)
(12.6348 1.3179 3.9629)
(8.96719 1.47978 4.41412)
(10.8024 -0.427484 -1.56196)
(10.5789 0.404821 0.879995)
(13.3875 -4.35676 -0.42888)
(12.8013 1.52811 1.02505)
(12.931 1.24548 0.651921)
(13.7059 1.48278 0.712988)
(13.5189 1.23451 1.05408)
(6.92414 0.993841 0.30461)
(4.37277 -7.43188 -4.76367)
(11.7823 -1.33916 -0.224702)
(9.04084 -5.91233 -3.09594)
(6.62362 -6.27865 -4.85222)
(10.5165 -2.86882 -4.38712)
(9.79613 -3.34408 -3.18894)
(9.28212 -3.33146 -4.95809)
(15.0772 -0.223028 -2.82756)
(14.8047 0.159436 -1.47728)
(4.23899 1.90522 -7.12155)
(11.6351 -0.701565 -5.65767)
(8.19034 -3.52352 -6.25848)
(15.5766 1.06336 0.965968)
(8.30685 2.30509 -0.331191)
(14.5428 0.338094 0.377547)
(6.35763 2.10544 4.86846)
(2.57176 3.29178 -4.64938)
(1.43709 3.37963 -1.70391)
(8.38629 1.30356 -1.2233)
(6.35268 5.71158 0.9435)
(5.64544 2.41137 -1.23411)
(5.79863 5.20677 1.09636)
(8.0052 4.84533 0.837874)
(2.48851 1.44964 0.675739)
(9.39491 2.9651 -0.168565)
(9.1897 3.72186 -0.467877)
(8.34713 2.18212 -3.75385)
(8.90174 1.66552 -2.41182)
(11.3961 1.51079 -6.32879)
(9.00664 2.40161 -2.47996)
(7.96746 3.56179 -2.42054)
(8.70236 2.24943 -1.37692)
(8.03221 2.95772 -1.34078)
(7.92207 1.44814 -1.72773)
(7.69258 0.733872 2.17626)
(10.1648 -0.505828 -0.355444)
(8.56161 0.338133 1.2864)
(6.77707 1.11165 0.951001)
(3.45089 2.39728 -11.9509)
(3.12688 4.12924 -1.4592)
(4.63425 -1.97852 -6.41964)
(14.2024 0.0314796 -2.43831)
(8.41288 0.205597 -0.998523)
(10.4917 -0.690405 -0.731424)
(10.4522 -0.551474 -0.729589)
(10.7789 -0.578157 -1.3751)
(11.8 -1.29525 -6.15311)
(10.6967 -0.176525 -0.147047)
(10.4828 0.22246 -0.219673)
(10.8476 -0.153338 0.117325)
(10.7261 0.0912721 0.379755)
(11.4299 -0.0246513 0.148373)
(10.4778 0.623125 0.612598)
(10.0926 0.046357 0.241387)
(10.4625 0.387053 0.595266)
(10.761 0.209458 0.752525)
(10.033 0.778035 0.91819)
(10.6434 0.0402636 0.242753)
(10.4617 0.406949 0.490764)
(10.3863 0.252235 0.324343)
(10.2079 -0.0314339 0.196916)
(10.4703 -0.0116915 0.233419)
(10.7124 0.368598 0.259126)
(10.4834 0.578421 0.221869)
(10.7172 2.20046 0.345782)
(9.94787 0.764 0.260983)
(9.8024 0.789922 0.166998)
(8.95321 0.420289 1.36766)
(10.0923 0.921755 0.188402)
(10.2923 0.902775 0.310473)
(10.8934 0.068411 -0.0580414)
(11.5662 -1.88636 -0.339096)
(5.49807 -7.5089 -3.26983)
(10.0158 -2.87129 -3.65563)
(4.30021 2.40284 2.21285)
(3.9672 2.80204 1.36967)
(3.81566 2.64623 2.79078)
(4.94049 1.87154 0.0212202)
(4.84074 1.59995 -0.826277)
(4.25817 1.33652 -0.296141)
(3.10966 1.86249 -1.27137)
(3.24691 1.42797 -0.370439)
(8.1014 1.10877 1.32061)
(9.23762 1.37893 0.715411)
(8.95242 0.482931 1.67945)
(8.97027 0.882233 1.19762)
(9.31857 0.560048 0.941295)
(9.07043 0.705504 1.0334)
(10.0842 0.346815 1.99638)
(10.3419 0.534292 1.15955)
(9.70641 1.14802 -0.52801)
(8.99115 1.26933 -0.232422)
(4.29047 4.41478 -0.47132)
(3.86042 3.85292 0.222116)
(5.36533 3.15939 -0.594433)
(4.29375 3.4902 0.0854471)
(3.8385 2.58791 -0.132606)
(6.15694 1.65974 -0.637874)
(10.534 0.622068 0.222705)
(10.4208 1.06359 0.330926)
(11.1682 0.333168 1.29039)
(11.1741 0.579776 1.60901)
(11.5821 0.494774 2.08433)
(11.6318 0.111146 0.713039)
(11.2414 -0.0562848 -0.0985634)
(6.03978 1.10633 0.680303)
(5.25476 0.704369 2.07601)
(10.3167 1.22494 1.28541)
(10.7592 0.861552 1.31597)
(10.5467 0.917905 1.48243)
(10.2454 1.29818 1.60123)
(9.43138 1.4973 1.60443)
(10.1403 0.99038 1.07177)
(11.1952 2.14336 2.66101)
(13.5919 0.349895 0.585266)
(13.8653 0.390703 0.789925)
(12.9443 1.9534 1.35093)
(9.90974 0.599966 0.709918)
(11.3831 -1.04273 0.0594135)
(10.1042 -0.422786 -0.389413)
(10.4103 -0.469107 -0.000875793)
(11.3021 -2.53822 0.279739)
(11.4473 2.96871 -0.0795096)
(13.252 -2.64447 0.030373)
(11.0669 -0.263227 -0.387653)
(12.3187 -0.283521 -0.492706)
(15.9786 2.08745 -0.686741)
(11.1425 0.547221 0.447546)
(2.07427 2.93926 -1.21131)
(5.90581 -5.67496 -6.48237)
(8.74134 -2.04303 -5.20719)
(10.6781 -0.303702 -0.293055)
(6.13426 -5.95108 -4.07501)
(10.4397 -2.03156 -1.05807)
(11.7122 -3.07685 -0.563705)
(11.4984 -0.409696 0.0414076)
(10.8087 -1.08691 -0.803827)
(12.0328 -0.0899653 0.065669)
(12.5253 -1.73068 0.441887)
(10.7978 0.0218101 0.327284)
(10.9715 -0.237142 -0.266982)
(7.87688 2.81215 -1.76889)
(6.45908 1.89203 -2.05488)
(7.76304 1.20467 0.459928)
(9.04814 1.5334 -0.264035)
(13.3552 -0.341493 0.351694)
(11.0765 -0.492525 -0.143547)
(10.9667 1.54333 0.255273)
(12.0649 -1.43215 -2.04345)
(5.63629 1.08043 -0.074096)
(9.02419 2.07799 -2.97908)
(9.90564 2.04545 -0.433045)
(7.20064 -1.19513 -4.68335)
(9.72264 -0.371245 -3.71323)
(11.9621 -0.379184 -1.11544)
(11.4359 -0.663444 -1.69167)
(11.8852 -0.695052 -1.83548)
(13.0841 -0.183583 -1.72698)
(12.2785 0.262811 5.16794)
(13.183 1.23048 3.09515)
(10.0744 -0.282741 -0.521982)
(15.914 2.13861 7.15537)
(15.9297 1.86772 6.24538)
(8.44514 0.853875 0.911256)
(13.9039 0.883114 1.23185)
(13.8946 0.942856 1.91857)
(14.4787 0.75437 0.775228)
(15.4509 0.515513 1.5185)
(15.8477 0.73491 0.388685)
(16.0791 0.965959 -0.540002)
(13.6588 -4.15752 0.0160572)
(4.44026 -7.37753 -5.29745)
(11.1702 -0.331139 -0.404509)
(10.9455 -0.157673 -0.185966)
(11.135 -1.59125 -0.621356)
(11.0081 0.0809767 0.06534)
(1.69494 5.2661 5.07963)
(16.6675 1.89481 2.26149)
(14.5461 0.779374 -4.12434)
(11.0695 -0.386541 -0.160898)
(10.9806 -1.01009 -2.30149)
(10.2698 1.17425 0.780861)
(11.1784 -0.246777 -0.323258)
(9.90782 2.62973 0.36504)
(10.1785 0.219772 -0.0330051)
(12.8259 -4.62295 -0.771857)
(10.8425 -0.144012 -0.498576)
(10.9397 -0.0136707 0.0456439)
(11.0142 -0.718734 -1.13237)
(9.79437 -2.75392 -3.23518)
(10.5172 0.425199 0.306926)
(13.2766 -1.50162 -0.238644)
(11.0858 -0.196567 -0.245116)
(9.11209 1.57473 3.51662)
(11.6346 -0.618151 0.0817957)
(10.8341 0.501166 0.8094)
(12.7191 0.951432 2.79759)
(11.1184 -0.0603568 0.0131623)
(11.0452 -0.83096 -0.597411)
(11.2315 -0.0582274 0.19046)
(15.2642 2.67592 2.57152)
(10.6877 0.0438574 -0.0295899)
(10.6795 0.417438 0.183012)
(10.8197 -0.385308 0.0807428)
(10.649 0.143125 -0.142035)
(10.5894 -0.0438394 -0.0873891)
(15.7468 0.609287 -1.65619)
(10.7564 0.291918 0.50408)
(-0.394851 -2.48612 -2.37071)
(13.3268 0.0443872 -3.28834)
(11.444 -1.78994 -0.966791)
(8.16463 5.86042 3.80533)
(7.31777 6.95383 2.48252)
(10.9662 0.423432 0.0818422)
(11.4585 3.15099 2.19286)
(16.3497 1.31571 -0.268095)
(1.85346 1.86038 5.19606)
(11.007 -0.15579 0.478165)
(8.83891 2.46849 1.90055)
(13.2972 0.56164 0.911694)
(10.7957 2.68011 2.0547)
(9.52346 -5.84528 -2.41494)
(14.4408 -0.199127 -1.90064)
(13.1413 0.243561 0.163909)
(12.7708 -0.600309 -0.141113)
(12.3387 -1.29383 -1.85408)
(12.2539 -1.50403 0.043146)
(9.98291 2.78387 0.896616)
(10.9763 -0.0211663 0.0137564)
(14.5611 -0.608488 -1.65695)
(11.1737 1.60649 2.75218)
(11.0311 0.112262 0.132922)
(15.3228 0.996211 -1.71071)
(12.0647 -0.0477189 0.00765107)
(12.2741 0.539092 0.95287)
(8.71412 1.23478 0.460145)
(8.17767 2.09349 2.20741)
(11.3828 0.209842 0.504771)
(10.7889 0.0888671 0.202772)
(9.94196 0.896443 0.801079)
(11.5975 0.352708 0.343934)
(12.432 -0.105885 -0.546003)
(5.22159 -2.26575 1.73272)
(8.37863 -5.60906 -3.45723)
(9.63049 0.646499 0.503212)
(8.66703 2.17858 0.446061)
(10.9826 -0.18511 0.499337)
(12.6721 0.0309818 -0.106137)
(8.38645 2.78049 3.09854)
(2.46806 -3.68853 -5.62915)
(15.0622 1.12781 0.640809)
(10.5271 0.76342 0.377611)
(16.5111 1.69633 -0.706424)
(12.5296 -0.695504 0.212547)
(12.3086 -0.111459 0.168831)
(9.2961 1.21191 0.568303)
(10.2295 0.786045 0.734847)
(10.9007 -0.0152548 0.332662)
(10.3553 0.522334 0.214337)
(10.5627 0.0619395 0.289293)
(10.5883 0.138195 0.289992)
(12.6595 1.85876 1.54148)
(10.5612 0.621948 0.436105)
(10.4574 0.652016 0.381085)
(9.56798 1.03995 0.305794)
(10.1957 0.387171 -0.0864794)
(8.85121 1.31464 1.69374)
(8.94059 2.19871 1.79097)
(6.88996 2.51478 0.212985)
(9.66355 1.36613 0.444826)
(9.73223 1.21266 0.316874)
(10.0685 0.852167 0.978045)
(10.3206 0.523573 0.630028)
(12.1111 0.102643 0.0368943)
(8.56146 2.41002 1.94463)
(10.8266 0.198478 0.788942)
(10.6265 0.405548 0.944889)
(6.29401 2.69616 1.93882)
(7.68543 2.93381 0.67589)
(11.0657 -0.621919 -0.917285)
(10.3309 -0.64758 -0.101346)
(10.3889 0.386345 0.425431)
(10.5759 0.223908 0.0687926)
(10.9286 0.0189112 0.0824244)
(10.8889 -0.43639 -0.239523)
(12.3019 -0.0322003 -0.382058)
(11.7907 0.736085 0.474798)
(10.8595 1.23929 1.11666)
(13.1445 3.74863 2.60524)
(1.94286 7.00155 3.34891)
(10.7218 0.381326 0.497795)
(10.6872 -0.11347 0.613034)
(10.7284 -0.150117 0.24918)
(11.0468 1.27886 1.26385)
(11.0711 0.436388 0.547787)
(11.1769 0.0996809 0.461472)
(10.9625 0.04288 0.2707)
(10.8032 0.956826 0.341796)
(10.3919 -0.131637 0.105865)
(11.7112 0.390284 0.342899)
(11.1523 4.18154 4.57183)
(4.02735 4.14357 3.7222)
(1.2254 4.53064 0.379897)
(3.85806 1.56771 2.40465)
(8.71242 1.52738 1.08529)
(10.9917 -0.110855 0.0400725)
(10.7391 -0.00349792 0.176711)
(11.289 -0.581606 -0.172501)
(9.65491 1.70377 -0.767091)
(11.6354 0.86591 0.505365)
(11.79 -1.74407 0.26015)
(11.6784 -0.650697 -0.00305625)
(10.9915 0.591138 0.333199)
(14.2081 3.59793 2.10414)
(10.9447 0.479633 0.569727)
(15.8199 6.03474 0.279156)
(9.18631 2.79603 0.155155)