/*--------------------------------*- C++ -*----------------------------------*\
| =========                 |                                                 |
| \\      /  F ield         | OpenFOAM: The Open Source CFD Toolbox           |
|  \\    /   O peration     | Version:  2506                                  |
|   \\  /    A nd           | Website:  www.openfoam.com                      |
|    \\/     M anipulation  |                                                 |
\*---------------------------------------------------------------------------*/
FoamFile
{
    version     2.0;
    format      ascii;
    arch        "LSB;label=32;scalar=64";
    class       volScalarField;
    location    "0.0502279";
    object      omega;
}
// * * * * * * * * * * * * * * * * * * * * * * * * * * * * * * * * * * * * * //

dimensions      [0 0 -1 0 0 0 0];

internalField   nonuniform List<scalar> 
47425
(
57.9241
67.5234
72.3659
163.525
139.731
72.2434
94.1032
102.988
49.3942
604.818
139.422
45.4938
70.7299
80.0783
96.1417
89.9267
69.2237
48.5749
1262.75
184.601
86.0249
46.1335
106.67
64.0977
47.2782
44.8968
78.774
684.937
70.9883
56.1166
44.9333
46.4139
47.7489
67.4291
54.6586
67.7896
45.478
67.5596
65.4776
75.2016
72.766
92.5323
160.772
144.995
1505.77
106.383
97.0009
77.6097
79.0751
48.2246
581.068
229.695
50.2984
784.631
114.424
123.919
44.8654
57.9602
82.9851
61.9793
1076.22
1145.33
892.8
45.4456
49.3525
45.9565
61.6763
84.8016
755.166
45.4709
78.6303
51.8744
48.6741
91.3315
687.134
49.4038
878.201
81.9389
1367.07
261.323
710.129
65.1406
44.2133
46.9773
46.8645
83.0651
53.8187
50.721
115.376
412.197
45.5215
77.5915
44.5806
115.101
147.997
195.831
49.2143
52.4439
88.3384
79.5256
60.5476
91.843
52.6212
97.7151
49.9873
53.8623
47.8172
93.8363
50.6805
47.0764
366.977
63.0254
70.0958
155.898
46.9842
907.541
46.41
229.962
79.5664
61.954
79.6439
48.5456
58.3597
62.6471
97.9806
58.2613
85.7182
49.1902
106.233
44.0474
45.7242
97.592
128.94
121.859
83.895
67.7757
48.4108
60.9479
69.3133
98.4344
70.985
134.256
71.9645
86.1619
52.9188
49.3289
110.135
62.8662
152.423
72.3851
85.3274
494.547
48.7576
701.989
47.2396
85.2858
59.2485
908.154
93.6891
73.4011
46.6775
44.5916
50.3919
47.2802
402.813
835.238
45.8291
694.883
106.861
713.263
704.599
86.917
73.8664
46.171
73.213
66.5597
722.132
70.7861
52.8352
45.1395
1009.38
47.5054
60.5929
46.7375
47.4236
48.7442
56.7649
78.5069
149.873
55.1017
47.927
71.8768
81.8498
77.0227
47.712
44.4798
61.8704
73.5771
45.4834
82.7751
66.3307
123.104
48.554
45.275
50.1768
159.218
53.6931
44.7589
87.4693
48.4426
63.5004
66.5883
47.2535
94.5579
63.1005
63.5737
74.6106
248.703
47.9855
93.6761
283.975
119.39
113.94
96.7273
167.452
238.664
47.6356
131.226
50.3285
59.9646
71.3224
73.308
105.428
49.3227
166.124
94.1539
321.022
114.613
266.028
181.901
84.0939
59.0911
43.9017
103.853
45.0218
49.4588
68.808
60.6244
44.2248
78.0171
43.795
216.826
67.4251
49.2834
91.9187
44.0373
47.3436
121.246
95.7397
48.3514
125.85
47.2686
78.5775
135.828
70.4558
90.8347
45.308
70.651
62.8089
82.6404
80.0291
233.277
312.062
48.3492
218.921
180.183
219.585
114.471
296.394
181.615
1129.42
56.5609
1063.89
124.848
80.4419
86.7346
105.629
91.7804
91.4011
48.2307
620.925
45.6669
50.3438
57.1918
68.0324
99.9181
112.885
46.7907
66.4278
56.7582
89.3928
44.7285
87.5859
60.6144
804.085
1046.08
678.595
43.9883
48.8433
44.3974
102.555
693.223
87.4144
118.054
242.432
75.0243
105.218
122.961
93.4215
409.75
213.941
46.1858
61.3533
47.3112
82.9328
44.6493
78.9839
62.0302
52.3087
72.3699
83.2914
656.042
55.0814
75.8091
129.136
44.2252
678.348
51.9566
46.2424
52.609
46.7248
47.0164
44.8502
53.3872
49.8046
51.3363
59.5761
48.0116
83.4119
85.27
48.0443
46.0142
63.3622
48.7282
49.3634
48.4836
81.2608
43.8838
50.1346
93.4206
56.1483
60.1605
79.7809
94.7968
48.1339
49.4854
132.347
48.2203
67.9952
45.3894
131.551
1010.79
78.2727
45.1814
200.233
45.081
87.8913
94.2254
72.5508
45.7989
63.5082
45.5783
44.02
73.773
87.2778
82.855
84.6101
52.8876
48.7682
84.0305
48.9107
47.4824
81.702
56.7586
66.0288
49.0143
62.7373
90.3358
65.044
48.8784
489.094
46.3455
401.769
71.4285
106.569
104.268
47.8639
147.011
47.073
95.4337
47.2127
574.765
360.288
43.8376
50.3562
81.1534
86.8299
82.1806
75.5554
81.4662
89.9959
68.0848
45.1458
102.749
71.3655
49.3483
83.8633
78.6247
53.331
143.608
1393.17
47.8423
281.832
1154.66
90.4465
1187.04
854.395
48.5747
81.0544
76.4791
79.5298
738.057
89.0816
49.9547
50.2456
75.4005
75.9722
81.5884
80.933
470.945
809.134
150.602
65.5456
72.3293
133.521
57.306
44.8944
67.3897
44.38
83.9854
75.8106
132.705
69.2697
49.3502
79.7538
59.8375
79.236
44.8631
65.1623
67.7884
66.669
63.5387
109.483
122.705
62.5294
84.8243
44.5652
507.292
130.558
74.1767
46.4145
137.876
249.229
48.3176
44.116
48.4599
47.3571
67.7557
50.0486
107.785
84.1939
48.7498
54.1625
145.44
99.0557
47.0037
51.6073
58.0466
55.2064
48.2746
51.9317
44.9647
69.6093
58.4215
112.689
61.8069
47.6576
44.302
44.7912
75.2086
128.979
45.8957
43.878
56.2028
56.1452
56.8667
60.017
70.7072
72.9287
52.0224
76.9232
100.902
432.43
61.9359
69.3916
53.8938
49.3451
127.909
127.257
77.6343
49.5233
81.4572
102.175
48.1257
137.285
48.4592
260.348
49.2694
51.8999
58.4855
122.34
43.7182
72.9868
73.8188
48.3438
44.414
51.4836
1147.98
63.2247
149.394
46.5844
97.1764
46.7715
58.9561
82.3674
72.2113
70.8304
46.2282
401.224
54.6222
59.1539
55.1121
49.3171
44.8068
58.5175
115.791
48.6115
54.0771
68.0568
45.0786
245.448
45.4241
61.7005
514.028
72.5341
44.2766
361.288
564.654
46.4062
675.116
701.966
71.5728
46.6602
52.4653
44.9519
85.4639
90.2376
619.261
45.3722
129.059
50.1053
109.097
57.307
85.3442
67.5476
534.521
332.024
52.3188
95.0732
96.8879
85.4965
123.151
126.64
49.1579
98.5403
132.907
95.2645
67.5457
132.678
51.7995
48.2785
133.175
94.1382
78.6959
122.566
102.156
68.1573
73.4118
58.9103
54.2714
67.8532
48.2862
47.1733
1332.56
62.1764
75.2073
1028.59
1000.75
44.3685
77.5201
1661.83
171.584
91.8208
292.883
119.462
772.734
59.3152
48.9694
60.0601
165.428
113.733
112.842
46.5809
119.199
67.2069
84.0163
48.9587
81.2755
57.7747
434.616
695.892
123.523
49.8627
86.9844
44.3424
109.892
47.4396
58.2298
63.5028
65.2144
45.8189
180.989
75.5692
47.7857
68.8171
189.257
818.375
217.683
88.4041
44.1235
74.931
44.6992
793.549
71.1145
610.392
84.8935
106.913
66.0692
70.0273
59.7865
87.2762
54.498
88.6084
56.6262
208.338
89.5782
49.2338
70.8911
90.0193
792.794
65.9917
203.771
68.1946
48.6645
44.64
144.454
80.0923
70.7911
46.0525
64.4057
66.7094
73.8565
81.1345
80.3501
64.7925
125.57
194.002
71.2137
97.5748
67.9211
114.728
92.7815
48.522
133.382
61.6859
76.9016
79.5616
45.2359
296.154
417.987
96.6456
66.2133
47.46
92.0278
54.7358
138.267
45.8552
248.182
82.5352
45.6847
78.2761
47.8609
59.6756
70.5575
49.832
90.2877
43.9318
46.0338
48.5258
165.326
43.3302
362.28
240.202
253.893
356.205
80.8974
233.579
58.6036
47.5431
147.438
335.928
377.982
103.817
61.1054
123.513
117.389
162.401
130.714
95.2555
53.5327
71.0013
99.9609
114.401
57.0477
83.0797
364.533
58.5117
62.7018
153.542
121.347
116.693
160.181
756.615
487.327
228.992
253.001
80.6807
120.042
44.9023
47.5051
72.6405
419.262
180.394
72.4427
73.5964
44.8063
362.724
381.733
44.1637
171.073
91.1982
44.2049
167.61
44.1789
44.6406
73.0579
72.9699
85.4563
49.0488
44.3341
61.3744
69.6312
68.2886
139.418
105.636
44.4792
248.525
48.2666
46.6506
47.0966
198.373
79.854
263.652
120.747
54.9254
44.2169
68.6588
1301.08
73.3309
84.5785
72.5627
65.6916
61.1758
116.939
122.34
127.943
276.6
93.2534
784.282
49.4171
66.9239
55.69
61.9244
45.5342
168.686
127.888
44.9636
303.628
97.0368
71.2905
254.938
76.8525
54.1694
72.2712
66.9081
69.9558
112.706
335.922
67.0327
73.285
209.357
222.987
666.118
217.58
90.1844
177.202
45.4768
48.4086
103.463
169.558
87.0973
83.9019
94.6205
103.95
48.1389
68.5428
106.19
100.131
90.7315
327.158
526.599
95.0881
119.22
148.887
710.388
400.032
208.889
93.3175
67.1514
96.5904
94.0719
194.853
46.1753
48.7444
96.4952
434.864
122.034
72.4956
98.337
54.6817
109.946
127.925
78.6049
484.001
53.942
64.9243
131.332
97.2594
65.4191
66.1312
104.735
101.316
92.4154
59.1793
128.013
46.2488
45.6158
46.8935
81.579
58.0834
152.142
53.8685
220.925
292.609
271.614
99.0711
83.6996
46.6108
70.3022
114.962
490.041
236.499
912.714
45.7923
59.0119
54.9337
322.085
88.9237
314.705
238.966
233.118
136.39
226.988
91.0377
86.8513
73.5842
46.983
123.231
68.1113
74.1078
234.01
76.0259
67.2458
51.099
264.043
407.665
150.739
194.747
661.835
192.962
92.8374
69.7888
89.7214
107.97
186.148
189.777
614.682
47.1002
58.2128
72.9341
47.8427
63.8047
101.696
97.5966
54.0088
115.994
53.0707
77.8379
52.0917
47.305
126.046
66.1115
119.897
45.9102
45.8984
164.391
47.9241
99.8109
106.074
45.889
63.4163
113.764
79.3114
67.7076
80.3947
555.059
185.636
125.341
108.595
1874.22
1020
654.08
440.156
103.904
50.0071
1102.48
418.143
54.8124
64.4785
107.644
86.5022
393.694
139.808
46.8319
114.522
58.29
49.2715
206.404
946.199
140.523
1190.3
153.901
247.643
710.5
56.9846
78.2148
134.666
304.251
93.772
47.9479
47.6034
839.492
96.1506
357.253
73.7844
163.65
49.1982
53.8922
553.025
568.002
83.8134
54.7555
74.4988
488.251
45.1041
50.815
437.843
571.283
72.7177
45.5067
1054.71
820.253
560.905
100.46
247.307
504.465
533.511
80.2123
90.9167
105.614
64.4727
109.16
544.467
1396.39
64.0312
60.2313
58.9567
52.3813
49.074
82.1401
137.672
66.5226
49.5561
48.4093
84.8261
360.714
1140.54
51.8172
230.857
100.015
73.8431
184.36
57.2236
90.8326
76.3703
47.5981
200.579
53.4655
504.45
45.2907
791.614
519.605
542.39
204.583
97.9552
63.8627
104.146
54.9508
213.272
1451.27
105.02
389.717
186.514
460.073
157.119
786.08
623.352
92.9643
53.8462
1573.9
86.5933
49.3329
74.3063
571.619
1067.87
80.793
52.477
473.078
78.773
864.286
765.79
108.695
117.597
864.063
103.895
46.0747
568.087
52.5566
582.847
1014.03
44.6849
69.5584
85.0656
56.6409
124.097
102.851
43.9843
122.56
90.1557
117.422
57.8223
44.3589
185.827
184.102
610.402
52.6134
97.0095
226.206
45.9859
832.216
86.336
114.544
151.958
534.608
87.1615
447.264
182.464
144.579
57.0257
607.497
222.675
290.597
84.2278
161.607
62.1215
76.0313
69.8849
337.426
257.019
107.983
725.851
150.101
107.474
286.381
127.358
145.441
775.104
346.768
51.6907
158.456
83.8632
148.415
305.784
974.577
58.3819
46.4514
62.394
506.81
63.5056
310.398
59.7726
62.3159
47.6946
147.55
56.0996
209.293
311.54
54.0883
61.7322
92.8255
81.4184
992.68
380.425
117.025
742.985
360.003
121.981
233.992
64.2434
57.7581
1083.29
57.3915
395.953
324.153
47.2714
59.5514
87.7042
96.2657
56.2786
71.3426
136.328
77.6237
78.9578
67.2566
82.3495
251.411
67.2327
195.589
156.85
200.905
56.4462
735.444
427.955
56.1123
552.675
237.94
57.511
109.916
659.029
219.995
48.1189
182.989
406.823
191.37
463.114
58.0866
570.414
110.158
55.0607
68.7378
109.846
180.109
125.249
66.1962
255.561
50.1973
238.537
108.375
1252.76
145.48
80.7591
121.456
257.712
55.6518
257.422
108.567
110.824
651.172
79.5226
78.4637
1041.35
44.3791
104.26
377.775
62.0609
272.391
749.331
153.119
74.0137
83.5751
962.238
303.663
388.229
316.318
78.0015
69.8903
102.219
669.881
778.15
290.195
89.0211
48.2576
87.3727
88.3655
130.736
336.949
93.2275
56.0509
62.2884
61.4121
46.0652
85.7285
45.2508
46.9163
121.285
85.6993
46.2529
130.151
236.703
62.6142
47.9394
132.214
63.7646
48.1203
55.7526
102.274
96.0522
50.6121
96.9276
590.397
88.5661
49.0307
55.2797
44.9461
239.24
68.325
54.7357
699.196
817.834
285.282
48.8223
682.167
151.428
49.3785
1038.99
95.6855
1023.23
91.4773
66.8223
82.3618
67.0872
46.5541
83.0042
84.5654
93.5287
116.111
90.1714
105.081
157.9
81.4619
79.331
430.582
86.6224
1317.77
70.9323
682.354
46.7186
119.953
182.29
52.7969
69.0407
190.117
44.1179
531.417
329.346
1259.09
52.4607
641.797
58.6494
111.743
167.745
57.7057
571.309
86.8853
282.358
65.8199
730.928
699.804
80.2117
44.6516
429.023
70.5387
372.059
85.7894
96.5846
71.1567
73.2681
58.0343
46.9997
87.5019
269.434
73.2367
177.554
85.3596
87.4606
44.5176
155.736
590.28
90.6973
385.756
105.906
67.8457
121.233
80.5576
74.5698
56.7296
153.572
132.031
48.5688
86.0671
82.37
69.1403
94.3692
402.386
428.732
82.6391
91.7262
310.866
88.2167
53.4538
65.3011
49.3771
170.069
167.492
203.937
104.582
70.3918
74.9762
66.6115
55.9094
57.3619
60.0383
470.297
130.593
663.228
505.863
624.466
58.3554
69.3029
70.8756
72.7811
48.9833
317.233
81.8668
47.6342
80.2419
111.393
75.3695
351.987
73.5699
157.895
109.242
99.8246
51.2596
71.5463
90.5172
89.8638
68.755
114.836
98.578
177.696
87.3904
68.9302
79.0974
152.353
172.302
65.8241
81.846
135.767
98.1808
170.88
45.9139
56.2049
137.326
69.3273
54.5735
77.029
45.7887
46.8048
87.6343
76.125
417.142
72.8075
89.0786
49.7518
70.9585
658.606
81.0616
85.8088
60.2569
62.5303
88.7537
86.6768
950.028
107.531
474.24
51.4161
60.7838
72.1447
44.1726
49.4462
108.652
82.7617
48.6813
46.2416
321.374
107.613
503.718
121.732
255.527
105.01
78.733
109.706
570.124
183.386
94.6164
79.9746
939.736
65.2817
81.4548
88.4737
84.1885
47.2519
959.836
68.0716
92.7445
46.8372
125.978
56.477
926.742
1025.82
68.2953
53.761
45.135
92.6057
95.1274
59.9508
1190.53
810.771
65.4032
139.609
443.515
64.881
130.513
119.196
44.8395
62.939
47.2848
75.1293
223.445
87.1929
79.2818
46.1271
57.127
76.1651
48.6137
305.796
63.4555
138.105
158.608
425.799
314.04
103.526
134.644
74.0235
133.155
120.483
45.461
599.895
323.619
131.228
93.819
106.043
92.0434
89.5811
313.92
44.3145
46.302
62.1918
65.0146
134.023
77.1539
367.543
396.639
46.8778
131.229
45.2985
44.5195
80.2612
62.1987
65.0585
55.3795
44.039
316.433
381.985
44.6679
47.2029
204.556
577.866
49.9301
43.8315
87.3108
172.489
925.996
94.9917
388.031
386.316
448.9
387.924
72.0275
49.7324
44.0408
58.4331
958.577
56.3488
85.681
80.6605
44.003
746.795
1253.18
1230.09
201.53
469.9
50.04
45.9045
53.957
84.6287
803.37
665.888
374.726
548.708
372.368
56.5551
49.7149
850.789
47.8167
919.522
95.255
915.244
79.7355
143.226
73.3181
183.166
169.167
169.732
108.204
63.0189
88.8357
74.1237
65.6807
72.0865
66.3139
1232.32
847.012
90.6822
344.089
747.31
324.653
69.1662
46.6425
672.387
524.811
498.848
45.6978
816.634
50.455
971.568
658.926
743.023
283.422
54.0533
61.3262
47.313
72.1215
85.8723
163.571
67.1555
84.9937
62.453
95.3955
79.2923
45.3689
48.9524
117.551
47.0452
51.9614
79.3468
83.1666
92.5277
88.8596
155.637
91.5843
53.0604
107.969
101.443
91.1678
95.0814
137.626
1112.02
59.2013
338.203
69.0246
92.2239
435.407
68.4394
55.7918
46.9612
103.921
97.028
55.0299
108.124
103.103
85.0174
47.3742
68.1628
57.3664
71.6366
107.33
73.6179
99.9872
287.42
91.7916
82.0891
77.2377
114.052
81.2169
344.033
45.7975
69.3055
108.212
305.252
299.305
87.619
104.334
943.628
235.978
187.919
91.2462
73.0803
111.1
88.9047
53.5425
133.893
79.1812
88.57
405.666
51.6801
166.877
129.055
112.861
106.301
201.216
79.3661
57.7143
44.8608
54.0983
100.452
81.6161
503.084
63.4256
91.6536
127.949
103.711
904.745
57.3102
75.1302
105.379
278.341
386.405
149.285
45.5129
136.024
66.7003
47.3671
44.009
555.024
101.208
59.4202
418.406
99.3092
69.7637
156.016
811.128
1080.33
159.454
70.0377
918.176
60.2653
192.163
131.378
569.293
316.013
86.924
96.0226
536.997
92.5694
62.1831
76.3288
100.91
54.5034
64.4503
356.012
46.0327
102.4
560.7
151.131
567.253
85.5389
432.3
51.0747
1133.62
105.901
106.08
602.786
232.912
293.429
554.697
429.386
277.101
49.7006
52.823
429.019
56.4387
86.3292
327.409
66.9031
60.0173
78.6108
151.142
71.5011
50.6407
738.217
447.736
168.554
343.692
169.147
92.5774
82.7573
79.9366
116.986
66.4031
57.0114
85.373
62.3396
315.284
328.033
125.565
55.093
88.0746
78.1333
119.016
106.755
98.8708
78.1017
332.353
59.5411
64.8722
359.868
132.589
575.563
208.728
99.2475
739.126
138.764
113.071
388.673
134.967
128.976
50.6309
583.856
44.9006
57.1063
52.6793
86.8871
68.3875
102.743
208.694
105.621
127.276
82.5718
111.11
100.492
44.2517
361.782
151.299
593.2
1145.97
107.848
395.556
121.609
70.9583
594.494
69.7495
61.3668
95.6737
111.249
683.6
401.301
54.291
312.757
377.499
79.7956
1907.6
406.883
117.025
375.635
62.6912
88.874
240.988
344.943
146.115
748.647
55.1991
52.4982
154.999
52.8244
48.3479
106.199
318.535
582.999
46.8197
141.369
44.7674
144.603
64.2458
144.116
313.544
91.1294
282.228
59.6694
63.3976
792.655
45.2432
54.2242
111.341
53.5099
126.515
283.505
47.3364
952.162
545.574
891.486
466.609
119.396
68.2154
53.6016
62.0513
84.5642
47.786
87.5415
150.21
63.7729
73.0503
660.44
46.3552
160.398
46.0381
133.355
70.8873
729.839
129.199
100.944
46.0304
133.112
152.288
48.9209
61.4772
100.864
43.8333
205.335
97.7224
106.289
54.938
46.2581
103.414
48.1862
129.067
365.602
46.2977
76.114
49.4039
64.8723
396.837
223.928
127.952
437.31
832.152
389.188
80.5649
540.721
424.733
713.794
72.3911
199.395
372.694
327.252
298.663
934.851
55.9222
46.34
196.524
815.32
53.9266
409.087
111.953
430.265
79.057
69.0775
601.317
579.508
358.726
58.2949
299.517
131.763
440.422
46.0018
206.881
65.0984
56.35
96.2055
97.4126
299.54
112.971
64.4258
162.54
80.3176
258.762
368.202
45.4863
70.227
55.7639
932.67
86.5039
132.129
184.794
139.825
71.5196
45.3449
92.2682
77.117
442.1
44.3637
105.277
322.432
65.8388
50.9202
78.3433
74.6947
688
139.493
211.118
97.25
73.5598
1057.48
802.435
60.5689
146.058
60.7177
48.8775
411.157
81.878
526.715
56.6174
51.345
98.5269
56.7456
48.3216
61.6539
70.25
137.53
230.096
323.174
379.04
70.7312
75.9007
47.4398
172.164
586.586
928.673
70.1585
517.506
182.927
657.144
79.0384
373.7
111.179
164.022
130.378
84.1223
264.839
74.015
184.922
113.135
60.0471
1038.04
107.581
519.119
107.403
74.9668
110.14
135.274
68.0845
68.9436
318.001
107.642
123.721
57.4284
123.859
575.542
128.923
80.0122
161.738
46.6469
63.0918
47.1672
75.9409
78.9631
149.36
71.7829
96.4166
94.0331
73.4934
78.3953
64.9296
75.5421
60.1641
321.928
50.9156
106.925
50.3481
68.9542
126.417
78.3902
54.2381
80.0276
100.743
89.3351
128.73
353.164
48.6085
159.719
434.827
158.597
156.246
52.2823
156.806
89.4292
296.291
65.4929
46.8983
53.8706
162.076
57.8158
67.2304
869.326
193.064
361.956
46.0401
51.4443
183.007
81.1632
55.6591
132.935
49.1078
81.8569
55.3708
392.924
46.1508
156.1
47.5715
47.3194
77.2877
67.446
133.228
106.014
44.1287
293.053
66.1908
68.8864
90.0911
804.332
66.1033
61.8026
128.929
61.3412
57.2059
125.233
58.9948
51.9217
107.571
204.864
126.228
84.9569
409.827
109.692
252.298
48.5098
182.401
65.1072
95.3838
213.684
50.3613
102.963
65.1876
82.1065
158.487
69.3531
586.857
108.716
47.6025
517.11
131.394
1137.49
302.205
175.38
87.8204
94.8786
122.132
373.1
62.3857
447.666
91.5531
365.573
66.3718
380.496
65.55
249.012
219.73
125.876
367.677
533.419
415.945
1150.33
547.564
546.886
442.615
463.283
332.569
44.7814
96.7354
318.703
69.7554
629.544
58.8329
482.292
622.922
121.556
101.282
77.2251
45.1997
115.21
48.5792
249.691
132.52
84.593
184.915
85.8896
155.97
72.4787
54.308
113.043
50.3564
221.708
47.5686
69.3761
704.577
65.9387
44.5131
105.975
63.6639
702.962
284.573
71.4629
66.0222
174.455
50.2803
84.5257
50.1799
52.8819
106.571
77.974
57.0486
63.3526
301.072
89.7297
56.7013
45.3804
44.7368
46.8117
188.251
73.3757
97.9261
55.1109
78.4405
99.1272
55.6051
245.623
72.5796
48.6222
60.3249
83.7847
140.729
112.061
99.5878
51.5515
120.078
85.3993
53.3475
52.9831
77.9511
82.1478
100.954
69.9903
125.687
66.5081
88.1076
116.3
295.448
749.25
1122.14
124.815
61.4581
469.598
170.633
156.801
46.6171
51.2727
45.5191
91.3522
74.9255
44.839
46.3039
47.5616
113.767
44.0767
49.5819
44.985
60.6014
177.241
54.9302
116.462
53.0328
97.3115
247.676
60.4965
54.6261
61.5175
1068.14
897.555
99.8188
67.1289
68.5059
59.4824
89.9407
504.524
65.5429
68.5533
91.3111
44.7193
95.9441
52.7893
85.6014
113.363
92.2283
63.6395
206.216
262.971
65.2995
2079.49
233.306
202.186
61.3619
86.5415
101.833
115.932
53.9955
76.3965
306.53
46.6499
195.429
603.655
106.835
125.123
662.786
65.8405
81.1989
92.9796
44.4185
120.453
407.831
92.7826
90.1465
447.398
212.174
1142.26
617.459
100.003
49.6567
142.16
69.1133
184.513
148.055
562.904
49.8489
46.088
644.336
52.7047
196.012
77.1185
104.785
652.727
853.072
51.0274
44.7412
934.333
50.3538
54.515
65.7901
48.0307
82.2127
148.855
259.615
61.8084
572.533
106.672
52.0681
86.8231
709.237
81.5705
608.651
66.3262
61.2659
87.5331
85.2537
60.0466
109.897
65.3684
575.966
112.342
115.176
517.541
124.825
54.519
621.914
110.089
108.083
81.919
150.241
110.023
78.2625
46.4795
261.142
73.2203
73.7332
65.2455
119.676
81.7456
59.0857
48.0749
66.2327
150.401
71.2681
67.157
81.9086
438.693
74.0816
70.4673
67.8956
95.4678
48.3954
64.013
63.4221
133.204
104.56
142.297
149.817
90.8403
421.657
62.9219
57.3862
452.7
382.991
508.908
90.7363
332.084
54.1172
569.62
95.6116
349.768
96.419
45.4495
116.676
202.648
94.028
69.526
45.1357
63.8247
431.472
64.1146
51.2874
54.6124
1607.33
354.42
46.4793
1512.12
578.663
334.994
210.176
1099.68
301.902
75.5597
348.278
90.2429
79.7886
405.873
1044.66
63.6478
46.5884
55.6156
502.562
47.1331
1045.81
107.312
130.287
123.078
126.868
338.923
44.2565
116.192
123.707
55.8313
106.061
53.3826
123.292
1986.33
1949.89
821.004
97.1018
622.168
45.6072
49.5092
62.9694
101.715
45.1395
56.0912
44.8523
73.461
90.7581
47.13
54.5224
77.2579
46.7424
101.241
122.323
45.8116
116.426
124.624
45.817
55.4518
889.74
56.7498
836.165
608.152
128.406
134.178
84.4351
123.189
68.6975
54.3769
500.166
58.5159
59.66
48.7342
52.8849
79.1351
142.971
119.035
178.739
112.831
49.0159
545.977
62.2895
310.019
331.602
63.6818
662.889
77.6099
56.3048
60.707
57.4323
65.3073
49.2543
130.857
51.3607
378.898
216.089
382.413
57.1092
57.1154
83.1019
342.04
442.9
89.6452
147.481
64.7324
338.812
64.2951
150.166
483.93
85.9481
56.541
91.7476
1032.71
63.8717
59.1111
120.764
48.8882
137.814
129.148
114.385
85.1989
277.371
170.722
603.338
71.8734
270.875
390.899
340.419
54.3195
177.253
98.2176
103.583
54.0992
62.8441
63.3941
475.66
85.9821
99.8017
220.858
83.0202
63.1628
98.2676
47.2618
145.04
48.2531
63.5949
167.075
103.617
80.1424
168.717
99.7468
89.8207
81.3363
127.679
46.3254
312.079
272.996
108.945
103.674
46.2964
338.967
60.598
46.4157
86.1889
48.3485
108.703
90.0567
50.0595
54.6015
99.7692
280.924
239.962
49.6422
813.948
45.5869
97.5243
96.3793
48.1632
779.731
149.696
671.035
50.0389
68.8519
536.953
679.783
89.8489
103.334
187.921
127.985
51.5113
94.6622
63.5093
147.365
82.165
135.231
49.8224
136.212
101.641
108.632
62.5242
89.1008
44.9949
61.4624
574.739
329.551
108.203
86.071
103.531
87.2833
87.1121
158.524
45.1727
50.9689
60.1922
87.7048
82.5176
66.7506
113.729
54.3613
57.9695
52.6518
73.085
58.1323
69.761
188.464
81.5769
68.8596
1068.95
79.3521
65.421
79.4387
45.1512
83.7469
209.073
47.8989
77.8376
81.4907
721.703
64.3478
62.8933
95.0978
1506.7
95.7898
156.897
122.467
66.2408
52.6186
76.5751
63.7976
841.279
94.6918
68.3232
65.147
46.1387
276.503
47.3011
485.303
433.823
112.12
74.3455
59.3205
114.14
89.5857
58.6723
434.298
118.801
305.618
44.3827
139.115
640.497
118.678
50.4491
101.287
55.0944
680.03
58.4648
54.4419
91.1294
44.667
61.2017
87.8788
52.5268
325.263
45.7432
372.496
46.7097
74.948
66.9437
148.785
88.3763
128.33
112.81
552.984
107.597
120.764
75.7774
45.9504
103.496
58.747
53.8487
81.9863
77.5055
63.7874
125.883
47.0219
65.0799
47.4145
287.836
87.2228
614.761
539.349
324.947
160.035
67.2674
69.8526
61.4562
196.304
91.8054
46.1103
44.3148
112.234
145.141
47.5854
73.0435
1066.96
116.793
67.5422
75.6418
646.26
851.054
59.7087
543.559
553.682
200.751
348.923
166.8
527.668
71.9491
226.761
740.175
75.5978
44.0055
61.8649
105.401
314.12
44.9824
45.1954
69.9885
146.836
154.54
1051.61
109.306
1020.25
119.994
70.7248
86.0486
78.0215
74.4024
577.398
182.221
311.771
458.071
67.597
458.215
1469.39
66.8963
150.511
112.183
415.366
151.917
125.969
710.508
1063.3
104.618
616.683
125.843
407.043
82.2514
45.8365
153.892
762.703
671.775
62.9502
104.702
151.327
98.0863
248.462
50.1252
70.9303
948.466
395.945
395.475
49.9939
393.701
67.2608
389.824
57.7535
111.885
193.914
326.227
87.3047
117.457
299.89
102.73
939.071
73.1204
60.2601
375.054
47.4711
147.97
46.0136
55.1963
45.182
82.5981
438.496
452.627
326.73
60.0605
63.1723
292.553
57.4584
549.048
71.3698
53.8847
82.1017
217.058
153.844
628.829
51.6029
73.5768
65.0272
282.101
101.632
572.296
906.136
434.541
104.583
62.7254
412.723
375.427
153.291
48.7413
62.7127
43.8259
712.875
261.692
460.11
1568.31
238.068
96.6531
80.9033
780.191
400.547
63.6677
87.9281
102.815
319.303
60.5116
48.0928
88.4787
81.2013
746.266
309.778
226.992
263.092
312.704
340.645
162.438
93.3242
849.43
502.398
713.847
203.48
328.479
636.415
152.434
58.7897
107.143
58.1529
58.6526
76.81
76.2159
139.629
280.066
85.6889
179.012
182.169
147.09
109.783
189.753
109.271
101.134
128.946
732.923
1125.89
480.576
68.4251
120.185
82.6399
293.674
556.423
156.247
626.339
80.5583
497.136
405.248
178.668
48.2055
45.4982
70.947
63.3408
676.209
92.4674
58.5725
512.417
73.47
835.208
441.983
105.348
449.143
62.9518
46.1406
47.8636
44.1455
98.7055
64.2552
92.8029
132.431
74.35
46.8753
148.828
708.213
531.856
45.0453
106.396
50.5445
63.2978
56.2077
706.804
50.266
55.0315
53.569
104.434
47.1438
54.5235
97.6954
56.4012
58.5796
54.3042
236.772
45.1506
59.3613
128.34
411.271
312.322
63.7603
599.533
751.297
55.2042
53.6779
164.309
79.0067
303.286
77.5622
92.6365
82.3198
309.504
68.9163
93.0932
1046.05
459.354
92.9101
630.011
47.3713
46.4459
63.4017
46.3386
47.6868
71.8474
54.9463
80.6966
206.46
88.2049
378.718
230.741
231.62
82.1722
44.3803
608.383
132.249
84.8392
561.353
103.163
678.612
65.6044
429.034
45.4413
180.17
87.3177
228.95
48.19
86.2925
78.8545
760.401
49.045
44.1476
158.274
80.76
131.914
60.499
71.3248
91.5387
48.7664
137.129
49.7551
64.3346
148.253
91.7574
257.447
69.2127
46.4328
61.8105
45.804
53.0492
268.763
44.0474
93.16
44.5219
225.295
117.595
51.7596
113.931
112.309
57.9774
76.1112
75.8968
130.533
153.011
52.0468
48.3298
90.8452
69.7132
309.111
596.295
504.357
61.2908
47.1011
58.211
65.133
91.2569
901.462
237.414
64.0081
53.6863
78.0804
47.6226
48.8635
77.5192
150.174
191.58
499.142
372.917
57.382
76.5282
77.4841
44.1835
235.493
73.215
112.194
114.103
51.1895
985.844
77.8429
58.3256
70.7792
71.6878
161.166
603.145
45.6849
480.734
55.5432
747.076
118.937
520.703
71.3181
45.8528
60.415
104.681
50.7631
48.5141
126.584
45.4482
45.1726
54.5513
60.9167
228.999
55.4662
760.003
72.2847
60.9405
151.515
171.478
48.3968
441.182
962.295
747.233
559.054
442.124
55.2513
388.043
305.322
75.7346
57.5229
53.7588
679.081
91.0308
96.5559
48.9422
76.2467
314.527
760.937
158.592
85.5223
45.4117
66.2272
250.814
47.515
56.461
587.834
451.87
273.348
762.403
76.0698
47.2336
69.2664
82.8665
1141.62
50.5534
46.5892
44.4642
283.611
47.1818
51.4528
93.4927
101.112
45.5205
114.074
47.172
147.139
86.5584
142.411
52.601
229.36
89.6157
112.766
170.29
111.594
263.983
50.5129
621.906
93.9086
338.567
331.006
409.869
85.2849
121.806
202.072
67.5664
45.5713
50.8964
54.2592
87.3917
569.705
117.15
46.8179
83.607
64.057
49.2326
120.712
62.2946
135.252
100.626
47.5781
100.008
50.0759
78.9401
283.19
564.723
71.0193
100.309
80.089
104.49
529.36
375.741
519.534
860.013
142.72
47.2545
48.978
44.8993
105.697
841.219
80.2992
784.698
127.962
46.145
117.863
398.455
46.7591
46.9648
56.0759
76.2662
60.0828
331.398
76.7582
92.4724
290.367
49.8104
97.7466
65.3143
129.653
136.919
52.4077
669.523
82.4787
112.69
56.368
125.341
46.6234
125.162
123.23
93.6799
93.1242
80.1257
67.5275
68.9498
51.4004
228.463
61.6217
51.3869
116.408
205.258
232.418
137.489
98.4901
113.687
186.796
71.8104
316.197
111.574
136.829
102.767
94.5856
155.545
78.7856
115.11
451.314
100.975
53.9127
48.9806
336.378
91.0071
103.59
51.0479
106.718
86.6377
48.4314
95.1615
408.989
93.958
73.0387
87.7228
665.263
74.9874
92.2104
146.75
59.854
157.762
49.2042
753.409
84.4513
80.163
84.4704
56.0346
115.942
55.9986
518.42
44.1691
77.9932
651.431
59.3632
112.055
202.325
101.516
49.1789
571.303
59.3479
45.9792
98.6515
133.161
59.6494
315.823
45.6492
357.972
99.7375
44.8701
72.8532
117.9
734.957
184.793
71.8323
45.9699
131.991
403.721
309.305
117.52
124.448
1002.92
212.554
337.792
128.828
83.798
103.331
59.7955
523.933
1040.4
152.999
166.962
100.201
988.861
468.559
513.786
414.417
180.191
64.3726
52.23
152.802
73.7489
559.115
319.237
79.6412
825.443
108.358
92.632
71.7181
50.8308
107.031
88.401
91.6324
79.6833
146.208
184.329
886.713
57.3921
119.106
645.475
616.829
182.268
181.404
63.384
647.383
47.5257
65.8861
350.532
148.443
45.3611
337.651
440.559
71.69
124.795
48.6893
96.3284
56.6997
80.9253
176.618
83.1677
617.649
44.6028
51.9727
88.8485
481.915
170.967
124.076
166.463
319.456
122.696
78.974
419.61
109.311
70.7729
248.12
795
286.253
59.9861
379.718
160.408
91.2613
65.8928
128.922
47.6733
116.006
80.5539
75.289
66.4165
60.0909
88.0116
45.2013
44.2173
49.4743
100.242
49.7592
160.572
396.854
737.787
97.3004
84.0378
59.6339
50.6114
103.884
664.028
52.6572
144.456
71.8411
220.937
66.4915
121.417
212.654
411.832
48.1929
57.3487
266.803
53.1455
71.8437
121.734
87.7661
385.01
84.7013
279.396
446.019
239.408
648.703
193.413
383.849
91.2289
145.492
146.424
54.4528
463.116
127.379
86.8657
165.341
94.9505
87.4153
44.6844
53.8244
50.5462
45.4433
86.9164
330.96
44.2855
943.121
112.768
336.741
115.133
358.846
1502.42
54.9074
255.741
902.504
133.713
343.039
77.6832
69.9057
788.796
1010.69
278.581
167.345
53.8441
413.039
103.317
606.463
53.429
55.2873
236.281
1022.29
61.064
81.929
51.9764
231.862
528.846
48.4195
501.636
211.834
539.032
716.12
50.2443
358.093
74.3192
722.834
354.716
203.621
387.195
273.585
499.343
358.748
233.124
82.014
76.9884
75.7008
50.0311
54.1386
1359.61
72.7507
106.137
74.9453
82.6414
126.764
1081.86
141.013
259.089
303.194
147.96
312.506
128.372
45.1345
77.8312
993.584
626.08
308.565
192.972
243.945
86.8628
471.593
61.7723
258.084
299.342
58.4607
532.12
100.304
289.831
330.342
150.602
208.719
213.56
140.927
51.6104
142.072
62.5501
541.503
72.927
197.45
81.9979
257.803
57.524
67.7354
343.752
123.131
304.476
46.313
1307.93
46.235
60.2621
56.4603
56.279
91.9677
511.32
160.685
88.4108
667.867
75.8691
49.0755
59.088
874.817
64.8581
97.0506
851.475
330.974
907.193
513.277
155.321
202.091
161.606
188.181
743.034
66.3576
406.098
129.321
66.3543
181.038
65.5576
142.005
73.5755
614.86
444.137
552.868
359.026
254.02
332.311
52.5606