/*--------------------------------*- C++ -*----------------------------------*\
| =========                 |                                                 |
| \\      /  F ield         | OpenFOAM: The Open Source CFD Toolbox           |
|  \\    /   O peration     | Version:  2506                                  |
|   \\  /    A nd           | Website:  www.openfoam.com                      |
|    \\/     M anipulation  |                                                 |
\*---------------------------------------------------------------------------*/
FoamFile
{
    version     2.0;
    format      ascii;
    arch        "LSB;label=32;scalar=64";
    class       volScalarField;
    location    "0.0502279";
    object      p;
}
// * * * * * * * * * * * * * * * * * * * * * * * * * * * * * * * * * * * * * //

dimensions      [0 2 -2 0 0 0 0];

internalField   nonuniform List<scalar> 
47425
(
1.29933
1.41255
-0.022053
-5.17901
-20.9233
0.0950106
-18.8006
0.0309996
13.1107
-37.1915
0.00324496
13.6291
-14.4081
-0.014977
-1.80456
12.0791
0.0294781
24.4605
-110.999
-35.4928
3.16071
15.7963
-0.038422
1.08854
14.535
1.1159
0.106639
-43.9475
0.00128205
0.253403
15.6378
12.5026
13.769
0.384469
-0.0271632
0.0256086
16.5332
13.5348
6.61178
1.33567
1.53169
0.521064
4.14614
13.4528
-39.8759
1.26125
0.165791
13.3366
1.29373
0.58216
45.1025
0.490281
0.206118
-30.8498
1.11354
8.61546
1.33216
0.0936061
-11.7386
0.0741439
-32.4307
-32.9924
-67.6335
20.7868
12.9581
2.97281
13.851
-1.70331
-47.9679
23.0166
3.39277
0.813411
1.17846
3.01611
-55.5965
12.7895
-67.1481
0.204036
-94.7081
-21.1143
-58.1183
10.2446
21.0156
12.6935
2.00523
1.33556
1.05399
1.57114
-4.04956
-26.8001
14.922
2.13758
0.524861
1.32139
1.35532
1.34487
0.438357
1.38673
1.49035
11.5963
12.511
21.1277
9.34864
45.469
9.26956
1.08376
1.49879
1.37592
1.90878
13.8899
-39.2912
13.3778
0.616995
1.35732
-0.544462
34.4621
-0.179062
46.082
7.95395
-2.8999
1.41038
13.7922
13.2807
-8.64388
11.3072
-0.336472
1.35384
12.8527
1.14072
0.572687
21.8483
0.917751
55.3562
7.98279
1.16926
-11.022
2.20491
-0.361553
11.3025
-0.588689
13.8337
-6.05094
6.01652
0.0127796
11.3513
12.9109
-19.1022
13.0975
6.01474
13.7261
0.541724
37.1155
13.143
-8.40877
21.2817
1.21494
1.312
-124.476
1.26206
0.335307
-1.85657
1.06702
0.745828
10.9868
-52.2029
-90.8793
13.1398
-55.3735
0.827137
-47.4997
-56.3452
0.588081
12.8899
18.4382
1.35774
13.1758
27.4342
0.062672
0.035825
0.380606
21.1863
1.34754
0.0700309
0.0755458
0.203815
12.5558
10.3733
50.0088
0.397098
1.37717
13.68
0.477678
-12.0572
13.9003
0.415972
-1.50072
13.8815
1.00829
-2.1964
1.42026
0.342416
1.13842
1.99025
-1.09505
8.87902
1.9703
0.0142037
-0.701588
12.4845
12.8006
1.36192
-1.62761
12.8589
1.09132
1.35618
-2.72792
1.90699
-22.5738
21.3345
13.6948
-23.4004
-3.47537
4.17404
1.69305
2.32714
-21.2044
0.454526
-2.35231
-4.08067
-8.87842
2.35302
0.198992
1.22548
13.5268
0.129575
12.5456
-26.1222
0.702883
-23.5925
0.0967902
0.153211
0.451921
0.567812
-6.77189
8.07416
12.7984
1.35445
12.6933
0.851366
-0.0161091
1.16232
-19.1088
0.0476842
13.8614
0.252696
0.223876
15.082
0.337235
7.32029
12.7316
0.279654
13.3777
9.88723
9.73049
-10.0433
1.35261
0.0831378
-9.96324
0.266775
10.0057
10.4464
-23.6132
-26.0734
10.3708
-21.1654
10.43
-22.2424
32.5259
-24.3957
32.6754
-30.8984
1.4505
-36.0898
0.737138
0.722535
-3.01667
0.67005
0.0443942
1.64766
-0.371092
55.5882
19.7788
12.9838
0.0392964
0.10149
11.3683
-5.57128
10.4793
13.2098
-9.21882
1.4329
0.993918
0.246924
0.187193
-55.975
-69.1348
35.7715
0.453769
1.04657
11.393
11.0724
47.912
-0.00782092
0.0809225
-14.3266
1.38629
0.533966
0.412727
0.142882
-36.583
-14.0712
12.0966
11.7192
0.0751263
1.17178
0.092825
11.9898
1.26579
0.727236
0.228358
-5.49345
-61.9591
5.64522
0.11983
13.719
0.0574036
-61.1266
13.3731
0.783261
0.85062
12.0714
11.808
1.3629
13.6815
0.646445
0.0255921
0.156989
16.1914
-0.074378
0.16515
12.3086
7.57231
12.5216
13.3077
12.7948
-2.70519
0.429523
20.4875
13.1275
13.0686
19.3483
-3.74227
1.08982
0.147869
8.56821
1.07127
0.161823
13.1457
13.4106
9.93681
0.213263
-40.2747
1.09346
11.0017
12.9238
10.8607
-1.08209
12.4526
12.7937
16.1445
12.7144
10.8035
1.0036
13.2744
1.18932
13.3052
0.0579879
10.2825
13.7766
0.102151
6.37037
7.67163
-0.0302511
7.01323
0.566392
6.95605
13.6686
0.00964619
-13.2247
0.349387
-28.1708
0.506309
-35.6672
0.207697
2.82652
0.266419
0.273138
0.0220158
0.162714
0.231293
7.74738
-66.7362
57.9371
1.03952
7.18754
4.88588
3.39682
0.979365
0.0560237
0.56408
0.173639
0.73426
1.5437
3.29401
0.0332843
0.0976259
-5.70038
-4.26237
-1.246
17.4039
-63.3013
1.0612
27.3941
-62.2956
1.7113
-65.7505
-31.62
0.848295
0.507554
1.47114
-2.3689
-68.7841
1.2492
0.92154
0.538454
-2.87907
-0.64684
1.1325
1.29974
-22.7293
-65.6728
-25.5385
13.6053
19.8931
-1.57033
1.10511
1.06027
-11.5409
1.32077
13.5778
13.8412
13.8601
7.19116
13.7755
0.880749
10.9241
0.198289
-0.598784
0.596376
0.530242
13.6384
13.7635
12.6885
8.45381
11.693
1.11342
0.284766
-22.5912
12.7082
-12.4782
13.8004
-0.786255
-1.30137
13.2536
0.952235
11.641
13.1292
12.7248
9.7215
0.597202
0.416256
11.8863
1.48116
7.89505
21.9242
0.932067
14.036
12.6451
15.6561
1.35885
0.390286
0.995531
0.162405
3.13528
0.0481614
0.139348
1.03611
1.30349
-0.160898
0.137127
0.0189524
24.3045
0.023305
1.64152
1.45489
1.09113
0.00108131
0.162775
11.8056
8.1434
12.8813
12.8834
45.4373
0.0668359
0.0253137
13.1304
13.3412
-20.3443
-24.1117
0.313939
1.4189
1.34848
-8.5174
12.4963
-26.4909
13.7667
-32.4097
27.5902
20.1438
0.155817
-20.6679
0.235467
1.29915
0.387938
1.93939
0.159563
0.860587
-64.0794
0.28824
-0.0274472
0.344869
-19.1201
0.932441
0.111668
-19.2366
-15.232
0.149324
0.230857
-28.7233
0.419032
0.253115
0.135379
0.431368
0.302014
-10.8205
-9.90534
19.9442
1.68286
1.37013
0.0669267
-27.5794
19.1186
1.60601
-28.5332
0.084725
0.24588
-29.4408
-38.7012
14.4762
-28.354
-28.3119
0.257723
13.6997
0.114411
17.5222
12.7194
0.118175
-45.8892
12.161
0.0654266
0.764093
-16.9123
-10.1735
13.7612
7.12921
-56.057
-28.0706
2.60807
0.650922
1.10691
3.48783
0.637701
0.562514
12.7441
8.6906
13.7603
-0.825423
12.8918
-26.0806
6.33875
4.64706
-27.8475
11.3849
0.625762
7.63435
10.81
0.661744
13.1545
-1.12725
30.2826
12.9082
-0.069411
1.51486
-88.4729
9.25083
-9.71542
-40.1611
-41.6391
0.26625
1.56235
-42.955
0.021831
5.365
-19.2548
13.2129
-37.8848
0.236243
0.208871
13.0035
-34.2323
13.8571
13.9296
0.392019
0.151823
0.986798
0.00413598
0.855098
1.08328
0.662657
-31.4804
-33.3466
2.57243
13.8955
0.265352
18.5527
12.1868
13.8374
13.8408
13.8981
13.8283
20.3286
2.89111
13.7701
10.1352
-7.12809
0.103886
-69.7503
-26.7422
-0.0392939
19.1959
5.40693
0.195937
-72.3058
-0.00114392
-56.4916
0.277667
-11.3264
-12.6095
0.751927
14.1634
10.0523
27.0916
0.410048
0.680635
1.17306
-14.3173
13.6954
-15.3354
1.30535
-72.0655
-10.9625
1.17223
-13.3643
13.7918
1.09565
6.44555
1.25116
-14.6616
13.6637
12.4806
-14.0335
0.331678
1.21844
0.176252
0.870747
29.6654
28.236
16.687
16.5556
0.14619
-0.0111053
3.2294
1.30365
0.243421
0.173304
1.22075
0.118849
1.21157
31.8047
-12.4445
0.090221
12.591
1.12196
1.04538
1.38707
0.0297039
-2.26819
-22.3968
1.27479
0.214255
0.118421
1.04908
15.7717
0.0578291
1.11375
0.837142
0.787811
1.218
19.2832
36.67
0.988629
-27.6637
-6.6709
-30.8921
-27.3082
1.17081
0.978621
6.19058
0.193169
43.6179
-28.8927
55.8138
-8.64559
1.98894
-15.7847
0.440764
57.9347
2.94231
1.27484
1.31267
0.230209
-9.20668
1.63766
1.1971
1.03527
-31.1257
26.5846
13.0796
13.3505
45.9165
42.1703
-14.7776
-53.9561
-20.2382
47.5883
44.522
13.2351
0.638641
18.7818
0.445536
7.19645
-28.5058
2.15449
6.34114
7.6669
0.283411
-29.7958
-30.0512
0.146836
6.45934
0.716053
0.462484
7.64754
0.312279
16.959
0.0920786
0.666768
33.1154
0.258599
-0.004254
0.115476
0.504872
0.225467
52.9636
-19.0284
0.0410223
5.99492
0.663516
16.6401
16.9787
-14.5171
0.521395
-29.7001
-15.5913
6.87575
3.10864
24.9686
-50.9338
0.0782076
0.122834
-8.77757
1.27046
13.3853
4.15366
-0.0280727
13.9353
-38.2609
-17.3983
-51.5231
13.9055
27.4504
0.17937
-10.1404
18.2949
-15.0372
0.0656377
19.8398
-42.1537
-10.8603
-16.3559
-30.9578
-14.4441
1.15338
0.0623523
-11.7685
0.123585
-16.3157
-27.3332
0.0373285
-19.648
1.14409
1.1097
-38.824
1.20154
1.30519
15.295
16.5816
12.9105
-22.462
-4.15124
1.14812
-12.3337
48.8955
0.497527
15.174
1.39762
0.628885
1.19089
1.18722
-29.8896
-68.1866
-9.92293
1.5864
-16.5906
-15.7819
-22.0602
3.43566
1.29274
13.4525
13.6484
1.35898
-11.9327
17.3576
24.5996
13.51
-27.8981
-15.9009
2.90022
1.24562
0.489257
1.17865
34.0588
13.256
-13.809
0.327495
4.78595
13.3633
13.3463
13.2377
13.0431
13.5723
-21.5974
-4.53102
23.8758
26.2215
17.8485
7.87807
-1.32899
36.4763
1.1021
-7.69716
0.853913
-14.8451
-8.69601
-4.87865
0.38129
13.5789
16.0807
13.379
1.30675
-42.9386
-28.7258
-42.7394
11.0561
-8.52306
6.85295
-28.6896
1.41146
-41.9329
1.33852
1.31496
-5.78043
10.2602
1.40944
10.8067
0.373259
5.04757
-7.40711
0.971562
-1.27038
-26.0112
-8.0921
-0.206247
17.9677
51.0169
-60.5972
40.4367
-25.1043
-58.2079
0.26627
1.0915
23.5398
0.536535
52.9779
0.533967
0.360499
-67.7804
15.1844
2.73987
0.304294
13.1563
23.1983
11.6485
0.932638
13.6443
-17.4536
10.4366
14.0782
14.3109
13.7962
0.952076
-12.4619
-7.4485
29.8972
14.7962
1.11782
11.2594
0.64164
0.675694
8.33248
-9.538
-4.1961
-9.29244
-9.35797
11.4996
-41.67
0.76734
0.690675
0.770286
-62.1289
-60.5331
-19.6843
-27.5236
1.10833
-1.06504
-37.7198
-29.3033
-4.92125
10.9061
0.910298
1.64921
-38.352
4.73848
-0.736256
0.944507
10.451
1.65777
33.3046
-109.722
-14.7275
-29.0773
1.00602
56.0665
-65.0725
1.58191
11.6499
3.14763
-34.5569
11.6961
-4.56635
18.0928
-25.6168
2.51118
-26.7945
3.00412
-9.82328
1.37655
7.90129
-25.391
-24.9026
10.8079
18.854
-10.2744
-48.5768
10.1168
1.50142
-26.214
-36.675
12.4238
9.31289
-58.1021
-62.3323
-40.7718
11.0386
-6.27272
-17.562
-40.7986
10.5388
26.3313
-21.4712
-8.03065
-6.0123
-22.5649
-38.6197
-5.1949
9.29055
12.9852
13.4992
13.6915
10.8749
-4.30728
13.711
13.7277
14.5356
1.79075
-37.3079
-34.8246
11.6503
41.8932
-18.186
12.0628
-19.9278
6.46964
10.9768
-8.39293
-2.83703
11.1497
9.85695
-48.6941
14.1316
-32.8103
-68.0358
-37.7869
10.6326
-10.4703
12.6155
1.65558
1.68145
-16.7873
-38.0076
0.943597
-33.6441
-23.9517
61.5457
-21.3899
-55.0397
-27.3988
0.0728834
1.58084
-42.1838
0.71256
15.7278
0.118267
-47.6165
-38.8334
0.0413173
1.21561
-33.2781
-15.5509
-43.416
46.7255
0.462818
-7.76941
-58.0673
0.123663
23.1894
-27.6085
15.6857
-72.0607
-20.713
11.6404
0.352765
0.482241
1.19879
0.429209
1.78309
0.384485
0.471145
8.09193
35.7731
15.1693
25.7121
-23.1116
-11.646
27.4459
-2.57731
4.06522
-10.1872
13.8841
-70.2845
0.923742
1.20748
0.982803
-36.8706
0.932051
-70.3859
1.09244
8.20475
7.37216
-67.9316
51.6238
-29.9673
-22.2322
35.6429
-3.41919
13.2256
-8.41915
-24.7373
-27.8857
-27.6789
45.371
13.0852
-16.7887
-36.3756
-6.30653
-4.93198
-37.2488
-29.509
2.37337
-13.5073
12.9519
13.2358
-34.7747
-51.907
-0.795733
10.2142
13.1092
-65.4621
13.2734
-16.0078
-12.6791
13.2384
13.5101
-20.0126
3.00421
51.5004
-17.5326
4.6745
30.8582
27.6266
10.5248
-88.2805
-39.5858
-14.1241
-113.244
62.9881
13.5819
-29.7902
13.579
24.3564
-77.066
3.21862
-68.947
-41.2867
-2.48736
21.7398
-5.98762
13.4354
13.4663
16.4658
-21.0187
3.61412
0.148836
27.1462
0.352695
-2.57982
14.5641
-12.5358
-0.287574
-17.2988
16.5703
-60.0452
-38.0467
5.4118
-34.7818
-34.3499
0.13628
49.7344
-40.4495
-3.42762
30.484
-9.25416
-13.5238
-22.4205
-28.8371
8.12226
-42.8545
-20.0325
6.57827
-1.59641
0.52333
-22.7058
-4.7483
25.8748
-17.9651
1.30027
25.6347
0.801156
-55.7655
0.26366
0.261964
-7.4891
-21.9381
22.3836
-3.52035
-11.5612
-7.93288
-71.0966
0.166461
-12.1485
-61.5866
1.05379
-8.40154
59.1106
-6.07214
-21.7446
-60.1101
0.1774
10.4839
-0.0220877
-125.388
-32.7642
-38.7402
-32.4897
20.4338
-5.0423
-3.38383
-43.1543
-58.5317
-12.5212
0.556461
13.3027
1.27406
0.559775
3.00877
54.8281
13.7527
12.9737
-7.35156
0.572889
15.9865
13.8989
22.9558
13.4774
0.536174
23.1836
14.2631
11.1025
-13.5613
1.56974
12.5621
10.565
-9.73703
12.8134
0.529901
1.25847
11.3676
13.6994
13.5757
-67.7192
12.7945
18.5503
1.11029
0.283339
-26.6901
14.5543
13.9154
-63.2546
-56.3849
60.0858
15.4643
-66.1534
22.116
1.69447
-58.9515
8.05943
-62.5887
1.16223
1.26716
13.3585
20.3734
11.3869
1.2368
1.10928
1.53974
7.37545
9.62723
1.07247
-17.2708
0.922618
-11.6331
59.2377
12.7963
-45.3321
-13.2576
-70.8383
1.12289
11.6505
0.187342
14.2622
1.47714
12.8861
1.29841
-42.0415
-23.2647
-38.3284
-2.73373
-7.97263
1.39375
3.01297
-31.5415
1.63605
-51.842
-0.507371
-46.4301
1.85713
-58.6339
-87.3581
0.963195
0.0894823
-49.2415
0.262311
-50.1653
12.5312
2.0051
1.00601
1.12148
0.264366
-0.160533
-11.0689
-27.358
-6.40992
12.587
1.36836
12.6029
0.923204
12.5357
-48.1761
10.3213
-37.2643
2.38765
1.31102
10.1438
0.640845
10.2496
9.65546
0.176108
1.24663
13.3974
1.17585
-2.77894
1.18165
1.27704
-23.3975
-43.8352
-3.79826
1.05977
-35.8235
1.01547
0.658465
0.504356
0.475233
0.0284457
1.20762
12.7428
12.4604
1.03961
0.790638
42.4427
1.34783
1.12975
1.47899
-45.2997
1.22318
-53.9183
-38.3226
-47.9973
10.2102
0.309484
1.24928
0.152117
1.10079
-44.0261
-10.4205
0.947178
0.958503
1.26542
1.32368
-28.8663
1.32007
-0.0182344
-15.0813
0.708428
0.533116
0.338257
0.547477
0.346516
0.378483
0.580117
-10.5433
-14.63
-0.0224839
12.6403
-1.30185
-8.90001
-7.65733
0.682037
1.10473
-10.3552
1.47486
0.165984
1.52532
1.08603
-9.66498
0.028869
1.34919
0.68719
0.6872
1.67032
-5.30855
0.0504902
-50.0364
0.736039
-15.7681
1.39091
-0.0046867
-52.0333
0.0344379
0.864601
0.050066
0.904702
0.918287
0.828644
51.337
1.17331
-29.2633
0.983027
0.256855
1.6133
0.878021
0.629573
1.19668
0.521487
0.857704
0.305689
-9.39114
-10.5863
-37.45
11.0793
-11.5532
1.16323
1.26923
1.06141
-26.0921
0.191286
0.234858
0.172165
-54.5465
0.128599
1.48787
-0.0366142
0.247272
1.76074
-141.351
0.093235
1.4745
12.7506
0.0137942
-7.32852
27.6759
26.8103
0.0456126
7.72827
0.166945
1.13294
0.589287
0.282589
-53.1168
-55.969
0.100101
1.10252
-46.1932
-0.0766606
-2.73308
-21.8296
0.0716038
0.994399
5.40083
-0.0962486
-6.30473
0.0508603
1.42309
20.012
1.36567
0.0300587
12.7766
-22.8131
12.8248
-27.1572
-25.3722
-29.5793
-23.0221
0.51371
12.7506
-16.7957
12.8962
0.780967
16.7824
-35.5382
-24.7545
13.2038
-11.4186
13.1847
0.737381
1.44099
-29.3748
0.926382
0.482921
13.0079
13.0213
41.3474
44.8742
63.3107
-16.2839
28.6851
13.2213
15.2064
23.3458
13.0794
0.717889
0.217281
0.497933
-0.0767373
-29.4281
-28.7346
0.738475
1.99402
-1.62389
-64.8282
-2.22046
1.16114
0.785912
-25.9115
-54.3187
0.833553
-46.2537
-2.62219
-30.336
-39.574
-14.8083
0.269421
0.791721
13.7033
-55.5143
0.265555
13.8076
0.602148
0.153327
-57.5009
-56.1604
-61.0469
0.290973
-46.0784
16.8435
9.94839
2.62439
-15.3059
-65.9774
-64.7092
-26.9326
61.3654
-27.4437
34.7418
12.7052
-40.1635
13.3452
-58.2162
12.7411
-53.9974
12.6302
-25.3276
2.90079
-25.2152
13.2448
13.1725
2.71137
13.0195
12.8991
33.534
3.03604
13.1468
12.9082
-66.4215
-47.9908
-13.7772
-23.7961
-50.508
-23.3693
1.27095
15.3635
-41.64
-28.8444
-35.5507
14.2608
-61.6561
6.53254
-55.8173
-67.1977
-40.8998
-13.6588
15.6709
4.55219
9.83075
13.0605
1.86166
-30.0695
-0.330378
0.438094
1.76067
0.191926
0.134013
1.29919
0.403315
-24.2885
0.308191
0.159862
0.514541
1.60385
-19.5903
1.1753
0.0349454
0.259046
1.77907
-10.2067
-10.2651
0.736907
13.9104
-29.4224
-66.6806
-2.75243
-52.9435
-11.4777
-4.79824
-20.3678
37.6027
9.02547
8.86413
-6.81432
-0.00941938
0.154267
-1.24526
-0.0201639
-0.0988442
-0.929117
0.0126288
1.87844
1.88112
12.085
-6.04106
1.41666
43.9355
-0.0738782
13.0702
0.107822
0.00129601
44.2133
-50.9865
24.8477
-0.0232091
1.16464
-24.2334
-28.0364
-0.546448
1.42027
13.576
-11.3489
0.387373
0.136607
-14.5796
13.0029
0.0282095
14.1329
55.52
1.2779
0.763612
-13.0561
-0.95512
0.926786
0.859651
0.794416
12.8494
12.8717
10.9514
13.0065
13.3414
4.90363
3.7695
-3.97845
-56.0611
5.69929
-6.79252
12.9173
12.8045
63.3132
3.74532
1.18854
1.15271
-26.6699
-35.637
5.30898
16.6797
1.04168
29.8283
-5.0677
15.3939
-32.9989
48.5879
30.3682
-12.3934
3.48156
5.24088
-25.0242
-63.2184
-80.4579
2.16148
-10.3077
-65.1583
2.50205
-12.5971
-6.29897
-37.225
-28.2359
2.17254
16.2741
-67.9778
11.0344
-6.52497
2.80757
11.2548
-1.89095
15.2923
-1.37634
14.6872
10.4384
-39.689
5.65442
58.9953
-18.432
56.4418
32.9883
-69.9516
13.9161
13.958
-55.3703
-11.8405
-0.410509
-31.3597
-23.1791
-3.35104
2.3122
2.03943
-31.7938
-2.26734
7.35238
58.2765
-7.43772
13.4533
-5.80041
-17.2621
8.13425
8.26961
-32.3934
-30.5514
-28.1993
-29.211
0.661967
-16.1635
1.20545
-16.8473
-11.0248
1.79246
1.05396
-15.013
-3.62587
-28.8427
-28.7648
-0.451901
7.57785
0.845464
-11.1034
-21.0775
9.67449
9.35134
-15.7707
-28.303
9.68061
-7.01618
-28.5716
2.11083
-37.0647
-0.449664
-3.75187
-51.0413
2.13659
53.4328
-9.55354
1.2399
1.28726
0.433239
-66.9844
0.941729
0.962608
-4.27542
0.302368
11.3679
0.794592
-27.9286
11.9887
36.9444
12.3752
12.1367
11.9169
1.03661
-12.9385
-4.17985
-8.00818
-64.7463
-1.11334
-42.3816
-9.62451
-0.0337498
-60.2828
0.0447074
0.830847
0.885799
-7.26644
-54.4924
-23.3987
11.7676
39.3653
-8.90089
1.98214
-33.4992
-42.4414
-9.12398
-49.0424
34.5322
12.7216
-10.1799
42.2651
12.8229
-65.8369
19.8003
11.0046
49.7337
34.9892
12.7291
12.9586
61.6625
-44.6372
1.23961
55.0311
7.51815
12.9335
-9.01087
12.8224
-28.9551
9.51216
60.8548
13.013
13.1612
38.6259
11.155
18.7882
-6.99605
-2.28308
15.9335
-39.554
24.6977
-20.9555
-54.5715
-68.6512
-23.0615
13.2492
37.4364
14.7917
5.26008
8.9502
12.4832
12.7986
1.34921
1.31373
41.6619
-40.2516
13.0765
-26.3297
2.33804
8.56394
-16.7596
-66.5992
1.38437
-14.8876
13.7032
5.93093
1.21872
11.1525
-7.57448
1.49011
1.33389
-29.4617
3.16764
0.962907
-6.8829
11.0864
0.812201
22.5238
0.881745
-16.0979
28.3901
3.1551
16.7751
37.6931
-27.3115
57.8845
42.4155
-29.6874
-58.8648
-27.9589
-25.2733
-27.2221
-27.414
-25.2977
-21.7635
-31.741
-28.1756
60.2488
-1.21169
-54.5795
11.0539
-0.336598
-35.4029
-58.7851
-5.17285
-28.3772
-15.5107
-27.1015
-13.8975
42.5479
-41.767
-34.9503
-27.3903
24.9473
-26.9818
1.24009
-61.2772
23.8486
6.71087
1.29936
-0.810211
46.4989
9.27478
-25.1071
-10.0491
13.6302
1.23808
-6.3879
-24.4213
-30.2687
-1.4249
-3.7365
18.8216
-26.4822
-6.41457
1.35994
-21.0244
46.9942
-1.56449
6.01443
1.34026
3.24284
-38.0513
10.8663
8.43093
-2.29168
1.5004
5.77112
-1.48089
-2.10875
63.5919
3.73273
-19.7887
-5.66091
2.656
-66.3826
-65.4395
9.60396
9.90582
9.05236
11.9743
-22.2653
-8.58947
58.1114
-8.35522
11.7457
-18.5468
-2.26096
-5.01362
9.48549
-11.0859
9.48421
-18.8757
-28.3531
-44.6076
32.4374
-15.6947
18.2239
9.72735
-55.2379
-66.0381
33.4465
-60.9643
10.1503
-59.74
34.0284
-3.07302
19.9766
-14.9659
1.30027
0.372843
-6.7611
-12.4399
-38.2721
1.04987
9.56136
-93.4222
13.7636
-30.8983
13.6207
-0.769071
11.0853
2.50124
0.216998
0.255997
-4.46068
8.26876
2.21113
16.1855
0.590424
-55.4458
35.0758
12.0896
41.3505
13.0009
0.350484
11.9715
13.8117
31.271
0.642821
31.1825
1.51707
0.562083
-19.8615
0.975463
0.341645
-16.1688
-9.25103
-34.0574
-2.78055
34.1485
6.64334
28.3564
0.922968
19.7223
15.7471
1.09407
0.952485
0.467399
1.10676
58.2716
0.387617
-8.68834
-27.7822
13.0924
13.4502
15.905
13.3003
-21.8748
-30.2409
0.0882644
-2.92364
-2.85699
-12.9123
34.783
0.246388
-56.9712
-7.57478
-32.4674
0.705887
9.54054
-22.3319
13.1801
13.33
-18.5821
13.4449
1.32635
7.34747
-46.887
18.3153
55.5943
0.816214
0.55913
34.9868
7.5569
1.64049
34.7394
8.53622
-12.4809
37.917
-13.1243
39.7361
-54.6449
2.75693
13.8397
0.226691
-7.16541
0.445614
1.05212
-0.370945
0.252845
13.8452
-34.1065
5.30508
1.33168
-32.8712
1.16258
9.94495
13.3016
13.4329
25.0121
4.97572
2.34889
-5.88518
0.549253
-11.4683
13.1005
1.43049
-19.9847
60.2604
-18.7686
1.35859
58.7946
13.334
-63.8167
54.4038
-0.609569
5.34672
35.4451
13.4668
-27.2586
39.47
-27.3714
-5.13034
-27.0762
-14.6509
-40.4444
34.6631
-5.12914
60.9594
0.904771
-27.6585
-27.0051
-69.1222
-62.6397
-35.0016
-65.5301
-36.2066
-31.9354
57.6079
10.269
11.243
49.9097
24.2443
-43.9543
7.91205
-46.3477
45.5005
1.10352
11.5773
0.0476492
1.21579
0.889632
0.844286
59.0406
0.972369
0.959473
12.531
1.09977
1.03693
11.6348
-5.27787
1.04196
-6.49341
1.06846
7.87025
27.294
-45.0646
0.803949
2.43171
-5.06488
0.758269
-41.9817
-33.1917
-21.1557
1.32896
39.6092
14.5106
-1.45767
-4.6556
7.55287
4.87028
1.09064
12.5372
12.0599
-28.0112
1.07086
19.5251
-2.19513
3.56213
12.4512
-0.0846256
8.76882
12.6549
12.3446
-12.3283
12.0638
9.88901
51.9828
26.143
13.2106
23.3396
11.711
-0.313041
12.2301
1.33758
-2.57031
1.26473
5.97804
-0.03827
24.0153
11.7543
-15.7577
23.9896
0.207055
10.4927
28.7716
-12.6329
34.1464
-23.8573
-49.0138
-45.4173
0.815934
-0.00489438
-21.7155
35.3777
-7.42555
-1.3235
9.58085
1.97922
0.363051
0.0177978
10.2425
13.7153
30.0199
9.22792
2.11486
12.5085
12.0958
0.0837164
-34.6087
36.0532
-0.0515237
8.61449
-10.396
41.9238
13.5304
11.1004
-8.94064
-45.7983
-63.2159
12.7724
12.7075
-4.39637
-8.62597
-7.59293
-27.9567
32.7926
1.39435
1.28816
-0.54909
0.445577
19.1217
-16.7834
0.451487
0.415645
31.1203
0.466399
-5.70701
25.9028
-32.8657
-23.8689
0.660416
-9.60673
14.5798
0.0182577
0.829229
13.2489
10.0487
-4.1811
21.586
4.77774
-48.9538
0.918448
0.777911
-36.0101
-4.86633
14.3792
0.734065
8.50646
12.7817
61.1903
0.799387
-9.21977
-41.5434
-36.9537
-84.3804
-56.8722
0.812725
17.1819
47.3307
-0.0316176
9.40862
10.8568
-40.3525
13.9592
6.92663
-37.4588
13.5451
22.6883
-15.5664
9.8606
-38.3535
-63.7176
15.4957
19.5748
-47.7366
15.7611
11.6371
3.40057
14.9609
13.2549
2.21588
-32.4032
-5.33176
8.26172
14.8648
12.7575
13.6102
3.84197
0.0395566
35.8934
0.0417333
-6.94244
1.04143
37.0513
13.3269
-11.3109
5.4218
58.1396
-21.922
-26.8828
-44.9685
3.89953
-4.41091
-48.7424
-17.108
15.1491
-14.007
-4.742
0.0441817
-7.58869
12.6963
7.04186
4.57116
0.142874
0.322814
-17.7308
-3.5131
-10.5432
1.06107
0.930103
0.268922
0.622008
-4.68101
13.8983
-39.9272
14.219
0.587714
0.581217
12.2025
12.0502
13.0359
1.55084
0.61966
-7.18781
4.75492
0.661623
0.434592
-25.7199
3.64892
-7.45806
-44.9482
-27.3676
-35.5045
15.0792
-39.9723
18.4366
-27.9137
1.30467
-27.9809
1.05215
3.14861
0.862269
-3.88337
1.24355
3.88376
-1.19541
12.8249
6.37658
14.2444
-3.91136
-6.57725
-62.628
-27.8802
24.2082
34.7216
-37.3705
-28.2508
-30.5132
-62.5364
-27.5037
-7.00071
-27.9551
1.706
1.73674
-55.3925
-66.5079
-6.45081
0.59138
12.6212
52.5819
-3.02687
-66.2853
2.08065
5.49295
-1.43747
0.549738
-30.3431
1.40963
1.4
1.26334
2.7879
7.67081
1.14477
1.09751
-54.6006
-56.6619
-38.3075
23.0142
-36.3493
13.1669
0.960638
15.1316
7.2023
4.80827
22.1956
12.642
23.3241
1.26434
4.46851
5.99805
1.09611
2.84053
-10.842
9.60662
14.1813
9.53157
42.9214
1.72285
23.3656
-54.0441
-3.51606
-45.1163
39.8318
11.1881
10.0779
6.93834
-18.1343
-8.4309
11.9531
-36.6717
8.18904
7.69766
-3.34664
17.7238
10.2917
-4.23831
-13.7851
-18.6217
13.8328
-1.63246
-52.5937
0.433227
-43.775
-33.6526
13.7142
-68.1916
-4.75807
34.7198
-1.97682
13.6853
14.1618
17.5424
-5.1057
12.9465
-27.6841
-13.5696
-27.2232
-4.10217
-7.94762
17.5734
-27.1799
-19.3319
2.19311
1.40194
16.5645
-27.7055
7.85773
-0.152595
-44.413
0.756142
0.674281
12.397
-65.2515
-4.3684
-1.16559
1.16289
-0.858044
12.0177
11.5077
1.31684
12.0741
-16.8514
12.0969
-70.6388
12.3932
-36.2714
-28.6315
-7.25139
11.2501
-6.88883
0.612882
11.7181
-2.24059
0.984206
-7.04754
52.5927
0.165421
34.9554
-6.72592
0.0781707
-2.73292
0.231269
13.259
11.8369
13.0342
-7.87913
0.19564
12.5938
-1.6159
0.0230713
0.719578
-22.0145
2.38852
0.329064
13.3629
-34.0562
-35.6492
0.104615
-2.63582
0.747015
-29.9976
0.469346
0.383547
1.11399
0.295044
1.22095
1.16133
0.0378712
0.72315
12.0542
-32.3024
-21.9758
13.3518
46.1367
16.6398
13.0974
-0.0575601
13.7902
38.6367
0.0466497
34.6048
1.26976
0.139213
0.673672
26.5004
0.9227
0.0950884
54.9547
13.8722
28.0343
-8.10894
-12.2519
0.176006
-3.00648
-0.0390665
1.07284
2.88921
0.663424
50.6166
1.10704
0.622001
0.686047
12.6234
-38.1162
-19.4395
-3.30661
2.70444
1.13865
0.528506
15.6889
-27.7008
26.3079
17.5124
2.60738
0.535747
43.2454
-12.7103
41.1673
32.6242
12.3406
13.1983
0.361861
-5.43269
2.24295
-11.5449
-10.6947
13.2164
-63.339
1.34786
1.42695
1.08512
11.5031
1.13527
48.7305
-3.27027
46.582
1.26969
-64.5855
-9.27573
-12.528
1.01626
-42.2454
1.23556
29.2083
12.8647
32.7567
1.44723
-15.9392
4.49181
-44.1777
29.7278
12.7378
12.4439
0.0103836
-22.2938
12.2488
-71.9926
-23.8622
12.8015
34.4384
12.6635
-20.5502
43.9809
6.52384
-4.13214
43.5822
36.5622
2.03042
3.56063
-63.9325
43.386
10.2119
40.5154
-3.90925
-58.8794
29.5261
-1.18231
-0.0769821
0.290946
-0.0719054
1.30565
14.5952
-42.8658
0.489832
-32.1103
17.0265
39.1244
-10.9795
37.0073
-0.0898453
-0.0448419
-12.059
57.172
-16.5023
48.4436
16.8724
4.85839
25.2028
5.28262
17.6702
0.0351971
-0.0654892
0.0124715
-0.0174644
9.46629
-13.2245
13.981
-31.0472
1.92716
-37.6777
11.1051
-19.6112
45.5226
-1.46117
-1.08666
0.172403
39.257
0.0755659
23.3288
-1.05882
9.16536
-7.09611
0.969555
32.4099
36.7869
-12.0232
0.0930916
0.968364
-47.3855
-59.9559
-7.58963
52.2879
28.3344
55.1973
58.4023
44.9822
-43.4899
-0.784813
44.7617
-43.2284
-0.0105213
5.87785
0.064118
-25.5067
-19.1757
-0.936225
2.21256
-7.33777
-0.0260065
12.1214
-36.3031
41.9798
-42.3282
12.0223
-0.968045
10.6649
2.19691
-4.61147
-71.5598
2.756
-32.0906
-13.2149
12.4107
-69.0426
-61.0148
12.451
-9.50249
-11.4882
21.3734
12.4976
-12.1388
26.6474
-61.9749
-28.9923
-40.2282
39.9302
-40.2748
5.5498
26.2253
4.97551
-53.0882
-45.9
1.38941
0.436656
50.2712
-1.65025
-35.1185
-1.08184
-14.8777
-59.9745
-19.154
-28.5444
1.98234
-29.0385
0.333822
-28.665
14.3439
-20.1792
50.5468
-27.2982
21.536
-29.2168
-26.9846
-19.1557
-44.2174
34.2708
32.0149
-36.7041
11.592
24.0053
17.4822
6.71458
14.1437
-2.90511
-32.824
-78.7404
-38.6204
16.8305
20.831
-37.9619
24.3755
-28.6279
-13.7405
6.82857
5.84353
-36.6211
13.4319
-29.8896
14.9002
31.3573
33.4201
61.3837
30.7537
-26.7831
-54.7457
44.5688
13.415
37.7921
-46.3958
-28.3281
51.5746
31.283
-3.24746
22.853
22.5377
-42.4499
-31.1342
-62.662
16.9842
11.3834
36.9838
-53.3732
45.1128
29.7061
13.718
38.2108
-35.4683
3.00129
3.28508
13.6778
-10.8918
-58.8834
-28.2969
46.2593
-0.491572
-28.1688
-54.8831
43.1189
47.3665
39.9455
-42.9857
-92.4747
46.0212
-26.9879
-55.2847
47.2663
-0.761335
-8.53284
13.2528
1.2977
1.49765
-6.66585
44.7985
-27.0341
1.3215
1.76928
1.45196
2.01666
0.798766
6.13286
-31.9473
-3.58026
1.27979
-52.9928
-72.0836
-27.624
-17.6937
0.11451
-16.3039
-31.1664
-39.3825
1.30365
-36.5867
-0.761569
-35.0458
-27.1694
44.1187
20.0315
27.2987
-0.00277331
5.7712
-67.41
-23.7582
-8.28937
-52.7665
0.00793395
-56.8827
-39.8448
-23.7693
-39.8422
-3.41042
16.871
12.6938
15.9602
11.8896
43.7372
0.0850776
-0.0341748
0.147163
15.5928
-12.852
-58.2259
-51.2992
16.8615
38.1928
25.0463
30.3498
1.185
-59.104
-4.56098
13.6214
5.17991
0.0905235
19.885
8.58181
-12.5732
15.6511
-9.60356
-8.34018
-5.18094
18.0647
37.0273
-29.5558
53.8939
-32.3411
20.0528
-72.3431
-53.3935
-8.94804
15.6891
34.9574
-7.60911
-41.7484
7.42763
15.4114
-18.4055
-28.9663
16.9585
47.6807
60.4559
-61.3721
-1.21523
-56.9342
15.3825
1.94834
-9.37122
11.6843
8.11214
-15.9342
4.34103
9.21188
-39.3732
-7.52077
-27.4888
-14.5611
-31.2804
0.139328
12.9873
-71.8829
-15.7798
0.0207488
61.4927
13.293
46.7408
11.8857
-20.1625
17.9222
2.17518
34.532
55.9612
16.399
34.6214
-0.110514
-46.5469
13.4823
13.303
-0.999338
7.26337
-34.3126
-3.26835
-6.895
13.6418
4.62593
-20.9455
5.92973
10.5501
-5.80287
-11.4775
-26.6894
-0.0630017
14.6408
-0.0126606
15.2878
0.00119459
-18.1066
13.3097
-21.6164
12.6638
-33.0613
-0.0556731
34.6751
-8.77525
36.227
0.0177846
8.76385
-0.0552925
-0.0150321
-4.52225
7.52643
17.8253
34.6639
31.1196
-35.5774
-52.3099
42.8028
25.0313
22.2015
6.24186
-0.0098138
0.219677
-71.3838
44.2695
19.4903
15.3544
0.0731445
19.4045
0.162268
0.0950306
-20.0132
-22.5241
-35.8966
-36.3092
8.106
2.27679
-6.61662
13.2636
43.3929
11.7213
-12.782
11.7074
-5.86898
-74.7498
-15.1776
0.316442
4.77017
-7.77878
-5.30597
-36.9841
13.492
-36.2135
24.0703
-72.0213
-30.246
-26.388
0.307804
22.624
3.35806
13.5625
35.7076
13.6189
-9.55386
11.6027
12.4514
9.55431
13.5167
-38.0775
19.1099
5.34685
43.689
12.9605
-21.3125
13.7116
13.6291
-29.0603
-73.6698
-28.231
-28.7331
-28.6664
10.4753
59.2012
-27.7202
-4.42648
12.4719
20.1387
-28.8407
0.646097
0.648294
11.5097
-22.158
-29.5272
-45.4733
31.9636
-0.960353
1.25087
3.96728
-30.5328
28.6244
10.5181
-54.2665
-28.8689
-28.341
60.7552
14.8307
11.2061
3.03874
14.9086
-58.9493
17.5057
11.8257
19.7374
-1.15587
18.0367
23.3425
45.0413
36.4661
11.2629
-15.6531
22.8862
-8.78749
0.715683
0.626524
31.5975
-29.6897
-14.1084
0.596694
56.1345
0.626179
-30.7565
31.307
21.4066
39.584
-27.9245
-23.0583
-28.4931
32.0629
-10.9002
-29.7667
-7.98252
11.9746
2.04577
14.7851
0.992697
15.7587
0.821638
12.0538
0.99713
-11.2291
0.350932
35.2504
3.19199
5.04006
-25.3765
8.83356
1.4012
10.033
-5.59318
-37.4221
-48.5098
-20.0331
5.31803
37.1774
1.34549
58.9055
-43.1962
59.2789
52.8214
1.17842
4.43985
6.05005
1.07578
1.23108
-87.5271
11.1277
-31.2612
-12.9653
5.35658
1.29575
-26.5615
6.71814
6.65326
10.2656
7.41996
1.14152
-38.5358
-3.36543
1.37491
-10.6463
1.72709
1.12038
1.61056
1.34058
-5.61132
7.15144
-54.6296
1.18101
1.40796
-10.6397
-6.17434
23.6702
-17.9665
12.8883
12.7762
-0.0636895
0.283396
-8.99599
-16.0942
8.88572
0.162302
-1.67512
9.99705
0.106834
57.4444
0.107966
2.91719
0.148934
0.00133778
-27.7683
0.0101877
-27.9913
-5.03797
52.6102
4.7808
-0.275099
-3.73159
-0.237652
-3.46251
-41.3347
1.99359
0.112436
7.51261
-27.9681
0.0899389
7.96741
28.5292
42.7015
-9.98345
9.74299
9.66714
-44.1088
-23.328
0.0554195
48.3568
-58.5119
-21.0333
-7.57185
49.9196
-9.11967
-9.54592
32.4005
-64.9709
-1.93002
0.134108
0.0523271
0.00622487
0.00186604
-0.00178067
-32.1932
17.965
-0.0132305
-54.1658
0.582795
0.141461
-8.9861
3.25524
15.9923
-47.2688
6.33159
16.3144
-25.515
1.79126
15.8774
59.5695
15.5106
-46.7947
41.3143
18.045
33.1736
0.330504
44.185
0.638236
6.33199
24.4076
0.13584
-44.397
-24.3241
0.741636
0.742759
-137.487
18.8964
-28.6511
1.22288
-1.96757
1.21436
13.8455
21.3745
48.5301
13.8538
55.2489
13.8228
-81.7353
-26.5893