/*--------------------------------*- C++ -*----------------------------------*\
| =========                 |                                                 |
| \\      /  F ield         | OpenFOAM: The Open Source CFD Toolbox           |
|  \\    /   O peration     | Version:  2506                                  |
|   \\  /    A nd           | Website:  www.openfoam.com                      |
|    \\/     M anipulation  |                                                 |
\*---------------------------------------------------------------------------*/
FoamFile
{
    version     2.0;
    format      ascii;
    arch        "LSB;label=32;scalar=64";
    class       surfaceScalarField;
    location    "0.0502279";
    object      phi;
}
// * * * * * * * * * * * * * * * * * * * * * * * * * * * * * * * * * * * * * //

dimensions      [0 3 -1 0 0 0 0];

oriented        oriented;

internalField   nonuniform List<scalar> 
92401
(
0.147516
-0.0961069
-0.00704662
-0.044363
-0.0624072
0.0600801
0.0376723
-0.0353452
0.0224252
-0.039923
0.0431389
-0.0256411
0.00651538
-0.0128847
0.0127106
-0.00634122
0.0013808
-0.000493688
-0.00585713
0.00497002
0.0195413
0.00976302
-0.0254807
-0.00382355
0.00567888
-0.00467538
0.0003773
0.0324218
-0.0256886
0.012808
0.0480884
-0.0386448
0.0324492
-0.0418928
0.000395037
-0.000943093
-4.90691e-05
0.000597125
0.00467817
-0.04179
0.0383341
0.0241519
0.0244152
-0.0869012
-0.0170867
0.0109105
-0.00013479
0.006311
-0.0345396
-0.040325
-0.0172174
-0.0176493
0.0586684
-0.0238017
0.00213706
-0.0662574
0.0641204
-0.00235137
-0.00771442
0.00199926
0.00345152
0.00226364
-0.000949102
0.00150047
0.000255759
-0.000807126
-0.00482332
0.0105658
3.99255e-05
-0.00578239
0.0162813
-0.00577339
-0.0048641
-0.00564382
-0.040778
0.00830178
0.0370332
-0.00455695
-0.0393041
0.0108849
-0.0548389
-0.0544035
-0.00275928
0.0553046
0.0018582
0.0906981
-0.0895192
0.0221931
-0.023372
0.0499633
0.0601066
-0.071258
-0.0388119
-0.0325252
0.0511983
-0.0579771
-0.00267082
-0.0010377
0.00395715
-0.000248632
0.0315911
-0.0636714
-0.000444942
0.0610913
-0.0606618
-0.0322544
0.0318249
0.0126372
-0.0173477
0.00126702
0.00344351
-0.035794
0.106267
0.0615168
-0.13199
-0.0846941
0.107536
0.00896409
-0.031806
-0.131153
0.0322135
0.0296289
0.0693107
0.0148263
-0.0617702
0.0370519
0.009892
0.0598678
0.00932493
-0.0543665
-0.0442689
0.0103184
0.00230441
0.031646
-0.0504151
-0.0411765
0.0654833
0.0261082
-0.0332813
0.040472
-0.0139946
0.0068039
-0.0197664
-0.101858
0.0647921
0.0568324
-0.0862886
0.0862419
4.66883e-05
0.0343633
-0.00684163
-0.0762904
0.0487687
0.00461597
0.023407
-0.0231195
-0.00490348
0.0268849
-0.0503992
0.0235143
0.00012905
-6.63136e-05
-4.89133e-05
-1.38235e-05
0.000686072
-0.0586102
0.0579242
-0.068567
0.042809
0.0624846
-0.0367266
0.0901224
-0.0254427
-0.0127773
-0.0519024
-7.55137e-05
0.07028
0.000114539
-0.070319
-0.0476445
0.0731183
0.039687
-0.0651609
0.000538348
0.00107887
-0.000371324
-0.00124589
-0.00229142
-0.00348107
0.000328509
0.00544399
-0.0381898
0.0839214
-0.0461641
0.000432556
0.000319644
-0.000789963
-0.000649353
0.00111967
-0.0546901
0.0544103
0.000279829
0.0752617
-0.00791169
-0.0184311
-0.0489189
-0.0979678
0.0907777
0.0050239
0.00216623
-0.0552601
0.0276311
0.0110728
0.0165561
-0.00288224
-0.0154238
0.00750493
0.0108011
-0.0124501
0.0258384
0.0374391
-0.0508274
0.000920187
-0.000310754
-0.000289788
9.97425e-05
-1.75157e-05
0.000714779
-0.000797006
0.000901622
0.000221539
-0.00069466
-0.000428502
0.00418742
-0.00924748
0.00514747
-8.74128e-05
0.0679075
0.00506265
-0.0172011
-0.0557691
-0.0150733
-0.00469452
0.0104755
0.00929235
-0.0410297
-0.0529327
-0.0547484
0.148711
0.00341609
-0.0339061
-0.00415277
0.0346428
-0.000405751
0.000560175
0.00062203
-0.000776454
0.00458902
0.00442359
-0.0282838
0.0192712
0.0187823
-0.00668596
-0.00955494
-0.00254144
0.0417489
-0.0763676
-0.0273842
0.0620029
-0.0287845
-0.00325988
0.0103373
0.0217072
0.0122217
0.0080759
0.0129959
-0.0332934
-0.000653869
-0.000370872
-3.24701e-05
0.00105721
0.0252306
-0.00973248
0.0365645
-0.00100057
0.000642565
-0.00115075
0.00150875
0.0443647
-0.0330319
-0.0683712
0.0570384
0.000589988
-0.000314282
-0.000275706
-0.00109772
-2.90112e-05
0.000564603
0.000562129
0.000803036
-0.000258485
0.00062683
-0.00117138
0.0225574
-0.0224799
-0.0626291
0.0625516
0.00119497
-0.0127228
0.00273564
0.0087922
0.0430164
0.0584819
0.0185688
-0.120067
-0.115681
0.0266447
0.127945
-0.0389082
-0.00539683
-0.0442132
0.003781
0.045829
0.0538606
-0.0291511
0.0256363
-0.0503458
0.0248478
-0.00344574
-0.15176
0.130358
0.00724525
0.0175284
-0.0277937
0.0030201
0.000694884
-0.000230086
-0.000714817
0.00025002
0.0379031
0.0127976
-0.0014896
-0.0492111
-0.00240264
0.0841025
-0.0855313
0.00383145
-0.0180354
0.049821
-0.116129
0.084343
0.042125
0.00534444
-0.0528662
0.0421782
-5.32569e-05
-0.00233576
-0.0290955
0.0414697
-0.0100385
0.0708765
0.0170415
-0.0314089
-0.0565091
0.129348
-0.14261
-0.0283521
0.0416143
-0.0151709
-0.04525
0.0580852
-0.0821851
-0.000675213
0.0828603
0.00111673
-0.0979208
0.163427
-0.0666233
-0.00249582
0.00338414
-0.000595904
-0.000292422
0.0889919
-0.148166
0.030834
0.02834
0.00153469
-0.000366399
0.000860028
-0.00202832
-0.0867235
0.142911
-0.103921
0.0477337
0.0302901
0.00306543
-0.0404671
0.0071116
0.0866705
-0.0157831
-0.0808352
0.00994779
0.00570813
0.0313252
-0.0522043
0.0297006
0.0267699
-0.128386
0.0719158
0.086475
0.112958
-0.0797729
-0.11966
0.000983097
0.000332886
-0.00234344
0.00102746
-0.0938949
-0.0293489
0.111642
0.0116023
0.00111141
-0.00604375
0.0158596
-0.0109272
-0.0139198
-0.0336103
0.0576164
-0.0100863
-0.005461
0.0169475
-0.0143593
0.00287283
0.000371704
-0.000687006
-0.000568673
0.000883975
0.0216214
-0.0259118
-0.00117055
-0.00185148
-0.000706332
0.00151381
0.001044
-0.0575033
0.0603435
-0.00284023
-0.00252556
-0.0062502
-0.00203652
0.0108123
-0.0363763
0.028009
-0.00555261
0.0183373
-0.0472351
-0.0557964
-0.0513177
0.0415895
0.0983288
-0.0886006
-0.00757892
-0.00172537
0.0050293
0.004275
0.0469355
0.0111207
0.00232622
-0.0603824
0.00038557
-0.0093395
0.00682442
0.00212951
-0.0396505
-0.0535888
0.0116809
0.0815584
0.064706
-0.0388767
0.0266286
-0.052458
-0.00973363
0.0599824
-0.0589483
0.00869952
-0.0588601
-0.0338404
0.00779446
0.0849061
0.0163356
0.00504874
-0.0331561
0.0117718
0.0605397
-0.0612135
0.000673785
0.00184543
0.00180111
-0.00144895
-0.00219759
0.0407138
-0.0434045
0.00269068
-0.0566067
-0.0343503
0.104973
-0.0140162
0.000847456
-0.00982421
0.00965656
-0.000679807
0.00293226
0.00595014
0.00265382
-0.0115362
0.00184369
0.00632173
-0.00777985
-0.024983
-0.0577057
-0.00894386
0.0916325
0.0259165
-0.00766134
0.0177288
-0.0359839
-0.0840133
0.0925125
-0.101267
0.0927675
0.0795356
-0.0521462
-0.0273894
0.00152901
-0.0346036
-0.0101432
0.0432179
0.00828028
-0.00559021
-0.00933896
0.00664889
0.0466708
-0.0703439
-0.0619688
0.0856419
0.0740335
-0.0647098
0.0293565
-0.0386802
-0.0133779
-0.00816937
0.0318224
-0.0102751
-0.0581954
-0.0868501
0.0570494
0.0879961
-0.0416724
0.0543581
-0.0111566
0.0977003
-0.0482967
-0.0494035
-0.00443372
0.0151371
-0.00242314
0.00099447
0.00067619
-0.000712192
-0.000958468
0.0473546
-0.0158079
-0.00525034
-0.0262964
0.00364181
-0.00187284
-0.000488419
-0.00128055
0.00546292
-0.010184
0.00873991
-0.00401885
0.0725962
-0.042226
0.0256401
-0.0560103
0.00872934
-0.000361278
-0.00684051
-0.00152755
0.00167204
-0.000599578
-0.00107247
-0.0648685
0.0645645
0.000303965
0.0123056
0.00543418
-0.0968547
0.0791149
-0.0114615
0.0142615
-0.0103082
0.0075082
-0.0725568
0.0162305
0.0832185
-0.0268923
0.0180958
-0.097184
0.0756751
0.00341316
-0.0527111
0.0431113
-0.00831891
0.0179187
0.00881875
-0.00180614
-0.00298701
-0.00402559
8.08326e-05
-0.000904865
0.000824032
0.0285332
0.170474
-0.245271
0.0462637
0.000320377
-0.00017121
-0.0247507
0.0602742
-0.0526869
0.0171634
-2.8398e-05
0.00522506
-0.0044085
-0.000788161
0.000387783
0.00165741
-0.00230367
-0.0709349
0.00061057
0.0703244
-0.0323863
0.113801
-0.0477546
-0.0336598
0.000460004
0.000596527
0.00951103
-0.0105676
0.000581934
0.0905354
-0.0911173
0.00238044
-0.00164111
-0.00119914
0.000459812
0.00135371
0.000673076
-0.000690714
-0.00133607
-0.0365803
-0.00164397
0.0323901
0.019027
-0.0638672
-0.0724392
-0.0164745
0.00664582
0.0822679
-0.000609477
0.00196318
-0.0998316
-0.042085
0.112701
0.0292157
0.0274009
0.169866
-0.084768
-0.0575228
-0.027575
-0.0180253
0.119023
-0.0434341
-0.0575631
0.0397777
0.0300245
0.0384576
-0.10826
0.104811
-0.248787
0.109328
0.0346484
0.00161092
-0.00143419
-0.00140171
0.00122499
-0.0122773
-0.0355404
0.0557461
-0.0079284
0.0256124
0.0403442
-0.0259956
-0.0399611
-0.0353521
-0.0258131
-0.0197646
0.0809298
-0.0534121
-0.0138909
0.0550257
0.000954517
-0.012132
0.00884832
0.00232915
0.0553735
-0.0284453
-0.0508468
0.0239186
-0.0891664
0.105143
-0.0500739
0.034097
0.0163419
-0.0231751
0.00701134
-0.000178148
0.0517864
-0.0600562
0.0636433
-0.0570136
-0.00353283
-0.0137947
0.0743411
-0.00539328
-0.0129062
0.00234179
0.0159577
0.000248748
0.0580631
-0.0576221
-0.000689791
0.135567
-0.0536461
-0.00291271
-0.0790082
0.0594745
-0.00755896
-0.0483203
-0.00359533
0.0518979
-0.0210495
-0.0739615
0.0431132
-0.00979857
-0.00194966
0.0149473
-0.00319909
0.00534452
-0.0016119
-0.00478094
0.00104832
0.0024636
-0.0436679
0.0402839
0.000920431
-0.000847185
-0.0862536
0.00344451
0.0195317
-0.0129883
-0.0632735
0.0467651
0.0165084
-0.0595487
-0.0170373
0.0109781
0.0656079
-0.0992018
-0.000942267
0.103252
-0.00310742
0.00369543
0.0234725
-0.0126854
-0.0144825
-0.0712304
0.149812
-0.0660186
-0.0125626
-0.00493106
0.0136031
0.0225925
-0.0312645
-0.0514922
0.0989148
0.038742
-0.0861646
0.0286243
0.00190669
-0.0147089
-0.0158221
-0.0360585
0.03762
0.000902131
-0.00457416
0.00723639
-0.00966964
0.00700741
-0.000339973
-0.00447489
0.0102778
0.0358819
0.0380925
-0.0739744
0.00110891
-0.00188466
5.08658e-05
0.000724886
0.0194087
0.00836035
-0.0187818
-0.00898727
0.0220171
0.0113272
-0.00222218
-0.0311221
-0.0519426
-0.00136675
0.00673245
0.0465769
-0.000108544
-0.0435593
-0.000953752
0.000570941
0.00149172
-0.0517707
0.0369166
0.0520272
-0.037173
-0.044814
0.0301744
0.0183808
-0.00374113
0.00132571
-0.00337708
-0.00986681
0.0119182
-0.00925727
-0.00505857
-0.00334562
0.0176615
-0.0433553
-0.00480894
0.0121057
0.0723536
0.039628
-0.0719464
-0.0400351
-0.0445466
-0.000444933
0.0449915
0.0862111
-0.0486734
0.0595626
0.00360729
-0.00773214
-0.0374089
0.0415337
0.0358679
0.0114367
-0.00556473
-0.0417398
-0.000480453
0.000309045
0.00100677
-0.000835361
-0.0168632
-0.0448944
0.0617576
-0.000263024
-0.00131515
-0.00431835
0.0309941
-0.0230684
0.00613955
0.0279273
-0.0417989
0.0979331
-0.0907661
-0.00202345
-0.00514348
-0.0212936
0.10117
-0.0186909
-0.0611857
-0.0323225
0.00680715
0.0147829
0.0107324
-0.0393625
0.0360639
0.0142281
-0.0109296
0.0325635
-0.0251265
0.00134525
-0.00878232
0.0187761
0.0719978
-0.121328
0.0305541
0.0762818
-0.0752427
-0.0243053
0.0232662
-0.143214
0.00215698
0.00362608
0.137431
0.0305087
0.0123185
-0.0411766
-0.00165058
0.039838
-0.0578891
0.0203982
-0.00234715
0.00211589
-0.00123676
0.000239217
-0.00111836
-0.0146191
-0.00121409
0.0733946
-0.0416419
0.018809
-0.0505617
-0.0117843
0.0477456
0.000429861
-0.0363912
0.00531392
0.0955049
-0.0929
-0.00791883
0.0494639
-0.0989959
0.0582513
-0.00871933
-0.0484175
-0.000373272
0.0370065
0.0151933
-0.00371541
0.00864838
-0.0201263
-0.0234241
0.0477959
-0.0133144
-0.0110574
-0.0484167
-7.66312e-07
-0.0054319
-0.122854
0.175841
-0.0475556
0.0101953
0.00969547
-0.0635006
0.0436097
0.0495778
0.00550596
-0.0448884
-0.0127241
0.00673624
-0.00360887
0.00959675
-0.0559925
-0.000606903
0.0565994
0.110294
0.0444329
-0.136512
-0.0182155
-0.00917199
0.000383197
-0.00393533
0.0185262
-0.116076
-0.022405
0.119955
0.0126043
0.0665002
-0.069409
0.00289912
-0.0557566
-0.010643
0.000487341
0.00188586
-0.00263623
0.00199821
-0.00181391
0.000303033
-0.0506635
0.0257743
0.0740544
-0.0491652
-0.00194127
0.000979293
0.000932965
-0.0342809
-0.0076985
0.0448785
0.000247597
-0.000303005
0.00034418
-0.000902323
0.000114585
0.000443558
0.000136454
0.00210936
-0.00176336
0.00141206
0.000112994
0.000238313
0.000450654
-0.000277047
0.00074658
0.105704
0.121125
-0.0793129
0.000115922
-0.00082465
0.00115938
-0.0529425
0.052942
5.0755e-07
-0.0106759
0.0760736
-0.0713905
0.00599283
0.00181758
-0.0195482
0.0051959
0.0125347
-0.0603982
-0.00322027
-0.0171803
0.00397923
0.0476204
-0.0344193
-0.0638925
-0.00251977
0.0664123
-0.00649737
-0.0167114
-0.0128048
0.0360136
0.000302208
-0.000369767
-0.000505812
0.000573371
-0.00401985
-0.00735452
0.00901218
0.00236219
0.0549847
0.0439064
-0.017508
0.0480181
0.0894029
-0.0381172
-0.0993039
-0.0126664
-0.044437
-0.0198125
0.0192129
-0.0549341
0.0555337
-0.0107763
0.0292728
-0.0066371
-0.0118594
-0.0151053
-0.0135619
0.0136471
0.0150202
0.0972095
-0.0953674
0.0189722
-0.0208144
0.00111027
-0.00436309
-0.00035549
0.00360832
0.00106629
-0.0661009
0.0650346
-0.0725613
0.00343859
0.0666777
0.00244501
0.0390956
0.0383167
-0.0774123
0.0190127
-0.0601716
0.0284926
0.00210043
-0.00121283
0.000580488
-0.00146809
0.00019445
-0.00033291
0.00135725
-0.00121879
-7.54888e-05
0.000423734
-0.000983489
0.000635244
0.0634846
0.0563905
-0.0389429
-0.0809322
0.00566212
-0.0869205
0.0824416
-0.00118325
-0.0135888
0.000364367
0.026602
-0.0133776
0.0535125
-0.0527428
0.0190493
-0.019819
-0.000517604
0.00135832
-0.000679522
-0.000161193
0.0203597
0.047839
-0.0491861
-0.047047
-0.001746
0.000913105
0.00155184
-0.000718945
0.00111742
0.0800155
-0.081133
-0.0499306
-0.0153257
-0.0221697
0.087426
-0.0500063
7.57501e-05
0.0116586
0.0167887
0.0167704
-0.0452178
0.000523109
-0.00279093
0.000343874
0.00192395
-0.0017149
-0.000646896
0.000615797
-0.106208
-0.00886645
-0.0430166
0.158091
-0.00988893
0.00703135
0.137345
-0.134487
-0.0383623
0.0419955
-0.0648523
0.061219
-0.0789283
0.0787607
0.000167657
0.00135781
-0.0500791
-0.0304864
0.0668025
0.0194423
-0.00588414
-0.0803607
0.0503389
0.0944858
-0.156615
0.0117904
0.0414803
0.0159868
0.0332007
-0.0906678
0.104222
-0.108475
0.0433485
-0.00351567
0.0130958
-0.0118404
0.00226026
-0.00179279
-1.84303e-05
-0.000669526
0.00248075
-0.00284711
-0.00558944
0.00166528
0.00677127
0.0607258
-0.00606609
-0.0182921
-0.0363677
-0.0567455
0.0282241
0.0285214
-0.0925951
-0.00786693
0.0122515
0.000528041
-0.000513177
-0.00180766
-0.117717
0.0265141
0.00490073
0.0863019
0.00129602
-0.0537398
-0.0100553
0.0624991
0.04544
0.0291224
-0.101371
0.0268088
0.0381814
-0.0437973
-0.018861
0.0244769
0.0481241
-0.0602881
0.0503454
0.031108
-0.0559246
0.0496141
-0.0247975
0.0346058
-0.0359865
0.00022797
0.00115276
0.0162457
-0.141946
0.0910103
0.03469
0.00137618
-0.0615118
-0.0037469
0.0523221
0.000418175
-0.108
-0.0338081
-0.00884993
0.00668752
0.0359705
-0.0487243
0.0444294
0.0501992
-0.0459043
-0.0425789
0.0824021
-0.0398233
0.0105768
-0.102317
0.0479429
-0.0169194
0.00757481
0.0244526
-0.015108
-0.0885389
0.0937218
0.0365062
-0.0416891
0.058483
0.0328066
-0.0829281
-0.00836154
-0.046789
0.141783
0.00417752
-0.0991719
-0.000541669
0.00299366
0.00358727
-0.00603925
0.0537521
-0.0720775
0.0829289
-0.0646035
0.00823323
-0.0395247
-0.00827663
0.0395681
-0.0435818
0.0316678
0.10295
-0.0910365
-0.0499972
-0.0264521
0.0529094
0.0235399
-0.00982728
-0.000349399
0.0062638
0.00391287
-0.0104659
0.0224034
-0.0182165
0.00627901
0.000206273
0.0737521
-0.0739583
0.0149117
-0.0441862
-0.0194498
0.0483787
-0.0340741
-0.000967447
-0.0133372
0.00142348
-0.0258503
-0.0204321
0.0448589
0.0346829
-0.0346311
-5.18333e-05
0.0612282
-0.0417081
0.0642456
-0.0837657
-0.0996389
0.0977405
0.099108
7.51513e-05
-0.0108237
-0.00179177
0.0125403
0.0495946
-0.000244226
7.23873e-05
9.33002e-05
7.85386e-05
-0.000324535
0.0476519
-0.110392
0.0630646
-0.00858744
-0.000596655
0.00497788
0.00420621
0.0268853
0.00996131
-0.0368466
0.00120449
-0.000965764
-0.00882617
-0.0332817
-0.0335889
0.0102639
0.0572272
0.00096888
-0.058196
0.0728446
-0.0441343
-0.0511886
0.0224784
0.00164552
-0.0250411
-0.0208732
0.0693909
0.0430264
-0.0395728
-0.00800975
0.00928939
0.133736
-0.119558
0.0361646
-0.050343
-0.0450172
0.0365043
0.0218941
-0.0133812
-0.0525399
0.0525779
-3.80559e-05
-0.0477814
0.0296491
0.0107667
-0.0469385
-0.0108363
0.0470081
-0.00245022
0.160701
-0.160354
0.00210304
0.10764
0.0159511
-0.0160546
0.0508415
0.00863453
-0.0512746
-0.0082015
-0.014444
0.00465695
0.0106389
-0.000851824
-0.00954424
-0.00534167
0.00470855
0.0101774
0.0659601
-0.0375375
-0.0526694
0.0242468
0.0297017
-0.0156171
0.0239659
-0.0380506
0.0266996
-0.0933579
0.0894427
-0.0227844
-0.0058389
0.000428315
-0.00903342
-0.0943312
0.107125
-0.0232791
0.0104851
-0.0114003
0.0479682
0.0138976
-0.0504654
-0.00427583
-0.000374967
0.00323572
0.00141508
0.0837262
-0.00480775
0.050773
-0.129691
4.73901e-05
-0.000708686
-2.06058e-06
0.000663356
-0.0666538
0.0586652
0.0740081
-0.0660195
0.00348826
0.00100459
-0.00229584
-0.00219701
-0.0781167
0.0758481
0.00226851
0.0626883
-0.0594426
-0.00324567
0.0605187
-0.000685968
-0.0598327
-0.0109165
0.123575
-0.000639074
-0.112019
0.00992636
-0.031161
0.0328933
-0.0239203
-1.19518e-05
-0.0562125
-0.0676366
0.0117016
0.0664742
-0.0105391
-0.0132276
-0.00215552
0.000280097
-0.000590118
-0.000116231
0.000426252
0.0011859
-0.000130123
-0.000246913
-0.000808866
-0.063426
0.00761018
-0.00136706
0.0571829
0.000413389
-0.00544967
0.00189392
0.00314236
0.0121151
-0.0146337
-9.60078e-06
0.00252824
0.00818101
-0.00675371
0.0106878
0.0556269
-0.00923281
-0.0227798
-0.0236143
0.0360855
-0.00532029
-0.0363192
0.00555397
0.000169849
0.0669976
-0.000326385
-0.0668411
0.00769846
-0.0718455
0.0192708
0.0448762
-0.0429231
-0.0319702
0.041838
0.0330552
-0.0354044
0.021159
-0.0907163
0.104962
-0.000904417
0.015166
-0.00781516
-0.00644638
0.0491189
-0.0590285
0.0474637
-0.0375541
-0.0625005
-0.00681217
-0.00817632
0.000800209
-0.000206286
0.00432901
-0.00492293
-0.0119869
-0.00277487
0.00175851
0.0130033
-0.00808439
-0.0092408
0.0107854
0.00653977
-0.000138552
-0.0022083
0.00140543
0.000941415
-0.000390392
0.000485711
-9.53195e-05
0.00166886
-0.0728611
-0.0269478
0.09814
-0.000153511
-7.3298e-05
-0.00140505
0.00163185
0.000127588
-0.000400685
-0.000117295
0.00222572
-0.0661183
-9.37191e-05
-9.87592e-05
0.00067819
0.000630174
0.000120461
-0.000403412
-0.000347224
-0.028141
0.0637526
0.0779311
-0.113543
-0.00910536
-0.00223242
0.00723442
0.00410336
-0.0145324
-0.000261725
0.00568875
-0.00525938
0.00548251
0.0130715
-0.0132947
-0.000542815
0.0007671
-0.000318004
-0.0658541
0.0665861
-0.000731991
0.0303532
0.0470248
-0.0599892
-0.0173888
0.0115928
-0.0755383
-0.0212378
0.0851833
-0.0134658
0.00276684
0.00543955
-0.00455511
-0.00638571
-0.00252494
-0.0165496
0.0582254
0.0129445
-0.0546202
0.0690789
0.00472973
-0.0536386
-0.02017
0.000173869
0.000426039
-0.000773137
0.000173229
-0.000144895
-0.000270332
-0.00265053
-0.00117301
-0.00130342
0.00512695
0.065108
-0.045936
0.0120409
-0.0312129
-0.000817751
-0.00267529
0.00140133
0.00209171
-0.0162707
0.00999853
-0.0036158
0.00988793
0.00175881
-0.101459
0.101048
-0.00134754
0.00308796
0.000769209
-0.0105139
0.00665669
0.010074
-0.0106692
0.00162044
-0.00102522
0.00988332
0.00392938
-0.0107247
0.0368195
0.0562387
-0.0279502
-0.0272779
0.0548044
0.0281934
-0.05572
0.027753
-0.0550309
-0.000472349
0.000356352
-0.0331653
0.0124725
-0.0100457
0.0792161
0.0231802
0.00769599
0.0693373
-0.0542536
0.0981037
-0.113187
0.00479378
0.0926266
-0.0974204
-0.00692893
-0.00705442
0.0134246
0.000558707
-0.0342531
-0.0869411
0.0275062
0.093688
0.0220604
0.0615756
-0.0243706
-0.0592654
-0.0235162
0.113289
-0.0529536
-0.0418511
0.0448963
0.0517592
-0.0557516
0.0557404
1.11324e-05
-0.0390301
0.0367171
0.00231295
0.0398034
-0.0783878
0.0729585
-0.0343742
0.067345
-0.0838946
-0.00974597
-0.00811208
0.0109291
0.000862805
0.000642096
-0.000581832
-0.000923069
-0.00573042
-0.0425846
-0.00743652
0.00126339
0.00144473
-0.0025704
-0.000137722
-0.057417
0.0518636
0.0855408
-0.0799873
0.035259
-0.0333048
-0.00195422
0.0107624
0.0173738
-0.0112977
-0.0168386
0.00420687
-0.000452357
0.00220185
-0.00595636
-0.06434
-0.000518207
0.0200289
0.0448293
-0.00291284
0.00669274
0.000426978
0.039125
-0.109428
0.104585
-0.0342823
0.0459601
0.0136947
-0.0593769
-0.000277989
-0.00363253
0.00696815
0.00163472
-0.00497033
0.000155131
0.0606453
-0.0608005
0.0377199
0.00636706
0.0151419
-0.0592289
0.00425741
-0.00732128
0.00261151
-0.182934
0.0278684
0.162503
-0.00743721
0.0394687
-0.0110422
-0.0284265
-0.00121638
-0.00152695
-0.00116596
0.00390929
-0.041949
0.0455089
0.124644
-0.128204
-0.00187548
0.000676023
-0.00197664
0.0031761
0.0916951
-0.00259863
-0.0431363
0.000491078
-0.00122534
0.00205093
-0.00131667
-0.0186421
-0.116283
0.016325
0.1186
0.00389726
0.0522838
-0.00408652
-0.0520945
0.0487242
-0.0702714
0.06046
-0.0389128
0.0319461
-0.0364821
0.0485675
-0.0440314
0.00847309
-0.00177588
0.00586548
-0.0125627
0.00128274
-0.0443811
0.0532372
-0.0536784
-0.036041
0.0973557
0.0176637
-0.0244937
-0.0905257
0.0473737
0.0180746
-0.134496
0.0690475
-0.00177641
-0.00864367
0.00634634
0.00407373
0.0279422
-0.0501677
-0.00325519
0.0289754
-0.0267217
0.00736632
-0.00584812
0.000103149
-0.00162136
-0.0863894
0.00282084
-0.000563174
0.0720329
-0.150034
0.078564
-0.0270174
-0.087551
0.0412582
0.0733102
-0.0725614
0.0207129
0.0028666
0.0489819
-0.0434391
0.0291346
0.0104809
-0.0828253
0.0958254
-0.0130001
-0.0210698
-0.00951599
0.11805
-0.0874639
-0.00357127
-0.00389943
0.0061061
0.0013646
-0.0258034
0.0591848
0.0406521
-0.0721691
0.0280347
-0.000781216
-0.000407984
-0.00101648
0.00220568
0.0467782
-0.049324
0.054868
-0.0376947
-0.00711833
-0.0450395
-0.124173
0.0479185
0.0762547
-0.0429218
-0.03252
0.0276604
0.00307591
-0.0021745
0.000766912
-0.00166833
0.00277236
-0.000360337
0.000663885
-0.0863115
0.00355815
0.0827533
0.0613616
0.0132208
-0.123123
0.0485404
-0.0710888
0.000362434
0.0707263
0.00139643
-0.00178864
0.00834218
-0.00794997
0.0483227
0.156059
-0.226232
0.0218503
0.00182811
-0.00230768
0.00144312
-0.000963542
-0.0916417
0.0649403
0.026531
0.000170387
-0.00176795
-0.000758884
0.002816
-0.000289167
-0.000667867
0.00837819
-0.0084143
0.000703975
0.00791813
0.00787543
-0.0150224
-0.00077117
0.0409525
0.012517
0.0030337
-0.00274487
0.00153928
-0.0985912
0.105341
0.00746728
-0.0142171
0.012046
-0.0667012
-0.0231724
0.0778276
0.00217974
-0.0048433
0.0879568
-0.0852932
-0.0415389
-0.0368138
0.087187
-0.00883425
-0.0407116
0.0246737
0.0405117
-0.0244738
0.0536876
0.0206583
-0.0722238
-0.00212211
-0.00149113
0.000162198
0.00163411
-0.000305181
-0.123767
-0.0430394
0.0396192
0.127187
0.0484844
-0.0377177
-0.0317204
-0.0376612
-0.0309197
0.100301
-0.00189364
0.00428619
0.000396663
-0.00278922
-0.0311099
-0.0802636
0.0284319
0.0829417
-0.0296493
-0.0286937
0.0206483
-0.000791254
-0.00327688
-0.00167016
0.00324842
-0.0037594
0.00218114
-0.00579942
0.00563906
0.0253807
-0.0772096
-0.0852899
0.137119
-0.000458682
-0.000247941
0.00038268
0.000323943
0.0572786
-0.0603028
0.0478737
-0.0448495
-0.0150062
0.0439387
-0.00757228
-0.0213602
0.0865
-0.0861223
-0.0186223
0.0182446
0.026512
0.022404
-0.063622
0.014706
-0.127302
0.0739655
0.0182526
0.0350836
-0.00529007
0.00308395
0.00010897
0.00209715
-0.00797955
0.00961475
-0.000238768
-0.0134571
-0.00372547
0.0181242
-0.00094163
-0.0623596
-0.00477477
0.01452
0.0526144
-0.008763
0.10303
-0.0050555
-0.0892114
0.00911586
-0.0472384
0.080521
-0.0423985
-0.00157032
0.00418388
-0.00162396
-0.00098961
-0.014998
0.000278739
-0.00219522
0.0169145
-0.106987
0.00427918
0.0132377
0.0894704
-7.05093e-07
-0.000315499
0.00062853
-0.000312326
0.0372806
0.0080185
0.0270545
-0.00481034
0.0460009
0.052774
-0.0939646
-0.000126927
0.000575535
-0.000449313
-0.000556655
0.00216345
-0.00146451
-0.00014229
0.0174649
0.110751
-0.0475709
-0.0806452
-0.000232913
-8.25865e-05
0.000183624
-0.000416537
0.0618678
0.0170184
-0.0922004
0.0133142
-0.157177
0.0861445
0.0770866
-0.00605415
-0.0181708
0.000238972
-0.0517072
0.069639
0.0250036
-0.0148038
0.016928
-0.0271278
-0.0664448
-0.0231767
0.0896215
-0.0780054
0.0385074
0.0394981
-0.00202541
-0.000313378
0.000488619
0.00185017
-0.038171
0.0412236
0.00768211
-0.0107348
0.0466481
-0.0545618
0.00791363
-0.0607205
0.033752
0.0451199
-0.0181514
0.00452413
-0.00262868
-0.00171251
-0.000182945
-0.00323024
-0.00253159
0.000471762
-0.0421879
-0.0418254
0.0465069
0.0141261
0.00252356
-0.0631566
0.00235122
-0.000172652
-0.00191982
-0.000258746
0.00400996
0.0037694
-0.00181298
-0.00596638
0.00712767
0.0222948
-0.0403725
0.01095
-0.0191549
-0.0154241
-0.00923024
0.0438093
-0.0757239
-0.0103468
0.0300785
0.0559922
-0.0017666
0.0150318
-0.00831006
-0.00495517
-0.0530017
0.000487838
0.033359
-5.96614e-05
0.0252
-0.135814
0.126247
-0.0156328
0.0286636
-0.0344489
-0.051718
-0.0271139
0.0548669
0.000107922
0.0401874
0.00319832
-0.0434937
-0.0552603
-0.059951
0.115211
-0.00315678
-0.00104202
-0.00175982
0.00595861
0.00318731
-0.00475025
0.00170934
-0.000146398
0.0365294
-0.00607724
-0.0280976
-0.00235459
-0.00323451
-0.00229369
0.00237142
0.00389819
-0.0112583
0.066035
-0.0586749
0.0761947
-0.000180729
0.0277783
0.0094512
-0.00653983
-0.0306897
0.0585722
-0.000771106
-0.0578011
-0.0529683
0.113739
-0.0284225
0.0596997
0.0200972
-0.0513744
-0.0160032
-0.0256981
0.0172542
0.024447
0.00315441
0.00373836
0.000836705
-0.00772948
-0.0341689
-0.0380238
0.0993324
-0.0271397
0.0443076
-0.0360285
-0.000260071
-0.00801909
-0.0507064
0.115492
-0.0503992
-0.0143868
-0.00141874
0.00170475
-0.00013836
-0.000147648
-0.000772563
0.0216864
-0.00468751
-0.0162263
0.00297321
0.0037994
0.000131431
-0.00690404
-0.000266817
-3.80435e-05
-1.09761e-05
0.000315836
3.74751e-05
3.44313e-05
-0.000338723
-0.00892765
0.0229001
0.0702464
-0.0842188
0.0803541
-0.0802331
-0.000120975
0.000308661
-0.000338891
3.02297e-05
-0.0128146
0.000961642
0.00228208
-0.00135466
-0.00188906
-0.0082934
-0.00530726
0.00611343
0.00748723
-0.0557622
0.0273397
0.000251637
0.000268754
-0.000801387
0.000280995
0.0338232
0.0546956
-0.0348019
-0.053717
0.0120993
0.158899
-0.179648
0.0086496
0.0583127
0.0633399
-0.0619529
0.00198361
-0.0133792
-0.00177532
0.0131709
-0.0334043
-0.0301132
0.0635175
0.0311192
-0.0645235
-0.0542802
-0.0446661
-0.0654867
0.164433
0.0500489
-0.0559767
0.00592783
-0.0725359
0.134467
-0.0711638
0.0330095
-0.0301956
0.0856655
-0.00370682
-0.0688292
-0.0131294
0.0701215
-0.0706205
0.0112451
-0.0107461
1.68304e-05
-0.0061936
0.00733106
-0.00115429
0.00153845
-0.00518819
0.00666366
-0.00301392
-0.000221124
0.000175198
0.000707794
-0.000661868
0.0223303
0.0231335
-0.033954
-0.0115098
-0.00529747
-0.00509555
0.00621327
0.00417975
-0.0107176
0.0320488
-0.043
0.0216688
0.00107486
-0.00860418
0.0108929
-0.00336355
0.0487311
-0.00417313
-0.044558
0.0380636
0.0356901
-0.126565
0.0528111
-0.0978983
0.0599686
0.0759933
0.0329899
-0.099769
-0.0468829
0.107915
-0.0371235
-0.0239091
0.00167249
0.00901372
-0.0123649
0.00167866
0.0278582
-0.00282872
-0.0250295
-0.0305204
0.0436061
-0.00368577
0.0201394
-0.0315589
0.00103885
-0.000142388
0.00104317
-0.00193964
0.0117314
-0.0384531
-0.000907672
0.000203525
0.000407927
0.00029622
0.00273391
-0.000340111
0.00102283
-0.00341663
-0.000910499
-0.0022807
-0.0781916
-0.0129009
0.00140989
-0.0118733
0.0233643
0.0203076
-0.0904573
0.0204546
0.0496951
-0.00324948
0.0580282
-0.0819942
0.0272154
0.000952154
-0.000626546
0.000665228
-0.000990836
0.0791394
0.0126105
0.00224715
-0.0939971
-0.000674163
-0.000793583
0.00172632
-0.000258576
0.00493833
-0.000986823
-0.069399
0.0654475
0.00652888
-0.00099953
-0.00488926
-0.000640095
0.00641245
0.00452229
-0.00358433
-0.0073504
-0.110479
0.0965079
-0.0875947
0.101566
-0.0545683
0.109771
-0.0552024
0.00223274
-0.0439516
0.00897285
0.032746
0.00365224
-0.00354631
0.000751196
-0.000857124
0.0493852
-0.00297748
0.00133791
-0.129722
0.00276299
0.0739905
-0.0336628
5.2506e-05
0.00117736
0.0311591
-0.0250902
-0.00724628
0.0781828
-0.0307745
0.0342086
0.00406925
-0.00502817
0.000162219
0.000796709
0.0338725
0.0234482
-0.0749237
0.017603
-2.0691e-05
-0.000136322
0.000110987
4.60267e-05
-0.000427622
0.0015023
0.00533777
0.00020975
-0.00794475
0.00637015
0.00564385
0.0746202
0.0407545
-0.0370585
-0.0783162
-0.131433
0.141034
-0.00857962
-0.00102075
0.0315699
-0.0324816
0.000911651
-0.0363091
-1.46284e-05
0.000330345
-0.0031276
-0.00223092
0.0147322
0.206693
-0.158946
-0.0624791
0.0292121
-0.0609237
-0.0177787
0.0494903
-0.00309212
0.039196
-0.000808889
-0.0856843
0.0472973
-0.0229088
0.0100479
-0.0380415
0.0476021
0.0463796
-0.0559402
-0.0667136
0.0888632
-0.151461
0.129312
-0.000188677
7.31289e-05
-0.00145319
0.00156874
0.000206791
0.0022693
-0.000635384
-0.00184071
0.0438324
-0.0150974
0.0387114
-0.0674464
-0.00353472
0.000344668
0.00337821
-0.000188161
-0.0119361
0.0107962
-0.0369016
0.0120977
-0.046346
0.00592542
-0.00320496
0.0183582
-0.0210786
-0.135361
0.018132
0.127746
-0.0105169
0.0355866
-0.0240579
-0.0169324
0.00540371
0.03442
-0.0531384
0.00678229
0.00461463
0.00753272
0.0518946
-0.0640419
0.0246955
-0.00707251
-0.025023
0.00740007
-0.0791747
-0.0085764
0.0151943
0.00123832
-0.0010842
5.26704e-05
-0.000257563
0.00210295
0.00154413
-0.00338951
0.0183706
-0.0319791
0.038304
0.0179697
-0.143407
-0.0228443
0.148282
-0.112606
-0.0150416
0.0257528
0.101895
0.0571369
-0.035536
0.029183
-0.0507839
0.110802
-0.00614283
0.00358717
-0.108246
-0.0169546
-0.0369299
-0.00413954
-0.0161251
0.00795826
0.0123064
-0.00135403
0.000496943
7.39032e-05
0.000783185
0.0152995
-0.0774154
0.0621159
0.108753
-0.0072234
-0.112446
-0.0263197
0.0555631
-0.046198
0.0398541
-0.122181
0.0148516
0.0674752
-0.00403574
-0.0123489
-0.027012
0.0433966
0.0038883
0.0495028
0.0846165
-0.132153
-0.0019667
0.0491602
-0.0829363
0.0892432
-0.0554671
-0.096269
0.0956689
-0.00689601
0.00749612
0.00199076
0.00440632
-0.0943662
0.0879691
-0.00169583
0.00361017
0.00605232
-0.00796666
0.000228566
-0.000940714
-0.000287852
0.001
0.0886828
0.000787883
-0.0175371
-0.0719336
-0.000754082
0.000755979
-0.000139109
0.000137211
0.000880414
0.00331172
-0.00233758
-0.00185455