/*--------------------------------*- C++ -*----------------------------------*\
| =========                 |                                                 |
| \\      /  F ield         | OpenFOAM: The Open Source CFD Toolbox           |
|  \\    /   O peration     | Version:  2506                                  |
|   \\  /    A nd           | Website:  www.openfoam.com                      |
|    \\/     M anipulation  |                                                 |
\*---------------------------------------------------------------------------*/
FoamFile
{
    version     2.0;
    format      ascii;
    arch        "LSB;label=32;scalar=64";
    class       volScalarField;
    location    "0.0501868";
    object      k;
}
// * * * * * * * * * * * * * * * * * * * * * * * * * * * * * * * * * * * * * //

dimensions      [0 2 -2 0 0 0 0];

internalField   nonuniform List<scalar> 
47425
(
0.318659
0.350197
0.32479
0.327009
0.487783
0.333093
0.44411
0.337846
0.36689
1.20667
0.344948
0.334794
0.379929
0.32543
0.321852
0.342969
0.323303
0.357491
1.10726
0.548871
0.331265
0.325808
0.336871
0.327736
0.325667
0.318295
0.315575
0.865155
0.313826
0.319348
0.333115
0.329856
0.356172
0.318824
0.319342
0.334745
0.3246
0.363355
0.323749
0.329853
0.371056
0.460555
0.82667
0.378405
1.22774
0.36223
0.339947
0.350937
0.321264
0.318178
0.82229
0.623753
0.316165
0.884287
0.37779
0.368891
0.319085
0.31744
0.449935
0.32634
0.987942
0.848985
0.883653
0.34271
0.364463
0.325174
0.342663
0.373488
0.826638
0.335101
0.320882
0.31525
0.31985
0.328282
0.913659
0.36871
0.899183
0.324781
0.876855
0.549187
0.936795
0.327758
0.328043
0.348963
0.321902
0.330982
0.316544
0.316601
0.547364
0.646019
0.329338
0.350002
0.323782
0.373422
0.385758
0.370433
0.320746
0.31653
0.320182
0.366213
0.337553
0.451605
0.328422
0.47221
0.321853
0.373212
0.319203
0.327613
0.349683
0.331232
1.10266
0.331722
0.427902
0.356729
0.344777
0.852296
0.340685
0.664715
0.349277
0.344891
0.328623
0.362704
0.345331
0.361308
0.357733
0.404431
0.334266
0.364889
0.358592
0.322949
0.329743
0.341095
0.526602
0.360018
0.456844
0.359992
0.330516
0.410998
0.32412
0.322647
0.354389
0.381444
0.343405
0.467951
0.343493
0.366225
0.451351
0.341546
0.369727
0.361791
0.468858
0.818153
0.36032
0.831779
0.350914
0.336752
0.360701
0.953108
0.364464
0.342264
0.351055
0.320015
0.318872
0.327963
0.758201
0.879104
0.340882
0.923948
0.345157
0.898303
0.942335
0.36119
0.353933
0.338566
0.36153
0.398746
0.872047
0.313312
0.317692
0.321606
0.869152
0.315095
0.314159
0.323075
0.319824
0.338927
0.324281
0.442728
0.358719
0.314707
0.357997
0.316963
0.445147
0.365299
0.324105
0.331687
0.360538
0.338153
0.344087
0.307293
0.34432
0.366819
0.333836
0.334809
0.353745
0.377731
0.313296
0.330136
0.353945
0.361921
0.316815
0.320908
0.352484
0.320832
0.322732
0.325737
0.315446
0.604564
0.357221
0.358943
0.569675
0.297549
0.575369
0.315657
0.400352
0.547694
0.322599
0.337916
0.367046
0.402438
0.315412
0.33168
0.358177
0.369373
0.373365
0.334032
0.590491
0.348731
0.553116
0.371086
0.342854
0.313589
0.319885
0.328474
0.322421
0.362601
0.321694
0.357705
0.318188
0.322293
0.321882
0.531393
0.326913
0.365696
0.329707
0.319098
0.325465
0.371087
0.321139
0.357634
0.38711
0.352677
0.324656
0.367439
0.391093
0.359555
0.321713
0.388392
0.317922
0.336464
0.32861
0.538004
0.587693
0.31918
0.52866
0.3792
0.529747
0.475426
0.572681
0.56662
1.05849
0.316835
0.996811
0.374325
0.32927
0.316671
0.362745
0.331509
0.371292
0.357225
0.79999
0.340701
0.371308
0.318067
0.321345
0.340739
0.343256
0.32016
0.329638
0.37897
0.348558
0.318235
0.341676
0.317954
0.882539
0.886385
0.843965
0.320943
0.317095
0.323249
0.337059
0.830733
0.332865
0.34081
0.599148
0.356875
0.352225
0.376155
0.330424
0.655992
0.574463
0.329627
0.323293
0.314486
0.349891
0.317982
0.325371
0.318017
0.316779
0.319207
0.317111
0.862485
0.34372
0.322571
0.383863
0.321244
0.848275
0.332378
0.317552
0.321455
0.329137
0.328894
0.317436
0.326371
0.316627
0.320161
0.318758
0.327951
0.32384
0.353279
0.330964
0.32527
0.333842
0.328652
0.331543
0.360764
0.336182
0.326157
0.32904
0.360368
0.37439
0.359033
0.341149
0.334134
0.319197
0.332987
0.37525
0.358485
0.337241
0.329235
0.370745
1.12818
0.318203
0.334672
0.385666
0.332667
0.430082
0.365673
0.364445
0.324868
0.357655
0.331387
0.317343
0.355296
0.358308
0.364519
0.336294
0.326285
0.349914
0.334285
0.331555
0.33561
0.340407
0.319967
0.325317
0.329414
0.328994
0.333425
0.410927
0.31756
0.679778
0.319758
0.855501
0.345876
0.373924
0.364756
0.31979
0.359064
0.316301
0.346372
0.332255
0.63599
0.881493
0.317347
0.35162
0.321951
0.321001
0.330833
0.330299
0.318787
0.364553
0.335908
0.319602
0.322557
0.328105
0.316279
0.455958
0.319636
0.330301
0.51943
0.592966
0.324095
0.656187
0.609189
0.363582
0.595593
0.789704
0.319838
0.31983
0.321297
0.319321
0.815591
0.346552
0.318302
0.321402
0.324985
0.32551
0.333087
0.322214
0.736696
0.79766
0.530192
0.356414
0.418499
0.501616
0.32314
0.327813
0.368317
0.32649
0.355277
0.363126
0.377802
0.326475
0.369614
0.32515
0.320893
0.350199
0.332235
0.327446
0.324692
0.348767
0.35768
0.373898
0.350186
0.321221
0.358821
0.328157
0.775424
0.364807
0.413209
0.345456
0.364823
0.825599
0.348738
0.320069
0.351352
0.350581
0.331126
0.347798
0.36153
0.311676
0.342395
0.316453
0.339863
0.464833
0.315927
0.364945
0.326558
0.376903
0.318898
0.319827
0.320512
0.324391
0.3332
0.343109
0.324544
0.317146
0.322246
0.337286
0.338076
0.34934
0.346686
0.318994
0.326325
0.311735
0.313857
0.325922
0.34681
0.324436
0.35052
0.363312
0.375397
0.799194
0.330284
0.324285
0.343895
0.365737
0.468612
0.472333
0.350179
0.32162
0.354001
0.444812
0.329124
0.481146
0.362397
0.688901
0.363863
0.365721
0.320331
0.472333
0.323227
0.32508
0.33311
0.325855
0.317189
0.313954
1.03836
0.322383
0.372663
0.322665
0.451754
0.317727
0.319714
0.431665
0.421059
0.331103
0.319089
0.291433
0.317375
0.327267
0.316836
0.318683
0.320155
0.392633
0.463735
0.33805
0.320662
0.333557
0.322568
0.545127
0.329872
0.326116
0.256108
0.329636
0.319498
0.354929
0.775272
0.330995
0.22385
0.242573
0.315624
0.347417
0.316286
0.324565
0.366225
0.354815
0.823075
0.327625
0.357154
0.318198
0.468365
0.387881
0.369797
0.330533
0.849589
2.2007
0.322995
0.336759
0.333113
0.332064
0.372895
0.385142
0.328871
0.339931
0.378955
0.308853
0.360257
0.490458
0.357457
0.322895
0.49654
0.350696
0.324657
0.339773
0.348509
0.317192
0.361942
0.383007
0.377437
0.344633
0.325374
0.321111
1.03496
0.3355
0.404566
0.841999
0.811574
0.321784
0.36582
0.774997
0.36023
0.438833
0.790728
0.376798
0.835452
0.31989
0.320883
0.355033
0.524737
0.381533
0.375573
0.316647
0.376702
0.322505
0.329603
0.32024
0.353471
0.339089
0.757699
0.728466
0.352506
0.357833
0.354936
0.334076
0.377319
0.351808
0.352523
0.360604
0.343618
0.340471
0.358369
0.354812
0.318863
0.4093
0.372822
0.861505
0.577058
0.35366
0.328623
0.363381
0.320367
0.866583
0.326379
0.922237
0.361544
0.45058
0.356301
0.336652
0.337599
0.312277
0.374154
0.325771
0.313343
0.396984
0.404811
0.368558
0.405052
0.361419
1.25427
0.356786
0.379761
0.38438
0.363681
0.318336
0.368173
0.3346
0.403053
0.342205
0.333961
0.371132
0.334655
0.340998
0.326134
0.323383
0.498192
0.575683
0.320305
0.459565
0.320962
0.339396
0.318711
0.31863
0.502643
0.311427
0.325083
0.329741
0.319239
0.695764
1.19888
0.332357
0.336524
0.320339
0.349914
0.314082
0.340419
0.343303
0.571058
0.339702
0.320681
0.334561
0.321524
0.325943
0.325806
0.317559
0.327585
0.321827
0.316721
0.346456
0.568013
0.319344
0.257916
0.630359
0.577303
0.248043
0.347223
0.938905
0.376384
0.353236
0.528183
0.297053
0.850652
0.346787
0.317634
0.481165
0.34904
0.583483
0.332624
0.355316
0.318998
0.324975
0.438562
0.359108
0.338313
0.355708
0.490708
0.393277
0.348577
0.378431
0.511544
0.487612
0.560233
0.920108
1.03136
0.646606
0.678836
0.363108
0.365001
0.32303
0.319653
0.35393
0.298403
0.344811
0.348882
0.358526
0.322561
0.302095
0.303002
0.320444
0.390557
0.338836
0.320981
0.374896
0.320997
0.325154
0.323438
0.354928
0.450054
0.320349
0.320897
0.319473
0.366321
0.358048
0.549166
0.460072
0.317155
0.354833
0.315151
0.322495
0.322901
0.35849
0.364846
0.53993
0.326123
0.321781
0.322945
0.414962
0.901123
0.33684
0.336532
0.422838
0.355578
0.343482
0.357408
0.344689
0.376802
1.31316
0.452559
0.870382
0.366858
0.413993
0.319503
0.406644
0.325001
0.34602
0.352937
0.327105
1.19112
0.457652
0.377711
0.500139
0.377822
0.315729
0.342277
0.419878
0.326617
0.359999
0.236852
0.323303
0.407652
0.377832
0.399041
0.745251
0.379901
0.376193
0.525657
0.32429
0.324747
0.456454
0.55598
0.340208
0.432816
0.474854
0.336495
0.33612
0.31987
0.344359
0.359682
0.357419
2.11659
0.723012
0.383959
0.54961
0.530713
1.49742
2.38965
0.543855
0.367899
0.360779
0.37355
0.376517
1.10119
0.323215
0.349296
0.372814
0.354215
0.346388
0.351153
0.363399
0.317858
0.388301
0.498911
0.363489
0.994822
0.320637
0.400491
0.376584
0.365708
0.357317
0.350062
0.374815
0.468993
0.368659
0.390019
0.487519
0.34532
0.325018
0.352536
0.442255
0.319914
0.417656
0.370498
0.378782
0.671381
1.09969
0.318142
0.363504
0.337304
0.361899
0.365096
0.700534
0.554176
1.54391
0.325214
0.386803
0.343184
0.879401
0.324524
1.45163
0.405386
0.38576
0.513087
0.619167
0.331379
0.31686
0.325607
0.340756
0.473941
0.336647
0.418906
0.856709
0.417233
0.318198
0.319587
0.709694
0.904799
0.527777
0.56206
0.945442
0.404434
0.365496
0.414966
0.323014
0.501716
0.376167
0.391178
1.40402
0.345854
0.318661
0.322508
0.357411
0.405739
0.37797
0.341603
0.336768
0.477486
0.323014
0.33914
0.320871
0.352928
0.374124
0.393888
0.362375
0.348511
0.331442
0.387584
0.323406
0.320944
0.332036
0.335899
0.395995
0.492464
0.348897
0.382979
0.321155
1.63766
0.384273
0.36943
0.34172
0.988992
0.688049
1.08502
0.329085
0.349627
0.352135
0.745282
0.374299
0.357524
0.397325
0.361217
0.362159
0.867858
0.369885
0.333104
0.368113
0.37183
0.31863
0.612172
1.01905
0.32372
1.01022
0.34882
0.687807
0.618748
0.321785
0.357347
0.374662
0.643423
0.350071
0.353147
0.35263
0.776711
0.488193
0.627028
0.322931
0.336219
0.319098
0.327874
1.14671
1.17419
0.356619
0.381217
0.396506
0.727797
0.327275
0.316184
1.44705
1.10576
0.356856
0.333806
0.915057
1.3368
0.916637
0.375649
0.699216
1.05488
0.784821
0.331922
0.470862
0.462422
0.343585
0.354408
1.18915
1.43934
0.379926
0.38631
0.347638
0.333891
0.358619
0.338005
0.512331
0.335512
0.366939
0.321415
0.353772
0.997054
0.958155
0.333908
0.604105
0.447991
0.329103
0.545728
0.31527
0.345413
0.323811
0.3556
0.392655
0.318338
0.772177
0.325714
0.890023
0.696551
0.763179
0.408511
0.417476
0.347857
0.364321
0.326085
0.571207
1.14957
0.359362
0.900768
0.545371
0.831246
0.492554
0.932869
0.736307
0.338438
0.325412
0.941611
0.338856
0.335059
0.326552
0.72985
0.716066
0.326262
0.348892
0.653703
0.434122
1.02711
0.824591
0.357049
0.480992
1.05021
0.351714
0.34442
0.758489
0.329295
0.798406
0.853752
0.328685
0.32121
0.33456
0.320622
0.376397
0.321834
0.327514
0.367126
0.375134
0.495116
0.362535
0.336361
0.523776
0.846282
0.849213
0.363618
0.359448
0.563032
0.333316
1.00349
0.342313
0.356102
0.362231
1.42196
0.348592
1.87269
0.387496
0.523519
0.363724
0.815719
0.650778
0.633676
0.439923
0.566501
0.387864
0.36353
0.40871
0.604631
0.47479
0.47934
0.815387
0.388165
0.471398
0.897106
0.3674
0.321457
0.778507
1.94485
0.328189
0.348469
0.3594
0.37949
0.971858
0.988674
0.318678
0.338059
0.359161
0.783859
0.356003
0.625664
0.394862
0.347357
0.352825
0.494733
0.376445
0.644305
0.634067
0.360187
0.396312
0.456132
0.336893
0.94093
1.71882
0.350255
0.889102
0.852529
0.376773
0.692652
0.360632
0.381158
1.02093
0.381971
0.980946
1.42232
0.3428
0.387107
0.446148
0.365351
0.353385
0.409292
0.513793
0.43086
0.33518
0.408976
0.339589
0.886227
0.411968
0.368396
0.380009
0.565088
0.324791
0.863426
0.721584
0.381106
0.819261
0.868197
0.319361
0.495947
0.570013
0.364685
0.360005
0.531581
0.725105
0.521953
0.793061
0.326192
0.788567
0.465579
0.317732
0.402243
0.375503
0.514812
0.355331
0.404096
0.63852
0.317936
0.608682
0.365517
1.3722
0.38819
0.314217
0.379629
0.549009
0.377105
0.68513
0.455591
0.340135
0.840059
0.321427
0.347317
1.15482
0.318042
0.384473
0.738032
0.353525
0.771122
1.38829
0.375476
0.42416
0.321098
0.921982
0.672962
0.800041
0.744606
0.428624
0.356062
0.448145
0.904098
1.07526
0.82621
0.356061
0.357606
0.362035
0.332868
0.381051
0.742041
0.353027
0.336302
0.355939
0.318316
0.341297
0.359111
0.335606
0.349865
0.365966
0.45684
0.324273
0.369577
0.592055
0.337717
0.321983
0.381434
0.365683
0.359505
0.318894
0.349374
0.34653
0.33437
0.376163
0.688714
0.345498
0.340661
0.3235
0.321857
0.544871
0.327111
0.327608
0.695132
1.23762
0.740831
0.334522
0.676521
0.496986
0.330323
0.645678
0.449216
0.626091
0.362582
0.331962
0.353063
0.407871
0.327158
0.36921
0.383235
0.372178
0.325516
0.325192
0.367677
0.526511
0.358474
0.428565
0.879668
0.347606
0.687994
0.419018
0.882336
0.316972
0.368806
0.36361
0.320216
0.334945
0.367133
0.320652
1.39532
0.599326
0.871547
0.383345
1.0584
0.320316
0.343842
0.536981
0.325501
0.804554
0.428981
0.635062
0.316255
0.966628
0.95406
0.330443
0.318065
0.956404
0.337311
0.720699
0.325585
0.36703
0.325583
0.322805
0.327736
0.339579
0.345058
0.629154
0.409422
0.390092
0.350201
0.331986
0.324149
0.361793
1.12148
0.368539
1.87259
0.548743
0.324743
0.378555
0.343667
0.339626
0.33969
0.36905
0.350258
0.362912
0.338286
0.308057
0.360184
0.36426
1.34723
1.41428
0.36527
0.367359
1.06223
0.346878
0.31964
0.320064
0.318825
0.358759
0.378155
0.400082
0.379041
0.343527
0.320921
0.414946
0.317882
0.309938
0.334358
0.750354
0.391632
0.858784
0.77906
0.848107
0.335456
0.323052
0.315375
0.316828
0.320709
0.660821
0.337339
0.319861
0.340262
0.360509
0.321245
0.493318
0.318858
0.376304
0.464023
0.348238
0.319437
0.325011
0.343403
0.34725
0.323434
0.35125
0.331953
0.518868
0.329422
0.35038
0.392576
0.331435
0.334863
0.321193
0.345221
0.320896
0.372793
0.393734
0.320495
0.315095
0.323743
0.329199
0.323627
0.364224
0.319038
0.321636
0.319326
0.336756
0.853814
0.331448
0.442876
0.316527
0.320994
0.762729
0.335287
0.366432
0.316646
0.329912
0.356913
0.373882
0.769649
0.374458
2.11298
0.319318
0.327518
0.364742
0.322225
0.319685
0.382308
0.345228
0.320147
0.321034
1.00646
0.450442
0.688727
0.373628
0.582553
0.370311
0.315207
0.389767
0.955402
0.363822
0.325968
0.325959
0.809581
0.321311
0.332362
0.348636
0.341881
0.328375
0.812738
0.324127
0.341293
0.347955
0.340961
0.383688
0.943656
0.838065
0.325587
0.322344
0.321925
0.377056
0.354207
0.318896
0.821568
0.925363
0.320056
0.357856
0.802423
0.328181
0.622254
0.468946
0.319505
0.322391
0.32488
0.329716
0.644256
0.347056
0.342263
0.341327
0.381159
0.333118
0.361548
0.611333
0.362929
0.506033
0.521433
0.444541
0.608296
0.363053
0.387729
0.409552
0.379197
0.350158
0.341762
0.853305
0.616316
0.377904
0.371959
0.360602
0.362812
0.350023
0.381319
0.324333
0.317629
0.357145
0.350246
0.513523
0.44131
0.900567
0.734399
0.351933
0.377913
0.333248
0.335234
0.365131
0.321255
0.339077
0.319172
0.320815
0.360008
0.318391
0.321982
0.327959
0.650039
1.11011
0.365802
0.316555
0.471305
0.522717
0.85724
0.333031
0.799919
1.82887
0.703822
0.84276
0.418244
0.320434
0.318144
0.360629
0.888754
0.316874
0.372722
0.348505
0.319937
0.723643
0.669009
0.644303
0.340293
1.53186
0.317342
0.32583
0.356544
0.356963
0.786899
0.855729
0.27444
0.455675
0.280227
0.389892
0.325769
0.932974
0.353737
0.893951
0.371998
0.885604
0.355576
0.506577
0.448371
0.558012
0.380217
0.382764
0.541547
0.352842
0.354459
0.416013
0.397706
0.360743
0.343062
1.27884
0.697632
0.343532
0.632939
0.830094
0.619359
0.328781
0.324512
0.849195
0.717115
0.796952
0.326175
1.07259
0.325749
0.881809
0.734776
0.64409
0.696911
0.317841
0.376656
0.325335
0.335444
0.338751
0.531878
0.430652
0.320433
0.318424
0.365932
0.337688
0.319686
0.322608
0.479414
0.320375
0.314917
0.349134
0.335171
0.444736
0.344977
0.379052
0.373324
0.321167
0.448711
0.461827
0.321627
0.325568
0.500455
0.678282
0.342542
1.42465
0.366308
0.445577
0.749504
0.418653
0.346838
0.320316
0.518985
0.337676
0.315257
0.371802
0.334138
0.324712
0.339804
0.325771
0.319753
0.331546
0.34771
0.336669
0.373068
0.717132
0.33172
0.336516
0.334952
0.343454
0.439397
0.829064
0.345155
0.328153
0.346345
0.603298
0.411412
0.341094
0.344788
0.877372
0.361948
0.387985
0.372659
0.422276
0.350099
0.359115
0.343968
0.539848
0.378902
0.365957
0.957699
0.340321
0.399395
0.352993
0.359155
0.354539
0.391673
0.338645
0.337832
0.325031
0.368751
0.333321
0.357863
1.43439
0.326215
0.43526
0.376282
0.345603
0.693752
0.379173
0.423559
0.366403
0.603585
0.670924
0.351766
0.327453
0.395851
0.405384
0.357302
0.325591
0.82289
0.481835
0.390357
1.48165
0.440602
0.330726
0.53191
0.574873
1.23681
0.662347
0.405037
0.590014
0.375695
0.576736
0.494187
0.887877
0.34667
0.403907
0.333548
0.637909
0.373904
0.410941
0.35183
0.365641
0.360364
0.395073
0.640795
0.34548
0.370752
0.399246
0.522623
0.79452
0.432338
0.768676
0.370491
1.05693
0.373391
0.374656
0.843409
0.565437
0.736132
0.631914
0.685115
0.584617
0.334721
0.329064
0.334198
0.395782
0.369813
0.817858
0.367491
0.388968
0.324788
0.49092
0.362706
0.32416
0.894625
0.407275
0.531106
0.276433
0.410339
0.351519
0.362685
0.366658
0.394291
0.326869
0.314626
0.353495
0.408791
0.240884
0.233329
0.484027
0.371815
0.356692
0.433846
0.471129
0.380598
0.364902
0.368752
0.217451
0.38399
0.41138
0.266067
0.373889
0.833689
0.599557
0.347917
1.03324
0.391715
0.498563
1.42802
0.39422
0.376511
0.328629
0.736208
0.323628
0.320859
0.375519
0.374785
0.40359
0.349664
0.567135
0.360621
0.504923
0.327827
0.380419
0.369068
0.316298
1.12193
0.52284
1.08011
0.558394
0.316236
0.913328
0.502972
0.322351
2.32863
0.32297
0.319283
0.479016
0.483654
0.984353
0.722805
0.364595
0.714649
1.40688
0.339273
0.598563
0.990374
0.513301
1.36007
0.396981
0.335365
0.618077
0.696644
0.388855
0.971948
0.377461
0.350522
0.546984
0.377217
0.329307
0.37032
0.799131
0.7496
0.315975
0.540585
0.330791
0.38085
0.352474
0.378287
0.602318
0.445233
0.767698
0.351571
0.36069
0.753376
0.322404
0.337203
0.476562
0.326029
0.359876
1.01983
0.351712
0.924426
0.836005
0.85227
0.815202
0.376381
0.412342
0.318707
0.316846
0.435202
0.324015
0.327737
0.397357
0.331192
0.430549
0.920533
0.323747
0.536963
0.331915
0.487631
0.378924
0.885356
0.365307
0.474509
0.329227
0.339012
0.408397
0.325564
0.345736
0.334575
0.319022
0.554442
0.326397
0.376179
0.374904
0.336647
0.364885
0.357187
0.375122
0.702177
0.349763
0.326747
0.335755
0.406148
0.240971
0.671017
0.499786
0.68792
1.0199
0.421089
0.440647
0.146506
0.315344
0.910987
0.418314
0.550578
0.414637
0.758856
0.724075
1.30545
0.37785
0.348116
0.549843
1.04144
0.362024
0.348208
0.466773
0.38531
0.426632
0.419157
0.865986
1.38077
0.286675
0.391785
0.208527
0.351798
1.15794
0.343415
0.359195
0.330801
0.325915
0.46408
0.331767
0.611535
0.487762
0.327283
0.383586
0.327183
0.567356
0.651976
0.342858
0.435667
0.377416
0.928062
0.459041
0.356469
0.546456
0.54337
0.318517
0.327598
0.359672
0.321427
0.669338
0.325341
0.450807
0.625648
0.334365
0.357768
0.328401
0.329402
0.595159
0.390395
0.538488
0.31857
0.319632
0.582414
0.803882
0.32689
0.345142
0.326369
0.324454
0.647109
0.45206
0.813572
0.357845
0.323952
0.464152
0.397288
0.358701
0.328309
0.387385
0.378608
0.562733
0.465782
1.55155
0.418471
0.431851
0.328106
0.374406
0.839767
0.992404
0.409855
0.907677
0.362552
0.968679
0.436614
0.745993
0.481941
0.529076
0.393465
0.34011
0.370703
0.425369
0.573118
0.358428
0.37877
0.993922
0.374536
1.6168
0.373297
0.34864
0.374397
0.58155
0.41984
0.326365
0.850336
0.321208
0.334401
0.319787
0.366256
0.853698
0.495648
0.335838
0.527061
0.347302
0.356499
0.327825
0.33786
0.427991
0.406679
0.417993
0.359548
0.332957
0.410446
0.351565
0.316663
0.416932
0.374022
1.54177
0.378708
0.468872
0.361462
0.412969
0.364971
0.433252
0.317662
0.365735
0.346531
0.349179
0.378421
0.842218
0.317958
0.635617
0.510673
0.391326
0.3798
0.363639
0.38253
0.44971
0.656026
0.327569
0.352817
0.358743
0.512872
0.392193
0.318598
1.22658
1.0424
0.658005
0.322547
0.326969
0.513611
0.353427
0.353808
0.512011
0.364432
0.340881
0.374437
1.09272
0.325499
0.585766
0.323223
0.340455
0.434744
0.34026
0.384129
0.468181
0.326665
0.596841
0.414048
0.411174
0.454209
0.944939
0.331007
0.359971
0.372422
0.402214
0.363618
0.366619
0.317382
0.317329
0.374473
0.590046
0.377132
0.367169
0.960143
0.374785
0.633555
0.358412
0.383032
0.402988
0.347914
0.757502
0.358456
0.509422
0.375719
0.355091
0.350736
0.397284
0.573611
0.460242
0.330275
0.633044
0.376944
0.767889
0.767054
1.01651
0.333151
0.463721
0.377706
0.246917
0.401859
0.27187
0.448852
0.23688
0.406632
0.736262
0.411337
0.631456
0.698414
0.370399
0.259274
0.438405
0.996634
0.526019
0.694345
1.36592
1.68142
0.665796
0.835659
0.332706
0.357724
0.756697
0.397907
0.928427
0.38123
0.774185
0.777023
0.345402
0.371281
0.338309
0.318312
0.3609
0.318014
0.736526
0.392921
0.36877
0.561023
0.333793
0.360683
0.316608
0.348054
0.358627
0.360259
0.396994
0.3201
0.417253
0.910821
0.320355
0.329775
0.35321
0.326281
0.741867
0.879248
0.400547
0.423562
0.557179
0.320718
0.3126
0.350176
0.372417
0.335965
0.343208
0.330983
0.324768
0.425682
0.323041
0.376415
0.34101
0.319799
0.325243
0.788435
0.336576
0.352088
0.322574
0.435173
0.358605
0.356795
0.717443
0.417851
0.349921
0.395207
0.349491
0.380063
0.391722
0.370819
0.333184
0.379742
0.366547
0.338453
0.363235
0.359648
0.439766
0.462025
0.341648
0.345826
0.4088
0.440188
0.487577
0.575681
0.898655
0.939926
0.349024
0.32813
0.92436
0.540709
0.570347
0.33321
0.322276
0.34281
0.317086
0.341578
0.326157
0.33055
0.360124
0.322673
0.328166
0.325708
0.334165
0.326747
0.539955
0.385144
0.354755
0.329213
0.333031
0.637946
0.320296
0.327325
0.404308
1.05376
0.556709
0.374201
0.362266
0.338523
0.373782
0.47713
0.709965
0.412434
0.337673
0.368315
0.336944
0.334399
0.375906
0.440162
0.367627
0.329452
0.404992
0.406346
0.63678
0.401369
0.747852
0.586474
0.390601
0.398348
0.336877
0.348901
0.377237
0.318352
0.333966
0.616469
0.336148
0.352859
0.72178
0.355206
0.371796
0.524868
0.40403
0.327546
0.357131
0.330207
0.362247
0.733343
0.353883
0.436396
2.50694
0.586273
1.14507
0.850664
0.338143
0.348078
0.540748
0.322675
0.56515
0.501346
0.705912
0.369859
0.321773
0.784816
0.321525
0.55482
0.423213
0.330176
0.730904
0.856651
0.319493
0.330922
0.907142
0.319097
0.324276
0.323496
0.321229
0.351785
0.564038
0.586437
0.348291
0.81313
0.338122
0.346123
0.328512
0.880652
0.342749
0.922415
0.322989
0.362438
0.323962
0.440177
0.336207
0.517701
0.320835
0.661608
0.481987
0.483652
0.714505
0.341733
0.341413
0.865709
0.455868
0.352598
0.426138
0.644152
0.34655
0.435299
0.332824
0.603299
0.413465
0.32811
0.318296
0.466263
0.337461
0.391466
0.358379
0.320254
0.345677
0.324929
0.326892
0.341886
0.734108
0.332759
0.325937
0.324173
0.335778
0.325818
0.344135
0.322576
0.370213
0.440015
0.386238
0.383576
0.328582
0.347987
0.34055
0.38722
0.886738
0.402576
0.773862
0.334363
1.45323
0.372867
0.518877
0.379458
0.377227
0.385895
0.330405
0.319543
0.35529
0.360863
0.314379
0.335853
0.322694
0.684794
0.322005
0.338171
0.376502
0.838481
0.215491
0.347374
0.819692
0.902557
0.624241
0.566498
1.07608
0.171251
0.415716
0.336732
0.355551
0.422527
2.1006
0.5754
0.394482
0.322556
0.322365
0.769944
0.353224
0.576713
0.581092
0.381372
0.594048
0.372848
0.614039
0.327605
0.366354
0.349582
0.318766
0.392702
0.316366
0.355333
1.11996
1.10442
1.09465
0.45933
0.80688
0.340947
0.315258
0.321233
0.373578
0.322409
0.378245
0.328866
0.418883
0.38098
0.31841
0.32189
0.36756
0.319839
0.340288
0.365733
0.328704
0.364317
0.522409
0.342511
0.381182
0.830015
0.372558
0.717161
0.836439
0.359719
0.392854
0.320961
0.485691
0.366965
0.378897
0.663367
0.32423
0.39053
0.3546
0.375035
0.328818
0.333363
0.489245
0.529196
0.375504
0.361676
0.796993
0.391528
0.642355
0.59109
0.360519
1.03288
0.445322
0.385758
0.362496
0.351666
0.406482
0.36274
0.308649
0.332875
0.243741
0.594675
0.227321
0.336753
0.370117
0.43495
0.211656
0.805871
0.342426
0.369648
0.399022
0.274705
0.402898
0.701436
1.78554
0.372962
0.334969
0.366678
0.62166
0.327544
0.383652
0.377788
0.334495
0.356648
0.341108
0.593173
0.331794
1.56663
0.389716
0.976329
0.337888
1.20126
0.834293
1.13171
0.354059
0.347406
0.475406
0.372387
0.339695
0.375212
0.343259
0.821188
0.319389
0.476884
0.624241
0.319393
0.327854
0.330159
0.331402
0.359284
0.360527
0.397109
0.397658
0.37208
0.353645
0.40551
0.344043
0.450336
0.334805
0.372186
0.326559
1.7131
1.11461
0.38052
0.447228
0.318432
2.25027
0.316283
0.321633
0.361699
0.318855
0.379577
0.362407
0.319919
0.315086
0.345458
0.944999
0.620813
0.37089
0.818164
0.322798
0.361423
0.33478
0.359573
0.806017
0.388842
0.8506
0.317305
0.338092
0.802472
0.895409
0.345725
0.345036
0.645259
0.377049
0.368553
0.493307
0.391824
0.376821
0.422206
0.377419
0.314329
0.384981
0.358135
0.487053
0.322199
0.365759
0.320095
0.341133
0.798743
0.688886
0.336123
0.350472
0.345408
0.360675
0.335633
0.538564
0.337633
0.354484
0.380303
0.356087
0.447437
0.405336
0.492978
0.381531
0.314832
0.329445
0.322452
0.38174
0.313383
0.539921
0.444766
0.3286
0.681015
0.344368
0.320686
0.362935
0.323361
0.375849
0.643672
0.343476
0.438713
0.369192
0.974969
0.398066
0.379582
0.373796
0.725797
0.375776
0.540187
0.374455
0.408088
0.352562
0.417003
0.391643
0.725959
0.458262
0.363196
0.336579
0.331943
0.562376
0.346762
1.05864
1.6559
0.375896
0.42806
0.357457
0.479814
0.456079
0.39146
0.896242
0.485149
0.669619
0.32294
0.393919
0.995747
0.490407
0.359125
0.476153
0.337219
1.12064
0.39264
0.386624
0.333213
0.321635
0.325616
0.347835
0.322795
1.52417
0.326794
0.651138
0.323198
0.43072
0.398216
0.534465
0.346783
0.351831
0.339661
0.591766
0.469649
0.5155
0.32393
0.326175
0.457533
0.375083
0.362596
0.321789
0.320245
0.321884
0.341622
0.32061
0.377407
0.32687
0.562405
0.434828
0.9786
0.772934
0.621164
0.571476
0.392919
0.400245
0.318154
0.599293
0.332799
0.346182
0.331282
0.463735
0.503949
0.333528
0.427658
0.79771
0.491191
0.323372
0.322766
1.31586
0.831092
0.386252
0.876659
0.888288
0.651657
0.769592
0.585336
0.739616
0.407805
0.648991
0.786657
0.319412
0.327258
0.313686
0.47492
0.615258
0.335869
0.32146
0.404208
0.365308
0.387611
0.844028
0.486117
0.96316
0.352326
0.32168
0.339685
0.320203
0.364601
0.824826
0.71111
0.692842
0.773215
0.325962
1.00307
0.837155
0.322682
0.533732
0.477354
0.786736
0.374559
0.48022
0.782958
0.798962
0.476121
0.855929
0.508975
0.765471
0.372068
0.346393
0.384855
1.0844
0.776432
0.396321
0.340003
0.565518
0.447402
0.588652
0.358899
0.379606
1.11652
1.20923
0.250743
0.325232
0.265392
0.321927
0.243473
0.38729
0.466477
0.616803
0.223178
0.440102
0.498904
0.149741
0.463803
1.55478
0.420812
0.38666
0.734866
0.339947
0.503761
0.33281
0.317602
0.336971
0.350615
0.824518
0.711922
1.40789
0.396978
0.393073
0.619922
0.38006
0.459766
0.412982
0.36464
0.34
0.597488
0.379924
0.403803
0.331031
0.426814
0.410418
0.772482
0.474443
0.817614
0.965446
0.789214
0.373731
0.40761
0.734645
0.331291
0.563513
0.363706
0.393867
0.328625
0.816238
0.614457
0.597896
1.04885
0.619903
0.320728
0.43857
0.873675
0.830377
0.394158
0.359352
0.470247
1.02103
0.3595
0.323042
0.363872
0.344118
0.76466
0.334031
0.629832
1.07359
0.848734
1.63894
0.550274
0.468203
0.807934
1.27347
0.878149
0.599504
0.755321
0.919988
0.541998
0.385203
0.454494
0.356508
0.312905
0.325934
0.42833
0.530435
1.54388
0.364948
0.391369
0.405297
0.377821
0.462105
0.574649
0.481985
0.37077
0.381805
1.02118
1.10945
0.22545
0.400202
0.338849
0.372335
1.44053
0.827973
0.372103
0.671571
0.337729
0.432946
0.475691
0.58107
0.347068
0.345455
0.331355
0.394852
0.904353
0.45603
0.360523
0.81536
0.321773
0.930466
0.710335
0.476001
0.704551
0.370421
0.322869
0.329387
0.328221
0.361945
0.408278
0.333118
0.347148
0.33302
0.328563
0.52201
0.700972
0.741798
0.330484
0.482211
0.369597
0.397366
0.352097
0.675762
0.363905
0.345561
0.343814
0.321133
0.336334
0.337525
0.46338
0.317043
0.362498
0.377906
0.624296
0.333017
0.400232
0.500328
0.810699
0.882479
0.392359
1.03601
0.567598
0.378665
0.355902
0.539814
0.335967
1.52609
0.434788
0.325876
0.433422
0.537978
0.413853
0.467634
0.734395
0.800937
0.465655
0.836135
0.348773
0.31904
0.403339
0.324256
0.323543
0.418208
0.328843
0.326559
0.584785
0.321802
0.298672
0.956559
0.619092
0.321432
0.323835
0.738222
0.340502
0.334148
0.5922
0.331998
0.745097
0.412945
0.781999
0.327378
0.55323
0.453042
0.689382
0.331198
0.447037
0.328961
1.158
0.364331
0.324068
0.859313
0.431597
0.507692
0.362037
0.377977
0.373685
0.329531
0.506529
0.328845
0.329032
0.314816
0.451001
0.557071
0.327008
0.333022
0.327679
0.326535
0.340004
1.0706
0.324004
0.458353
0.323336
0.589902
0.357555
0.37553
0.364708
0.476986
0.342115
0.436861
0.314187
0.343175
0.344384
0.360252
0.325721
0.441979
0.418827
0.869472
0.926663
0.806166
0.400732
0.352986
0.349199
0.321901
0.32329
1.03375
0.650078
0.405613
0.376167
0.316035
0.343447
0.316932
0.328392
0.534413
0.516928
0.776317
0.856888
0.379166
0.349518
0.422202
0.32411
0.612252
0.356636
0.457386
0.365507
0.368693
1.05719
0.426275
0.31629
0.340453
0.408065
0.323923
0.462117
0.322214
0.703054
0.380432
0.917181
0.493913
0.784587
0.328516
0.347356
0.363649
0.374433
0.369919
0.358268
0.321934
0.322268
0.328304
0.337096
0.35495
0.595215
0.38318
0.874098
0.423628
0.328997
0.520997
0.38169
0.361475
0.313108
1.06197
0.902188
0.324868
0.32435
0.32992
0.855641
0.336317
0.435166
0.383721
0.371596
0.288723
0.365668
0.362691
0.320986
0.423461
0.563025
0.96605
0.540547
0.445737
0.316383
0.408112
0.662461
0.357578
0.32588
0.855212
0.823768
0.436865
0.725013
0.327154
0.320248
0.408262
0.327793
0.874111
0.324791
0.323202
0.327652
0.682683
0.322513
0.365807
0.466666
0.474558
0.323392
0.34053
0.3464
0.340706
0.319374
0.355517
0.377325
0.593191
0.443385
0.372249
0.597232
0.364548
0.647096
0.370465
0.913423
0.453237
0.363726
0.701463
0.297775
0.43813
0.541212
0.59381
0.410165
0.32157
0.325139
0.318955
0.366208
0.853698
0.376962
0.323087
0.358335
0.38109
0.320666
0.492948
0.350979
0.37234
0.469202
0.344461
0.326831
0.359266
0.35026
1.39809
0.903751
0.395601
0.360908
0.433355
0.358388
0.813845
1.0983
1.1871
0.79164