/*--------------------------------*- C++ -*----------------------------------*\
| =========                 |                                                 |
| \\      /  F ield         | OpenFOAM: The Open Source CFD Toolbox           |
|  \\    /   O peration     | Version:  2506                                  |
|   \\  /    A nd           | Website:  www.openfoam.com                      |
|    \\/     M anipulation  |                                                 |
\*---------------------------------------------------------------------------*/
FoamFile
{
    version     2.0;
    format      ascii;
    arch        "LSB;label=32;scalar=64";
    class       volScalarField;
    location    "0.0501868";
    object      nut;
}
// * * * * * * * * * * * * * * * * * * * * * * * * * * * * * * * * * * * * * //

dimensions      [0 2 -1 0 0 0 0];

internalField   nonuniform List<scalar> 
47425
(
0.00550224
0.0051863
0.00448823
0.00199937
0.00341205
0.00461059
0.00472012
0.00328033
0.00742779
0.00199665
0.00247406
0.00735808
0.00537324
0.00406393
0.00334836
0.00381323
0.00467051
0.00265524
0.00027421
0.00297196
0.00385009
0.0070619
0.0031579
0.00511288
0.00688798
0.00708839
0.00400604
0.000512942
0.00442072
0.00569079
0.00741259
0.00710602
0.00745927
0.00472853
0.00584285
0.00493787
0.00713703
0.00537814
0.00494475
0.00438642
0.00509919
0.00498218
0.00514924
0.00260977
0.000820293
0.00340475
0.00350447
0.00452181
0.00406286
0.00659763
0.000673283
0.00271726
0.0062859
0.00101605
0.00330159
0.00297683
0.00711309
0.0054772
0.00237598
0.00526521
0.000906398
0.000741641
0.00098813
0.00329561
0.00738491
0.00707553
0.00555578
0.00440423
0.00109315
0.00534106
0.00408084
0.00607765
0.00657197
0.00359413
0.00132926
0.00746319
0.00102246
0.0039637
0.000258614
0.00210378
0.00131751
0.00503163
0.00741767
0.00742827
0.00687055
0.00398486
0.0058811
0.00624298
0.00474515
0.00145039
0.00723401
0.00451029
0.00726245
0.00324429
0.00260646
0.0018916
0.00651726
0.00603653
0.00362471
0.00460469
0.00557485
0.00101667
0.00624114
0.00102088
0.00643869
0.00692742
0.00667655
0.0034916
0.00690734
0.00703503
0.00300642
0.00526303
0.00610612
0.00228837
0.00733521
0.000357799
0.00733765
0.000772664
0.00438936
0.0055675
0.00412631
0.00747143
0.00591717
0.00286432
0.0036509
0.00694027
0.00389974
0.00741793
0.00337551
0.00733058
0.00721014
0.00349449
0.00106202
0.00295417
0.00545529
0.00527511
0.0068259
0.00674256
0.00467573
0.00327792
0.00499243
0.00284069
0.00477148
0.00543195
0.00649055
0.00742416
0.00409866
0.0054328
0.00242556
0.00499814
0.00549554
0.000556084
0.00739003
0.00043303
0.00323528
0.00394848
0.00309044
0.000308562
0.00388964
0.00466263
0.00751754
0.00717504
0.00632765
0.00693619
0.0012473
0.000519074
0.0074377
0.0013293
0.00322982
0.000829728
0.00133682
0.00415541
0.00479152
0.00369842
0.00493707
0.00133425
0.000404708
0.00442621
0.00601306
0.0071242
0.000331052
0.006634
0.00518474
0.00691232
0.00674367
0.00695284
0.00571283
0.0011592
0.00239348
0.00571248
0.00746962
0.00440979
0.00543661
0.0047427
0.00679245
0.00745364
0.00582731
0.00459562
0.00756219
0.00371278
0.00519094
0.00297987
0.00687877
0.00739143
0.00258956
0.0023725
0.00583504
0.00737243
0.00404635
0.00747113
0.00498865
0.00481956
0.00745938
0.00339317
0.0051148
0.00512476
0.00422814
0.0016995
0.0035604
0.0038316
0.00200635
0.0024917
0.00504639
0.00326347
0.00239089
0.00165627
0.00677195
0.00257491
0.0072916
0.00437464
0.00442292
0.00452435
0.00339675
0.00748891
0.0022475
0.00354756
0.0018415
0.00304253
0.00208116
0.00204009
0.00407697
0.00530733
0.0072857
0.00316272
0.00716085
0.00733138
0.00467544
0.00590031
0.00719365
0.00413113
0.00734799
0.00241416
0.00484857
0.00742027
0.00358678
0.00724553
0.0068743
0.00306043
0.00335402
0.00739655
0.0030758
0.00746105
0.00413159
0.00270505
0.00555179
0.0039575
0.0071002
0.0051368
0.00506175
0.00407112
0.00410605
0.00230836
0.00188417
0.00660197
0.00241674
0.00210441
0.00241467
0.000555195
0.00193295
0.000638442
0.000934088
0.00560285
0.000934028
0.00299802
0.00409324
0.00365119
0.00343384
0.00361194
0.00406214
0.00740281
0.000796966
0.00531784
0.00737543
0.00556132
0.00472352
0.00340967
0.00304076
0.00684214
0.00496191
0.00492201
0.00389882
0.00711306
0.0039008
0.00524567
0.00109717
0.000846991
0.000586416
0.00729549
0.00649249
0.00727969
0.00328586
0.000858268
0.0038078
0.00288673
0.00168391
0.00475594
0.0033475
0.00305913
0.00353697
0.00160096
0.00181737
0.00713634
0.00526924
0.00664715
0.00421824
0.00712144
0.00411941
0.00512745
0.00605629
0.00441078
0.00380798
0.00109912
0.00438168
0.00425484
0.00297255
0.00726322
0.000886893
0.00639663
0.00686709
0.00611125
0.00704375
0.00699492
0.00707777
0.00611316
0.006358
0.00623635
0.0053507
0.00683011
0.00388256
0.00414279
0.00688828
0.00706796
0.00526862
0.00674429
0.00671587
0.00274948
0.00413699
0.00743044
0.00656273
0.00385742
0.0019763
0.00596936
0.00427561
0.00352479
0.0066315
0.00672787
0.00283527
0.00743431
0.00495942
0.00725264
0.00281815
0.00107817
0.00406537
0.00740587
0.00192609
0.00737795
0.00490073
0.00388065
0.00502329
0.00709292
0.00563162
0.00726956
0.00720748
0.00481608
0.00410516
0.00439945
0.00397469
0.00616937
0.00717501
0.00397808
0.00677792
0.00664914
0.00416627
0.00563739
0.00492686
0.00672042
0.00524376
0.00369085
0.00324178
0.00649699
0.000860432
0.00689913
0.00213211
0.00484189
0.00350835
0.00349812
0.00668113
0.00244242
0.00671923
0.00362928
0.00703687
0.00110353
0.00106268
0.00723843
0.00294508
0.00396714
0.00369686
0.00402604
0.00437161
0.0039131
0.0040507
0.00493345
0.00708004
0.00313895
0.00459746
0.00640903
0.00341262
0.0040652
0.00619241
0.000954058
0.000425462
0.00677279
0.000509327
0.000527369
0.00401971
0.000501585
0.000744791
0.006584
0.00394562
0.00420104
0.00401519
0.000948599
0.00388996
0.00637103
0.00639643
0.00431029
0.00428471
0.00408244
0.00398136
0.000940637
0.000729878
0.00131907
0.00543763
0.00108054
0.00375672
0.00564018
0.00729981
0.00546664
0.0073546
0.00423024
0.00478988
0.00284693
0.00471348
0.00748961
0.00407732
0.0053628
0.00441942
0.00740299
0.00502526
0.00478989
0.0052313
0.00562933
0.00341503
0.00285363
0.00513705
0.00422999
0.00736107
0.00119057
0.00279416
0.00219975
0.00744278
0.00264535
0.00330921
0.00319142
0.00725364
0.00419323
0.00740285
0.00488692
0.00313831
0.00335378
0.00370185
0.00349444
0.0058443
0.00233636
0.000910399
0.00672163
0.00170545
0.00562539
0.00169748
0.00660682
0.0061584
0.0071266
0.00466032
0.00560071
0.00304469
0.00525104
0.00665392
0.00727319
0.00700173
0.00449506
0.00270838
0.00401218
0.0072694
0.00580614
0.00555404
0.0055201
0.00543045
0.00490456
0.00444867
0.00274263
0.00472301
0.0037204
0.000709849
0.00533268
0.00467329
0.00638056
0.00741181
0.00180832
0.0020115
0.00451036
0.00649454
0.0043456
0.00435464
0.00683812
0.0019766
0.00747838
0.00264956
0.00249736
0.00280784
0.00547722
0.00295693
0.00739266
0.00445413
0.00451255
0.00674329
0.00714127
0.00609853
0.000905322
0.00509897
0.00249433
0.00692624
0.00178506
0.00679264
0.00542308
0.00223574
0.00247426
0.00467488
0.00690224
0.000726246
0.00581055
0.00553207
0.00574921
0.00646183
0.00714476
0.00234111
0.00299401
0.00625493
0.0059316
0.00490104
0.00715524
0.00222639
0.00726037
0.00528569
0.000497987
0.00454447
0.00721538
0.0009816
0.00137407
0.00713185
0.000331433
0.000345429
0.00440971
0.00744564
0.00602844
0.00721876
0.00428504
0.00393179
0.0013347
0.00722034
0.00276718
0.00635064
0.00211583
0.00229307
0.00433298
0.00489338
0.00158926
0.00616563
0.00617288
0.00354193
0.00344068
0.0027443
0.00302781
0.00304106
0.00668932
0.00344934
0.00285127
0.00324052
0.00533349
0.00312994
0.0036205
0.00668729
0.00269032
0.00372521
0.00412544
0.00277175
0.00341122
0.00465395
0.00493028
0.00649981
0.00182175
0.00507898
0.0067373
0.00680721
0.000315027
0.00398503
0.00537852
0.000571903
0.000810451
0.00725196
0.00471893
0.000204465
0.00209935
0.00083629
0.00269803
0.00315411
0.000680806
0.00539313
0.00655249
0.00591127
0.00317211
0.00335463
0.00332832
0.00679794
0.0031602
0.00479936
0.00392314
0.00654029
0.00434869
0.00409625
0.00174574
0.000970663
0.00285356
0.00312756
0.00408037
0.00661144
0.00343349
0.00741588
0.0060541
0.00567864
0.00526897
0.00649613
0.00197955
0.00469527
0.00667259
0.00187205
0.00196984
0.000929956
0.00126296
0.00400032
0.00744488
0.00484943
0.00716683
0.00109137
0.00458939
0.00116255
0.00425866
0.00421328
0.0053939
0.00480717
0.00564632
0.00357793
0.00208837
0.00367636
0.0055338
0.00190551
0.0045172
0.00748589
0.00432484
0.00401485
0.00110784
0.00540756
0.00186367
0.00366336
0.00747323
0.00713047
0.00254852
0.00417759
0.0039528
0.00743062
0.0051846
0.00438374
0.00453088
0.00420295
0.00405886
0.00499131
0.000949435
0.000647277
0.00449706
0.000846148
0.0047256
0.00295815
0.00343486
0.00656666
0.00377485
0.00504875
0.00422753
0.00414431
0.00705593
0.000599481
0.00286797
0.00343877
0.00508235
0.00674975
0.00380213
0.00573975
0.0024619
0.00748377
0.00134123
0.00411566
0.00701919
0.00427396
0.00671679
0.00546169
0.00461753
0.00637234
0.00362792
0.00732414
0.00687972
0.00415815
0.00105604
0.00736837
0.000711384
0.00232942
0.00227493
0.000696208
0.00429169
0.00402083
0.00225787
0.00392136
0.00081451
0.000541295
0.000955453
0.00334133
0.00519788
0.00367352
0.00297309
0.000920101
0.00254422
0.00373008
0.00595911
0.00457701
0.00438617
0.00313894
0.00593045
0.00428083
0.00134482
0.00212107
0.00555938
0.00246468
0.00112893
0.0007262
0.00350051
0.000543851
0.00211582
0.000684481
0.000879347
0.00450059
0.0030405
0.00719383
0.00672859
0.00487205
0.000702712
0.00136294
0.00481545
0.00487124
0.0071985
0.000832634
0.000580092
0.00725534
0.00228291
0.00371504
0.00726065
0.00223662
0.00726523
0.00728331
0.00442708
0.00486395
0.00167466
0.00653096
0.00723757
0.00520537
0.0052607
0.00524299
0.00110013
0.00181168
0.00712997
0.00140207
0.00652955
0.00691288
0.00685605
0.00180686
0.00456876
0.00204822
0.00270159
0.00585853
0.00730203
0.00134279
0.000693052
0.00459322
0.00397876
0.00193744
0.0054127
0.00561463
0.00305575
0.00281739
0.00294508
0.00475378
0.00237179
0.00110936
0.0074237
0.00116381
0.00573751
0.00392526
0.00713646
0.00205088
0.00275949
0.00727349
0.00316928
0.00133592
0.00359254
0.00195918
0.00491841
0.00582953
0.00473569
0.00355196
0.00466883
0.00319311
0.000592054
0.00482298
0.00274617
0.00180467
0.00178946
0.00103643
0.00174597
0.00417128
0.000568381
0.00713028
0.00670747
0.00439515
0.00269338
0.00390611
0.0015136
0.00139052
0.00323691
0.00534214
0.00466684
0.00324209
0.00359196
0.00393912
0.00647799
0.00137041
0.00403695
0.00460862
0.00237733
0.00210754
0.00595895
0.000570412
0.00394222
0.00537286
0.00386736
0.00400229
0.00565407
0.00699884
0.00341137
0.00386354
0.000814151
0.00283784
0.00484542
0.00369562
0.00581281
0.00353181
0.000820461
0.00462427
0.0020589
0.00594427
0.00197924
0.00286743
0.00376016
0.00546198
0.00529346
0.00357871
0.00184551
0.00398845
0.00169724
0.00075451
0.00535963
0.00712452
0.00531958
0.00111641
0.00550777
0.00274506
0.00687652
0.0017142
0.00192609
0.00404783
0.00321275
0.00434297
0.00723605
0.00514788
0.00317574
0.00109813
0.00234363
0.00107482
0.00710149
0.00240733
0.00272648
0.00273039
0.00364955
0.00459946
0.00169639
0.00165476
0.00375981
0.000965361
0.00364003
0.00364831
0.00442491
0.00511642
0.00384233
0.00494246
0.00132524
0.0036625
0.00371317
0.00473398
0.0062538
0.000836689
0.00222009
0.000735931
0.0016554
0.00119598
0.00209591
0.00393658
0.00132969
0.0036002
0.00133714
0.00202075
0.00206124
0.00144338
0.00319824
0.00547448
0.00442174
0.00747052
0.00154418
0.00371655
0.00350004
0.00439701
0.00145614
0.00608626
0.00435676
0.00615955
0.00746068
0.00296813
0.00196277
0.00302174
0.00335985
0.00576202
0.00235775
0.006748
0.00321539
0.00312992
0.00731759
0.00248592
0.0021719
0.00439914
0.00223325
0.00399493
0.0029493
0.00206998
0.00294734
0.00314655
0.000231072
0.000660727
0.00165836
0.000574945
0.00336472
0.00341415
0.000617657
0.000804009
0.00550624
0.00109737
0.00335541
0.00418649
0.000548127
0.00264564
0.00710997
0.00321411
0.00160601
0.0064663
0.000725929
0.00034987
0.00230388
0.000844055
0.00226642
0.000992498
0.000871017
0.00564673
0.00456847
0.00278216
0.00211776
0.00373297
0.00736473
0.00223138
0.000716434
0.00507922
0.00175511
0.0043767
0.00205426
0.00648604
0.00608359
0.00207386
0.00206759
0.00425466
0.00183489
0.00532312
0.00149129
0.00725478
0.00622364
0.00330233
0.00193564
0.00490738
0.0073338
0.000803555
0.00162889
0.00163348
0.00373916
0.00282662
0.00209352
0.00118546
0.00413798
0.00118701
0.00229567
0.00532929
0.00324673
0.00218484
0.000818579
0.00222537
0.00190423
0.00589635
0.00540391
0.00207157
0.00411489
0.00275098
0.00504328
0.00740451
0.00663951
0.00417563
0.00276125
0.000782821
0.00433584
0.000508814
0.00430208
0.00445654
0.00295883
0.00551001
0.00380247
0.00424031
0.0046433
0.00195753
0.005954
0.00153127
0.00719084
0.000384153
0.00133849
0.00141004
0.00199672
0.00426198
0.005446
0.00349798
0.00593932
0.000681718
0.000793379
0.00342145
0.00231346
0.000978013
0.000969587
0.00235637
0.00118719
0.000532859
0.0036403
0.00605184
0.000531976
0.00391405
0.00471469
0.00439453
0.000926197
0.000647612
0.00403811
0.00408804
0.00138236
0.00253843
0.00106805
0.000804512
0.00328477
0.00109863
0.00121507
0.00338484
0.00477342
0.00120143
0.00626548
0.0013693
0.000240281
0.00735455
0.00461794
0.00393291
0.00566044
0.00303294
0.0031291
0.00744376
0.00299537
0.00416087
0.000895075
0.0016702
0.00491283
0.00140557
0.00460347
0.000402323
0.00691036
0.00370477
0.00239491
0.00602438
0.00104546
0.00396484
0.00310835
0.00238376
0.00265618
0.0039993
0.00418339
0.00212367
0.000738742
0.00637839
0.00133876
0.000755783
0.00163646
0.00405363
0.00107679
0.00183871
0.00478135
0.00543881
0.00111286
0.00184564
0.00233014
0.000838407
0.00258601
0.00100551
0.00313005
0.00288415
0.00220996
0.00100347
0.00559548
0.00635537
0.00219891
0.00428541
0.00255694
0.00317561
0.000881053
0.0054587
0.00392268
0.00575632
0.00144234
0.00560588
0.000606787
0.00231087
0.00557425
0.00739752
0.00195971
0.00177068
0.000950864
0.00199523
0.00230941
0.00119081
0.000917883
0.0041376
0.000947404
0.00451537
0.0029927
0.000465804
0.00162328
0.00308878
0.00296025
0.0056135
0.00158979
0.00052294
0.001744
0.00247665
0.00439228
0.00724946
0.00195278
0.00509062
0.00379521
0.00627921
0.00111569
0.00257141
0.00160765
0.00424503
0.00166075
0.00412365
0.00352476
0.00119677
0.00188314
0.00242257
0.00281298
0.00575394
0.000415164
0.00168529
0.00161749
0.00148201
0.00361028
0.00555316
0.00110725
0.000736031
0.0016575
0.00291537
0.00290609
0.00178292
0.00273046
0.00119744
0.00561549
0.00138382
0.00147821
0.00577074
0.00130793
0.00341812
0.00258866
0.00283635
0.00138656
0.00249868
0.00633515
0.000741062
0.00337235
0.000670853
0.00266821
0.00389073
0.00268978
0.00213199
0.0014202
0.00266272
0.00419549
0.00306913
0.00128886
0.00404204
0.00442764
0.000654472
0.00716542
0.00368796
0.000891852
0.00403465
0.00283392
0.00184611
0.00245207
0.00120103
0.00384202
0.000175945
0.00221287
0.00177918
0.00235306
0.00122682
0.00298524
0.000914943
0.001352
0.0013811
0.00284702
0.00399984
0.00741034
0.0041433
0.0037669
0.00291467
0.000723379
0.00378657
0.00599974
0.00480111
0.00518352
0.0033498
0.00418876
0.00741387
0.00745695
0.00301742
0.00101049
0.00701054
0.00283949
0.00250085
0.00539329
0.00671634
0.00288471
0.00247189
0.00747095
0.00571972
0.00341558
0.00360755
0.0066065
0.00388085
0.00116523
0.00390085
0.00377833
0.00585146
0.00716082
0.00213833
0.00478732
0.00598517
0.000817706
0.00150936
0.000996755
0.00685173
0.00099095
0.000447407
0.00669265
0.000367653
0.000819106
0.000611341
0.00396397
0.00496833
0.00428654
0.00152851
0.00702703
0.00444836
0.004532
0.0039791
0.00280267
0.00360602
0.0034987
0.00113208
0.00440013
0.00286066
0.000894232
0.00401289
0.000395445
0.0018507
0.0012928
0.00678441
0.00307433
0.00199458
0.00606489
0.00485148
0.00193108
0.00726759
0.0026246
0.00181992
0.000416354
0.00730605
0.00164884
0.0054617
0.00307694
0.00319846
0.00564101
0.00140796
0.00494353
0.00224839
0.0048065
0.00132216
0.000279148
0.00411947
0.00712293
0.0021833
0.00478153
0.000517473
0.00379511
0.0037999
0.00457518
0.00440593
0.00564746
0.00722185
0.00394376
0.00233283
0.00559173
0.00219698
0.00410243
0.00379578
0.00727854
0.00232307
0.00106084
0.00406327
0.00484675
0.00517822
0.00478657
0.00312247
0.00426584
0.0045544
0.00598748
0.00240298
0.00265299
0.00747211
0.00393064
0.00374058
0.00520925
0.00386003
0.00334798
0.00329393
0.0036187
0.00400475
0.00341488
0.00393224
0.00597973
0.00490147
0.00645669
0.00210935
0.0022578
0.00196179
0.00362432
0.00488022
0.0042803
0.00129128
0.00568799
0.00540339
0.0055689
0.00159549
0.00299895
0.00129398
0.00127405
0.00126484
0.00351211
0.00466148
0.00444971
0.00435301
0.00654689
0.00122498
0.00412043
0.00671402
0.00423991
0.00323644
0.00426232
0.00140127
0.00433404
0.00238321
0.0028649
0.00348821
0.00623122
0.00454256
0.00379369
0.00386394
0.00470416
0.00305858
0.00336707
0.00291899
0.00376955
0.00508308
0.0049635
0.00217514
0.00194318
0.00487955
0.00421724
0.00236321
0.00379675
0.00230412
0.00698018
0.0056068
0.00235713
0.00474841
0.0059299
0.00472824
0.00696716
0.00687203
0.00364472
0.00442347
0.00201062
0.00455248
0.00251772
0.00636344
0.0045236
0.000984193
0.00413601
0.00427016
0.00525509
0.00527524
0.00402111
0.00431336
0.000338434
0.00348243
0.00445181
0.00621097
0.00538817
0.00505558
0.00729309
0.00646514
0.00351875
0.00417114
0.00657585
0.00694218
0.00313161
0.000995866
0.00136798
0.00306892
0.00182082
0.00352676
0.00400394
0.00355291
0.00167384
0.00198391
0.00344526
0.00407571
0.000861812
0.0049218
0.00408032
0.00394031
0.0040607
0.00695139
0.000320739
0.00476144
0.0036797
0.00742895
0.00270641
0.00284375
0.000410586
0.000246516
0.00476718
0.00599583
0.00713212
0.00407113
0.0037233
0.00531953
0.000225735
0.00114367
0.0048935
0.002563
0.00142508
0.00505813
0.00477159
0.00320422
0.00712522
0.00512227
0.00686925
0.00438853
0.00288331
0.0039801
0.00431649
0.00528023
0.00204233
0.00437343
0.00743717
0.00130019
0.00571945
0.0036586
0.00329483
0.0010443
0.00148268
0.00350677
0.00287967
0.00549965
0.00284779
0.00290627
0.00612656
0.000601864
0.00160296
0.00287975
0.00396377
0.00340051
0.00394129
0.00390706
0.00121292
0.00731629
0.0068598
0.00574266
0.00538721
0.00093319
0.001346
0.00134809
0.00185013
0.00318453
0.00287979
0.00735574
0.00729116
0.00454927
0.00516478
0.00521154
0.00576342
0.00728419
0.00113558
0.0005538
0.00720692
0.00694994
0.00318114
0.00191561
0.00319661
0.00722104
0.00539674
0.00167444
0.000926091
0.00350582
0.00205934
0.00473413
0.00157107
0.000558679
0.00302645
0.00644304
0.00722329
0.00617158
0.000927476
0.00562352
0.00435011
0.00432052
0.00727023
0.000968505
0.000332912
0.000523603
0.00168833
0.00267845
0.00634208
0.00709764
0.00245279
0.00421739
0.000979764
0.000813298
0.000733524
0.000459131
0.000753032
0.00178804
0.00655229
0.000862148
0.00739776
0.000378808
0.00390528
0.000731552
0.00445937
0.00183378
0.00613083
0.00304738
0.00224759
0.0022551
0.00500388
0.00559898
0.00399004
0.000929708
0.00115268
0.00500427
0.00517333
0.000486227
0.000389042
0.00378866
0.0017774
0.000674476
0.00122072
0.004753
0.00695688
0.000862966
0.000601655
0.00157217
0.00713705
0.00131281
0.00645566
0.000729305
0.0011133
0.000507021
0.00245593
0.00588019
0.00166048
0.00687585
0.0046508
0.00394496
0.00232117
0.00641102
0.00376979
0.00510008
0.00383588
0.00425872
0.00704616
0.00659
0.00362921
0.00680945
0.00606081
0.00440001
0.00403565
0.00168907
0.00388176
0.00243535
0.00407621
0.00605534
0.00415745
0.000961076
0.00352796
0.00342367
0.00208576
0.000609489
0.00429075
0.00361468
0.00343407
0.0010217
0.00172278
0.00135176
0.00472031
0.00682068
0.00499508
0.00348006
0.0057288
0.0034397
0.00324067
0.00381914
0.00717126
0.00477937
0.00557673
0.00462808
0.0031853
0.00457351
0.00373062
0.000691852
0.00361371
0.00409917
0.00433653
0.00301132
0.0011503
0.00241015
0.00416422
0.00473485
0.00319975
0.00118831
0.00137449
0.00389324
0.00330428
0.000384509
0.00153359
0.00206461
0.00408403
0.00151839
0.00315096
0.00403924
0.00304105
0.001189
0.0047853
0.00413178
0.00236237
0.00658511
0.00239347
0.00273543
0.00318125
0.00333521
0.00194652
0.00426646
0.00585344
0.00724423
0.00197058
0.00331819
0.00438411
0.00284559
0.00514324
0.000879122
0.00294086
0.00333235
0.000455786
0.00189404
0.00565491
0.00347723
0.000904476
0.0017366
0.00235599
0.00719362
0.00291026
0.00110973
0.0056122
0.00739687
0.000689433
0.00195521
0.00144207
0.00354106
0.00444646
0.00474027
0.00148565
0.000595007
0.000736733
0.00416084
0.00578419
0.000641593
0.00624184
0.00183352
0.00308776
0.00156104
0.00109657
0.00465773
0.00347355
0.00118684
0.00403905
0.0046782
0.00461177
0.00362334
0.00543469
0.000958902
0.000302465
0.00401289
0.0036205
0.000711651
0.000564
0.000702775
0.00221426
0.00116258
0.00206123
0.000584561
0.00352584
0.00353181
0.000828316
0.00242815
0.00250728
0.000869026
0.000860426
0.000410175
0.00674238
0.00623517
0.00052608
0.00625067
0.00428354
0.00087342
0.00549276
0.00299897
0.00413196
0.00324541
0.00507248
0.00640095
0.000489211
0.000425906
0.00191539
0.000802956
0.0024261
0.00379734
0.00438242
0.00458749
0.00336993
0.00492487
0.00551943
0.00414117
0.00485398
0.00076315
0.000710283
0.00385613
0.00183299
0.00405824
0.00417492
0.00276816
0.00356494
0.00369045
0.00472208
0.000641099
0.00118671
0.00437628
0.000737416
0.00281983
0.00144823
0.0028739
0.00350548
0.000962814
0.00282281
0.00114372
0.00367917
0.00292088
0.0029193
0.00648995
0.00125815
0.00720589
0.00561878
0.00252248
0.0043134
0.00149786
0.00340308
0.00203434
0.00341421
0.000908043
0.00397007
0.00342372
0.00367251
0.00714669
0.00309958
0.00345321
0.00182052
0.0003824
0.00293211
0.000674509
0.0035166
0.00454271
0.00391569
0.00463032
0.0052032
0.00500571
0.00327272
0.00129985
0.0018052
0.00133072
0.000654363
0.0037248
0.00425616
0.000164809
0.00102715
0.00438957
0.00362009
0.00135159
0.00377339
0.000767285
0.000465707
0.00266126
0.00109103
0.00137036
0.00285636
0.000804417
0.00180354
0.00660629
0.00348703
0.00109297
0.0011935
0.00674957
0.00101689
0.0072422
0.00263374
0.00495557
0.00262484
0.00192048
0.000908984
0.00106131
0.00589195
0.00568932
0.000252027
0.00712517
0.00450166
0.00119732
0.006093
0.0028441
0.00359218
0.00354353
0.000531885
0.00153254
0.000703245
0.00174755
0.00315236
0.00118183
0.0059461
0.00510635
0.00109493
0.00677963
0.00374318
0.00264538
0.00519342
0.00137055
0.000572086
0.00698341
0.00241093
0.00720887
0.000796132
0.00441727
0.000610305
0.00282774
0.00265266
0.00631361
0.00254631
0.00268191
0.00665489
0.00513874
0.00331691
0.00727768
0.00135864
0.00334009
0.00353896
0.00613935
0.00432702
0.0035282
0.00265405
0.00290628
0.00192493
0.00316365
0.0038535
0.00407706
0.00152427
0.000605117
0.00082973
0.000738374
0.00125348
0.0008595
0.000987039
0.0028899
0.000269354
0.000741183
0.00127568
0.0019514
0.00275949
0.00111058
0.00102209
0.00242314
0.00139612
0.00214189
0.00612546
0.00279574
0.00127726
0.00392018
0.000665841
0.00314243
0.000471543
0.00195001
0.0011995
0.00144022
0.00136493
0.000798615
0.00192272
0.000683757
0.00266995
0.00207524
0.0043227
0.00173615
0.00508164
0.0057849
0.000991804
0.00340542
0.000958239
0.00174375
0.00507968
0.00235991
0.00407395
0.00137738
0.00114216
0.00752515
0.00569137
0.00159731
0.000994318
0.00368554
0.00269802
0.00114328
0.00113877
0.00445478
0.00722376
0.00389789
0.00416794
0.000785021
0.00733243
0.000936618
0.000361905
0.00507859
0.0027234
0.00419206
0.00379254
0.000864354
0.00279862
0.000762099
0.00327579
0.00434542
0.000550366
0.00100134
0.00539678
0.00236289
0.00537497
0.00663793
0.00122117
0.00280984
0.000777309
0.00371112
0.0063093
0.00243657
0.00699723
0.0048914
0.00532481
0.00505721
0.00275277
0.0024493
0.00143875
0.00362438
0.0011474
0.00479485
0.00691552
0.00217459
0.00131027
0.000867415
0.000893314
0.0017516
0.00198182
0.00106639
0.000983371
0.000811055
0.000882196
0.00322001
0.00301785
0.00404279
0.00139954
0.00507515
0.00288197
0.00316806
0.00145491
0.000542576
0.00348145
0.0031139
0.00347568
0.00465424
0.00339915
0.00429803
0.00616763
0.00473373
0.00267253
0.00298375
0.00270267
0.00556847
0.00295708
0.00148231
0.000772337
0.00419724
0.000594096
0.00744516
0.00327582
0.00694962
0.00444862
0.000948681
0.00272273
0.00119718
0.00372856
0.0035413
0.00353337
0.00448391
0.00487684
0.00353364
0.00327498
0.00479785
0.00743497
0.000830097
0.00309278
0.00129219
0.00288667
0.00103778
0.00585691
0.00456975
0.00343982
0.00390838
0.00293945
0.000989464
0.00654094
0.00398086
0.000914939
0.00246741
0.00243078
0.0027813
0.00243951
0.00238759
0.0022168
0.00500152
0.00751996
0.00665827
0.00200852
0.00156916
0.00473876
0.00048144
0.00540648
0.00181742
0.00700333
0.00635559
0.00193075
0.00435463
0.00635682
0.00102258
0.00742106
0.00416355
0.00149595
0.00278157
0.00705242
0.00134726
0.00679294
0.00719215
0.00115594
0.00304958
0.00288323
0.000809967
0.00740155
0.00203858
0.00139743
0.00171599
0.000988927
0.00117531
0.00484899
0.00582445
0.00288824
0.00602356
0.00194965
0.00292713
0.00538197
0.00611175
0.00348116
0.001201
0.00298763
0.00432116
0.00234671
0.00341675
0.00251194
0.00738845
0.00209994
0.00121508
0.00364745
0.00354165
0.00506941
0.0049467
0.00322347
0.00432477
0.00221281
0.00345324
0.000630203
0.00423315
0.00693605
0.00103609
0.0028688
0.000666562
0.000989864
0.00580201
0.00340595
0.00128044
0.0030926
0.000571125
0.0014678
0.000607122
0.00149273
0.000647908
0.00304001
0.00193549
0.00158196
0.000562762
0.00118034
0.00294211
0.000705046
0.00050021
0.00239403
0.000334079
0.00106176
0.00248925
0.00288568
0.000989335
0.000954555
0.00742826
0.00369781
0.0010198
0.000777358
0.0010952
0.00134872
0.00160598
0.000814939
0.00284105
0.00366566
0.00438072
0.00704139
0.00313244
0.00654564
0.00106961
0.00296493
0.00435892
0.000700059
0.00388627
0.00231242
0.00436817
0.00640926
0.00317239
0.00436644
0.00179055
0.00672908
0.00183124
0.000605287
0.00485929
0.00696719
0.00333359
0.00512524
0.00105637
0.00308953
0.00560538
0.00641351
0.00059681
0.00637862
0.00369882
0.00697801
0.00173553
0.00315222
0.00440101
0.00580142
0.00512637
0.00141432
0.00359989
0.00254345
0.00751112
0.00714721
0.00694748
0.00419174
0.00458665
0.0035949
0.00585276
0.0033673
0.00361751
0.00255852
0.00131075
0.00117869
0.00334901
0.00188252
0.00417108
0.00270011
0.00349551
0.00372368
0.00646196
0.00316256
0.00429201
0.0063439
0.00216976
0.00461352
0.00309743
0.00110203
0.00488108
0.00275126
0.00124819
0.00386024
0.00114524
0.00194943
0.00119847
0.000356273
0.00279599
0.005339
0.00196679
0.000470366
0.00363821
0.00714507
0.00628551
0.00549223
0.00347106
0.00455867
0.00727284
0.00713816
0.00381437
0.0028358
0.00744314
0.00656866
0.00742691
0.00539171
0.00304487
0.00181094
0.00304607
0.00620743
0.00342264
0.000945802
0.00529446
0.00599202
0.00369623
0.000560121
0.000621074
0.0037488
0.00539656
0.00493229
0.00320119
0.00497464
0.000655662
0.00183733
0.00492602
0.00403352
0.00607333
0.00348522
0.00185892
0.0041144
0.00324266
0.0035721
0.00135287
0.00197043
0.00164695
0.000976994
0.000317015
0.00251441
0.00193183
0.00378359
0.00389241
0.00342606
0.00325371
0.00589682
0.00437127
0.000477488
0.00671764
0.00180531
0.00119708
0.00332443
0.00297118
0.000698152
0.00203755
0.00403389
0.00384065
0.00743286
0.00300676
0.00103355
0.00381378
0.00158745
0.00560577
0.00276459
0.000739307
0.000881591
0.00338148
0.00323634
0.00109789
0.00466874
0.000701857
0.000634523
0.00125503
0.0074196
0.00698115
0.000360735
0.00610061
0.000509195
0.00205153
0.00315073
0.00112077
0.00100228
0.00626123
0.00739425
0.000971975
0.00633714
0.00594841
0.00491772
0.00668794
0.00427872
0.00379259
0.00225983
0.00563493
0.000365403
0.00316947
0.00420915
0.00378365
0.000319653
0.00420161
0.000576122
0.00486975
0.00332819
0.00370069
0.00112883
0.005599
0.00471139
0.00490794
0.000976928
0.00196541
0.00198649
0.00138316
0.00273752
0.00626134
0.000812756
0.00323514
0.00326201
0.00324982
0.00428835
0.00314964
0.00384972
0.00715965
0.000382942
0.0013468
0.00444988
0.00487825
0.00251462
0.00412898
0.0027524
0.00298946
0.00483575
0.00229823
0.00455939
0.00486742
0.00417371
0.00153791
0.0044915
0.00462569
0.00477476
0.003517
0.00673169
0.00537601
0.00508645
0.00277919
0.00420649
0.00271417
0.00256021
0.00361716
0.000575624
0.00494319
0.0028932
0.00135764
0.00105337
0.00151993
0.0036847
0.00438037
0.00189788
0.000548691
0.00396908
0.00107842
0.00400262
0.00726768
0.00273846
0.00175301
0.00383817
0.00452181
0.00743849
0.00505607
0.000348443
0.00502239
0.00659248
0.00250167
0.000444779
0.000606835
0.00371943
0.000294432
0.000826602
0.00114129
0.00198754
0.000974087
0.000565909
0.00516526
0.00096479
0.0039391
0.00529646
0.00516872
0.000550598
0.0021023
0.00692126
0.0057964
0.00102364
0.00442958
0.00055123
0.00542136
0.0029271
0.00482144
0.0029388
0.000649413
0.00739988
0.00315293
0.00282603
0.00570926
0.00370227
0.0059266
0.0028817
0.000499993
0.000494001
0.000695575
0.00150388
0.00129889
0.00590258
0.006368
0.0051015
0.00367257
0.00714078
0.0015308
0.00733139
0.000982276
0.00419795
0.0067556
0.00590371
0.00475773
0.00684153
0.00336177
0.00298955
0.00717415
0.00312887
0.000923299
0.00558087
0.00108641
0.000932802
0.00656389
0.00029503
0.00056702
0.00280128
0.0029276
0.00380094
0.00127312
0.00447739
0.00205615
0.00132819
0.00554051
0.00166409
0.00727333
0.00210289
0.0041548
0.00233164
0.00196062
0.000831327
0.00332801
0.00391475
0.000703089
0.00134894
0.00207316
0.00178371
0.00566124
0.00155389
0.00423604
0.00190243
0.00319598
0.00612316
0.0013277
0.00263026
0.0023587
0.00648079
0.000643159
0.000849333
0.000594555
0.00589705
0.004247
0.000904113
0.000619143
0.00182069
0.00382143
0.00250648
0.0011115
0.00081041
0.00182824
0.00467189
0.00368652
0.0043391
0.00517924
0.00399656
0.000601539
0.00512876
0.00180889
0.00312832
0.00684061
0.00258783
0.00264106
0.00518934
0.00389424
0.00563821
0.00228271
0.00161327
0.00470102
0.00443737
0.00213702
0.00332835
0.00282139
0.00195957
0.00211082
0.00359492
0.00613004
0.00597338
0.00541481
0.000788552
0.00371447
0.00101401
0.00282711
0.00384706
0.00519131
0.00335969
0.00701096
0.00247703
0.00747156
0.00213059
0.00237995
0.00359091
0.00441285
0.00240335
0.0034489