/*--------------------------------*- C++ -*----------------------------------*\
| =========                 |                                                 |
| \\      /  F ield         | OpenFOAM: The Open Source CFD Toolbox           |
|  \\    /   O peration     | Version:  2506                                  |
|   \\  /    A nd           | Website:  www.openfoam.com                      |
|    \\/     M anipulation  |                                                 |
\*---------------------------------------------------------------------------*/
FoamFile
{
    version     2.0;
    format      ascii;
    arch        "LSB;label=32;scalar=64";
    class       volScalarField;
    location    "0.0501868";
    object      omega;
}
// * * * * * * * * * * * * * * * * * * * * * * * * * * * * * * * * * * * * * //

dimensions      [0 0 -1 0 0 0 0];

internalField   nonuniform List<scalar> 
47425
(
57.9145
67.5235
72.3649
163.556
139.703
72.2452
94.0888
102.991
49.3942
604.348
139.426
45.5003
70.7077
80.0779
96.1224
89.9418
69.2223
48.5781
1264.14
184.683
86.0409
46.136
106.676
64.1001
47.2805
44.9038
78.7749
685.164
70.9899
56.1167
44.9391
46.4193
47.7489
67.4257
54.6552
67.7914
45.4811
67.5616
65.4733
75.1986
72.7677
92.4404
160.542
144.995
1496.72
106.39
97.0038
77.6099
79.0734
48.2261
581.665
229.552
50.2974
786.96
114.427
123.921
44.8589
57.9566
82.9975
61.9805
1080.2
1144.74
894.267
45.4523
49.3525
45.9575
61.6769
84.8021
756.197
45.4784
78.6314
51.8704
48.6688
91.3382
687.345
49.4038
879.426
81.9388
1367.95
261.048
711.037
65.1396
44.2245
46.9777
46.8525
83.0599
53.8239
50.7132
115.352
412.188
45.5264
77.6007
44.5831
115.101
148.001
195.83
49.2149
52.4357
88.3333
79.5305
60.5492
91.8617
52.6221
97.7351
49.9873
53.8746
47.8095
93.829
50.6249
47.0832
366.768
63.0288
70.0775
155.888
47.003
907.446
46.4298
230.193
79.5734
61.9471
79.6407
48.5455
58.3608
62.6321
97.9846
58.2731
85.715
49.1902
106.234
44.0551
45.7332
97.6095
128.895
121.868
83.7434
67.7754
48.4209
60.9558
69.3197
98.4306
70.9853
134.279
71.9704
86.148
52.9221
49.3289
110.121
62.8674
152.43
72.3852
85.3161
495.286
48.7576
702.234
47.2511
85.2864
59.2526
908.145
93.7013
73.4058
46.698
44.6012
50.3935
47.2829
402.419
835.408
45.8316
695.062
106.866
713.379
704.908
86.9205
73.8666
46.18
73.2276
66.5913
722.048
70.7854
52.8337
45.1427
1009.49
47.497
60.5929
46.7391
47.4258
48.7465
56.7635
78.5253
149.873
55.0912
47.927
71.8772
81.8796
77.0236
47.7154
44.5
61.8704
73.5817
45.5009
82.7662
66.331
123.099
48.5313
45.2969
50.1892
159.212
53.6921
44.7797
87.4727
48.4426
63.507
66.5844
47.2538
94.5525
63.0977
63.5613
74.6064
248.808
47.9936
93.6796
283.935
119.416
114.016
96.7245
167.449
238.677
47.6376
131.234
50.3382
59.9726
71.3131
73.3099
105.447
49.3227
166.125
94.1583
320.658
114.619
265.773
181.897
84.0952
59.086
43.9059
103.858
45.0255
49.4588
68.8052
60.6248
44.2319
78.0157
43.8055
216.722
67.4247
49.2834
91.9228
44.0406
47.3452
121.253
95.7475
48.3515
125.857
47.2691
78.5791
135.835
70.4444
90.854
45.3104
70.6374
62.8088
82.6466
80.0307
233.067
311.91
48.3462
218.749
180.193
219.387
114.499
296.273
181.601
1133.18
56.5489
1067.22
124.857
80.4425
86.7308
105.638
91.7813
91.4032
48.2553
621.395
45.6727
50.3438
57.1926
68.0309
99.9331
112.885
46.7925
66.4336
56.751
89.4009
44.7395
87.5913
60.6127
804.376
1046.51
678.784
43.9919
48.8403
44.4042
102.579
693.608
87.4168
118.061
241.883
75.0377
105.22
122.962
93.4201
409.75
213.438
46.1899
61.3548
47.3114
82.9471
44.6513
78.9849
62.0224
52.3059
72.3699
83.2754
656.139
55.0877
75.8128
129.136
44.2288
678.648
51.9615
46.2426
52.6005
46.7275
47.019
44.8497
53.3883
49.7998
51.3378
59.5732
48.0155
83.4089
85.2758
48.0473
46.0203
63.3642
48.7305
49.3672
48.4888
81.2624
43.8946
50.1377
93.4221
56.1765
60.146
79.7896
94.7953
48.1335
49.4938
132.351
48.2203
68
45.3952
131.556
1013.46
78.2717
45.1902
200.233
45.0893
87.7586
94.2297
72.551
45.8017
63.5083
45.5856
44.0297
73.7729
87.2822
82.8556
84.6089
52.8879
48.7684
84.0317
48.9169
47.4853
81.7054
56.7579
66.0293
49.0169
62.7401
90.3382
65.0583
48.878
489.151
46.3475
401.245
71.4341
106.581
104.272
47.8647
147.012
47.074
95.4381
47.2162
576.325
360.359
43.842
50.3575
81.1543
86.8306
82.1733
75.5555
81.4666
89.9974
68.0879
45.1413
102.76
71.3666
49.349
83.8732
78.6274
53.3396
143.605
1393.7
47.8525
281.795
1155.15
90.4497
1187.42
855.568
48.578
81.0597
76.4804
79.5284
738.135
89.0887
49.9608
50.2471
75.3974
75.9702
81.5902
80.9308
470.657
809.057
150.619
65.5458
72.3363
133.525
57.2926
44.907
67.3755
44.3927
83.985
75.811
132.705
69.2641
49.3502
79.7461
59.8368
79.2408
44.8785
65.16
67.7868
66.6692
63.5386
109.486
122.716
62.5302
84.828
44.58
506.711
130.561
74.1593
46.415
137.911
249.486
48.3238
44.1252
48.4674
47.3575
67.7577
50.0501
107.798
84.1946
48.7522
54.1473
145.467
99.1329
47.0016
51.6124
58.0507
55.2135
48.268
51.9334
44.974
69.607
58.4135
112.691
61.8056
47.6631
44.3061
44.807
75.2105
128.985
45.9082
43.8818
56.2035
56.1275
56.8571
60.0176
70.7117
72.9288
52.0232
76.9239
100.902
432.794
61.9358
69.3911
53.8974
49.3451
127.874
127.234
77.6387
49.5216
81.462
102.147
48.1308
137.222
48.4593
260.006
49.2735
51.9086
58.4842
122.283
43.7226
72.9839
73.8187
48.3229
44.4164
51.4803
1146.95
63.2252
149.404
46.5859
97.1819
46.7751
58.9544
82.3447
72.2225
70.8261
46.2297
401.287
54.6205
59.1581
55.1094
49.3178
44.8098
58.5223
115.72
48.6147
54.0599
68.0584
45.0814
244.848
45.4346
61.6979
514.288
72.5356
44.2801
361.582
564.217
46.4109
675.4
702.237
71.5747
46.6605
52.4657
44.9613
85.4661
90.2427
616.674
45.3753
129.068
50.1049
109.12
57.3108
85.3445
67.5471
534.581
331.702
52.3249
95.0778
96.8161
85.5023
123.157
126.647
49.1636
98.5497
132.907
95.3099
67.5463
132.627
51.8016
48.2849
133.146
94.1412
78.6963
122.584
102.165
68.1555
73.4121
58.9259
54.2844
67.8547
48.2944
47.1722
1332.35
62.1741
75.2188
1029.39
1001.39
44.3719
77.5219
1662.71
171.591
91.8948
293.076
119.462
772.565
59.3143
48.9712
60.0603
165.422
113.733
112.842
46.5799
119.202
67.1975
84.0149
48.9641
81.2822
57.7731
434.026
696.297
123.532
49.8698
86.9863
44.35
109.894
47.4398
58.2289
63.502
65.2154
45.8385
181.036
75.5679
47.7869
68.8157
189.264
819.178
217.575
88.408
44.1408
74.9327
44.7014
794.035
71.116
610.236
84.8962
106.943
66.0563
70.0313
59.7909
87.2787
54.4857
88.6123
56.6235
208.334
89.6155
49.2338
70.8801
90.0206
803.631
65.9791
203.771
68.1787
48.6645
44.6445
144.466
80.0941
70.7765
46.0534
64.4141
66.6903
73.8609
81.133
80.3511
64.7891
125.606
194.128
71.2254
97.6408
67.9198
114.733
92.7872
48.5224
133.156
61.6839
76.8968
79.5647
45.244
296.262
418.024
96.6499
66.2142
47.4595
92.031
54.7205
138.275
45.873
248.206
82.539
45.6864
78.279
47.8687
59.678
70.5585
49.834
90.2956
43.9406
46.0368
48.5373
165.428
43.3398
362.556
240.298
253.767
356.277
80.9059
233.51
58.6169
47.5594
147.464
336.348
378.603
103.787
61.1084
123.473
117.4
162.662
130.737
95.2569
53.5312
71.0017
99.9874
114.404
57.0468
83.0934
364.887
58.5095
62.7008
153.542
121.378
116.753
160.043
756.773
487.45
229.277
253.281
80.6802
120.046
44.9037
47.5067
72.6449
419.249
180.427
72.4506
73.6004
44.8094
362.819
381.708
44.1666
171.079
91.2065
44.2083
167.617
44.1826
44.6437
73.059
72.9711
85.4976
49.0507
44.3377
61.3738
69.6335
68.2907
139.583
105.623
44.4819
248.589
48.2653
46.6513
47.0973
198.405
79.8567
263.61
120.715
54.9252
44.2268
68.655
1300.22
73.3342
84.5822
72.5561
65.6934
61.1763
116.962
122.344
127.943
276.235
93.29
784.581
49.4171
66.9418
55.6868
61.9254
45.5409
168.717
127.899
44.9722
303.263
97.0253
71.2925
255.28
76.8178
54.1602
72.2761
66.9166
69.9569
112.743
336.044
67.0338
73.2954
209.364
222.995
666.135
217.588
90.1863
177.197
45.4807
48.4157
103.407
169.485
87.0963
83.889
94.6718
103.956
48.1454
68.5411
106.215
100.135
90.7358
326.735
527.589
95.111
119.257
148.824
710.505
401.019
208.924
93.3227
67.1483
96.5905
94.0753
194.76
46.1813
48.767
96.4954
435.072
122.061
72.471
98.3325
54.6823
109.944
127.932
78.6046
483.182
53.9406
64.9348
131.332
97.2587
65.419
66.131
104.735
101.317
92.4315
59.1992
128.001
46.2521
45.6196
46.9132
81.5641
58.0842
152.148
53.8787
220.968
292.647
271.673
99.0249
83.6994
46.6144
70.3006
114.964
489.354
236.461
912.451
45.7953
59.0221
54.947
322.079
88.9216
314.335
238.97
233.121
136.466
227.004
91.0375
86.8513
73.5849
46.9917
123.347
68.1131
74.1275
233.914
76.0258
67.2158
51.1028
264.219
407.551
150.678
194.717
662.083
192.963
92.8462
69.809
89.7211
108.093
186.152
189.778
618.209
47.1152
58.2084
72.9369
47.8428
63.8034
101.699
97.5998
54.0065
116.008
53.0727
77.8423
52.0932
47.305
126.047
66.114
119.923
45.9192
45.9051
164.387
47.9261
99.8151
106.085
45.9029
63.4402
113.692
79.3102
67.71
80.3906
555.27
185.641
125.343
108.601
1873.02
1021.19
654.272
440.111
103.91
50.0137
1101.64
418.221
54.808
64.4865
107.652
86.5066
393.525
139.81
46.8502
114.531
58.3148
49.2755
206.571
946.012
140.511
1189.81
153.908
247.855
710.375
56.9861
78.2202
134.666
303.823
93.7784
47.9511
47.613
840.442
96.1156
357.258
73.7843
163.669
49.1976
53.8948
552.937
567.905
83.8184
54.7527
74.4876
488.032
45.1116
50.8037
438.193
571.264
72.7183
45.5161
1054.85
820.683
561.156
100.464
247.368
503.879
533.684
80.2135
91.1304
105.478
64.4711
109.159
544.274
1395.21
64.044
60.2344
58.9582
52.3761
49.0917
82.1419
137.784
66.5265
49.5561
48.4094
84.723
361.087
1139.45
51.8177
230.854
99.9889
73.8471
184.44
57.2178
90.8392
76.3648
47.614
200.587
53.4663
504.271
45.2957
791.59
520.399
541.248
204.591
97.9536
63.8738
104.152
54.9028
213.32
1448.96
105.032
389.36
186.423
459.426
157.041
785.781
623.662
92.9696
53.7707
1572.09
86.5742
49.3419
74.3088
571.487
1067.71
80.7958
52.477
472.888
78.7874
865.377
765.413
108.698
117.619
864.328
103.909
46.0798
567.968
52.557
583.074
1014.72
44.6914
69.5569
85.0669
56.6426
124.103
102.852
43.9985
122.565
90.1576
117.489
57.8228
44.3665
185.606
183.835
610.495
52.6193
97.023
226.086
45.992
832.536
86.337
114.563
151.958
535.339
87.1631
447.649
182.465
144.606
57.0245
609.311
222.649
290.631
84.1958
161.739
62.1451
76.031
69.8895
337.217
257.25
108.028
725.828
150.102
107.461
286.611
127.386
145.458
775.814
347.575
51.6397
158.474
83.8658
148.416
306.038
975.823
58.3799
46.4556
62.3941
508.257
63.5054
310.466
59.7669
62.3146
47.695
147.44
56.1049
209.288
311.474
54.0754
61.7638
92.8844
81.4222
993.166
380.659
117.037
743.138
359.907
121.981
233.985
64.2437
57.7548
1085.95
57.3938
396.078
323.823
47.2863
59.546
87.6412
96.2662
56.2786
71.3573
136.344
77.6752
78.9583
67.2741
82.3514
251.429
67.2804
195.629
156.862
200.886
56.4467
735.803
428.167
56.1293
552.804
238.094
57.5098
109.915
659.728
220.021
48.1265
182.919
406.695
191.16
463.091
58.0879
569.848
110.145
55.0591
68.7585
109.857
179.988
125.278
66.217
255.543
50.1861
238.373
108.386
1252.38
145.487
80.7603
121.476
257.51
55.6618
257.304
108.591
110.825
651.783
79.5209
78.443
1042.27
44.3857
104.251
377.718
62.0484
272.104
752.012
153.126
74.0502
83.5753
962.36
304.113
387.845
316.442
77.9977
69.8917
102.214
668.711
778.549
290.201
89.019
48.2577
87.3784
88.3668
130.736
337.042
93.2312
56.0528
62.2733
61.4093
46.0732
85.732
45.2673
46.918
121.284
85.7113
46.2551
130.156
236.741
62.6181
47.9403
132.226
63.747
48.1204
55.7535
102.288
96.0569
50.6123
96.9279
591.052
88.5699
49.0394
55.2853
44.9469
238.784
68.3287
54.7367
699.709
819.958
285.198
48.8231
682.7
151.483
49.356
1039.86
95.7213
1024.13
91.4695
66.8155
82.3655
67.1052
46.5571
82.9992
84.5621
93.5334
116.145
90.1802
105.09
157.928
81.4688
79.3163
431.259
86.6225
1316.45
70.9334
682.497
46.7206
119.963
182.299
52.7983
69.0396
190.118
44.1209
531.632
329.314
1259.43
52.4696
641.905
58.6476
111.748
167.888
57.7025
571.431
86.7763
282.452
65.7973
731.095
699.875
80.2151
44.6537
430.172
70.5445
373.409
85.7907
96.5894
71.1629
73.2661
58.0325
47.021
87.4946
269.696
73.2192
177.558
85.3642
87.4619
44.5349
155.739
589.333
90.7001
386.36
105.971
67.8446
121.236
80.5627
74.5708
56.7333
153.58
132.024
48.5688
86.0638
82.3554
69.1432
94.3673
402.4
429.359
82.64
91.7309
311.06
88.2137
53.454
65.2997
49.3791
170.08
167.489
203.937
104.583
70.3918
74.9764
66.6616
55.8864
57.3599
60.0402
470.298
130.59
663.676
506.369
624.933
58.3577
69.3025
70.8754
72.7836
48.9864
317.559
81.87
47.6408
80.2523
111.391
75.3685
352.05
73.5704
157.898
109.153
99.8329
51.264
71.5479
90.5195
89.8694
68.755
114.841
98.5879
177.756
87.3903
68.9306
79.0925
152.374
172.327
65.8243
81.8595
135.788
98.1873
170.882
45.915
56.1986
137.346
69.3282
54.5756
77.0317
45.7917
46.8037
87.6135
76.1292
417.539
72.8061
89.1065
49.7414
70.9599
658.92
81.0655
85.8123
60.2551
62.5398
88.7597
86.6798
950.259
107.528
474.635
51.412
60.7847
72.1464
44.1823
49.4475
108.649
82.7658
48.6853
46.244
321.387
107.586
503.463
121.746
255.623
105.001
78.7242
109.704
570.786
183.387
94.6137
79.976
939.394
65.2831
81.4548
88.4795
84.1927
47.2388
960.086
68.0733
92.7504
46.8377
125.983
56.4874
926.944
1025.95
68.2977
53.7614
45.1374
92.6171
95.1326
59.9482
1190.72
809.116
65.4043
139.624
443.771
64.8818
130.408
119.12
44.8415
62.9391
47.2948
75.1314
223.443
87.198
79.2919
46.1295
57.1318
76.1685
48.6136
305.896
63.4551
138.313
158.258
425.683
313.762
103.529
134.644
74.0513
133.155
120.484
45.4663
600.277
323.41
131.228
93.8397
106.044
92.0541
89.5872
314.38
44.3302
46.3029
62.1916
65.0144
134.071
77.1871
367.417
396.945
46.8942
131.23
45.3045
44.535
80.2615
62.201
65.0627
55.379
44.0426
317.025
382.488
44.6768
47.1888
204.342
579.506
49.936
43.8379
87.3313
172.335
925.654
94.9937
388.434
386.316
447.99
387.792
72.041
49.7333
44.0441
58.4338
958.25
56.3481
85.681
80.6627
44.0064
747.175
1253.59
1230.52
201.557
471.979
50.0376
45.9068
53.9704
84.6407
803.152
666.188
374.139
547.954
372.132
56.5752
49.7184
850.444
47.8168
919.605
95.2552
915.317
79.737
143.082
73.1339
183.112
169.167
169.732
108.225
63.019
88.836
74.173
65.6643
72.0871
66.3137
1229.86
847.167
90.6736
344.018
747.253
324.454
69.1734
46.6463
672.146
524.994
499
45.7016
817.017
50.4594
972.846
659.998
743.106
283.767
54.0528
61.3388
47.3156
72.126
85.8693
163.39
67.1738
85.0003
62.4352
95.3972
79.2934
45.3702
48.9542
117.437
47.0485
51.9596
79.3486
83.0524
92.4656
88.8713
155.646
91.5861
53.0386
107.929
101.456
91.1653
95.0932
137.467
1112.87
59.204
338.15
69.0312
92.2418
435.054
68.4726
55.7801
46.9625
103.899
97.0316
55.0302
108.091
103.108
85.0222
47.3841
68.1619
57.337
71.6378
107.347
73.6129
100.001
287.225
91.7949
82.0937
77.2396
114.054
81.2512
343.988
45.809
69.3059
108.242
305.157
299.321
87.6119
104.346
943.461
236.013
187.922
91.2478
73.0582
111.109
88.9064
53.5507
134.005
79.1805
88.5712
405.397
51.6803
166.868
129.045
112.897
106.302
201.217
79.3737
57.7151
44.8676
54.1262
100.453
81.6272
504.073
63.426
91.6371
127.95
103.711
904.768
57.3365
74.901
105.372
278.147
386.343
149.307
45.5199
136.019
66.7325
47.3728
44.0174
545.426
101.206
59.4292
418.419
99.0906
69.7694
155.99
811.917
1079.94
159.186
70.0248
919.608
60.1898
191.577
131.254
568.775
316.141
86.7175
96.0249
537.484
92.5723
62.1925
76.2897
100.913
54.5134
64.4688
356.035
46.0441
102.403
561.014
151.246
567.36
85.5187
432.347
51.0878
1132.75
105.901
106.08
602.676
232.867
293.598
554.226
429.686
277.196
49.6443
52.7755
428.249
56.4411
86.3335
327.795
66.9047
59.9932
78.6039
151.266
71.5047
50.6426
738.246
447.719
168.068
344.269
169.135
92.5696
82.7592
79.9255
117.003
66.3711
57.0034
85.3612
62.3339
315.645
328.501
125.521
55.1262
87.8934
78.1082
118.939
106.761
98.8771
78.0909
333.069
59.5473
64.8476
360.809
132.593
575.661
208.621
99.2493
737.725
138.768
113.084
388.136
134.966
128.973
50.6366
585.154
44.9116
57.1048
52.6843
86.8883
68.4295
102.749
209.017
105.623
127.257
82.5746
111.113
100.495
44.258
361.96
151.407
593.298
1147.01
107.853
395.981
121.351
70.96
594.693
69.7511
61.3629
95.6938
111.15
684.466
400.402
54.2998
312.876
377.706
79.7132
1906.27
407.217
116.936
375.701
62.6912
88.8762
241.15
344.903
146.117
748.733
55.2184
52.5064
155.066
52.8277
48.3486
106.199
319.054
582.999
46.8141
141.39
44.7732
144.604
64.265
144.118
313.628
91.1536
282.003
59.6697
63.3978
792.822
45.2486
54.2221
111.37
53.5088
126.534
283.904
47.3566
952.029
545.505
891.85
466.484
119.396
68.2422
53.5994
62.0493
84.5942
47.7924
87.5559
150.208
63.7715
73.107
660.554
46.3594
160.455
46.0426
133.485
70.8838
729.899
129.187
100.753
46.0362
133.138
152.278
48.921
61.4918
100.869
43.8357
205.176
97.7211
106.296
54.9483
46.2647
103.419
48.1955
129.073
364.78
46.3059
76.1203
49.4058
64.9173
398.222
224.178
127.77
437.037
832.54
389.874
80.6011
543.915
425.46
714.12
72.3965
199.521
373.351
327.743
298.818
935.052
55.944
46.3472
196.672
815.369
53.9343
409.024
111.86
430.15
79.07
69.0757
601.287
575.37
358.965
58.3109
299.229
131.762
440.679
46.0133
206.892
65.0972
56.3388
96.2042
97.4234
299.401
112.971
64.4298
162.543
80.3109
258.562
367.851
45.492
70.2102
55.7663
933.365
86.4384
132.123
184.312
139.654
71.5002
45.35
92.2736
77.1188
441.125
44.3702
105.296
322.421
65.838
50.9339
78.3389
74.6883
688.559
139.495
210.969
97.2499
73.5561
1058.23
802.807
60.5713
146.068
60.7202
48.8788
411.329
81.7975
526.938
56.626
51.3451
98.5159
56.778
48.3315
61.6563
70.2508
137.537
229.753
323.741
379.892
70.7662
75.9205
47.4449
172.173
586.836
928.814
70.2313
518.198
182.939
657.076
79.0773
372.99
111.238
164.309
130.379
84.1276
264.875
73.9765
185.071
113.138
60.0566
1038.45
107.581
519.221
107.403
74.9081
110.144
135.306
68.0715
68.9445
318.176
107.652
123.73
57.4281
123.857
575.923
129.09
80.0141
161.737
46.648
63.0862
47.1717
75.947
78.9822
149.365
71.8067
96.431
94.0211
73.5071
78.4059
64.932
75.551
60.1658
321.346
50.936
106.894
50.3573
68.9509
126.433
78.4161
54.2371
80.0338
100.741
89.3409
128.739
352.983
48.6104
159.668
434.105
158.598
156.246
52.286
156.806
89.4449
295.934
65.4938
46.9175
53.8793
162.122
57.824
67.2324
869.387
192.806
362.054
46.0562
51.4459
182.882
81.1613
55.658
132.859
49.1077
81.8726
55.3822
392.841
46.1542
156.31
47.5823
47.337
77.3199
67.4249
133.229
105.978
44.1347
292.773
66.1825
68.8839
90.0977
803.992
66.1044
61.8034
128.944
61.353
57.1984
125.249
58.9713
51.9211
107.571
204.852
126.231
84.97
409.145
109.69
252.217
48.5098
182.401
65.0855
95.3856
213.884
50.3651
102.982
65.167
82.1063
158.502
69.3414
586.792
108.723
47.6172
516.877
131.394
1152.01
302.081
175.2
87.8187
94.8952
122.132
373.24
62.3761
447.802
91.556
365.608
66.3745
380.4
65.6248
249.009
219.878
125.896
367.74
533.676
416.3
1148.78
547.67
548.725
440.999
463.171
332.637
44.7892
96.7395
318.632
69.7457
629.048
58.835
482.065
622.995
121.576
101.286
77.2268
45.2058
115.214
48.5841
249.711
132.523
84.6014
184.948
85.8903
155.977
72.4807
54.3049
113.046
50.3704
221.716
47.5697
69.3786
704.786
65.9264
44.5279
105.955
63.6616
702.279
284.59
71.4577
66.0422
174.551
50.2801
84.5135
50.1828
52.8956
106.58
77.9841
57.052
63.3524
300.981
89.7364
56.7006
45.4008
44.7445
46.8145
188.092
73.3816
97.9412
55.1149
78.4576
99.1302
55.6006
245.604
72.621
48.6278
60.3124
83.789
140.758
112.065
99.5841
51.5609
120.074
85.4022
53.3509
53.0015
77.9553
82.171
100.941
69.9944
125.698
66.4961
88.1169
116.373
295.308
748.302
1122.51
124.83
61.459
469.984
170.673
156.766
46.6349
51.2729
45.5395
91.3514
74.9293
44.8459
46.3075
47.5867
113.786
44.0897
49.5852
44.9938
60.6018
177.333
54.9553
116.463
53.0354
97.3024
247.879
60.4966
54.6269
61.5422
1067.69
896.364
99.8189
67.129
68.4958
59.4838
89.962
505.267
65.5665
68.5489
91.3135
44.7352
95.9476
52.8061
85.6013
113.372
92.2293
63.641
206.222
263.171
65.29
2079.87
233.245
202.193
61.3672
86.5473
101.837
115.94
53.9871
76.4001
306.58
46.6585
195.457
602.949
106.847
125.134
662.661
65.8394
81.1987
92.9872
44.4253
120.477
406.486
92.7908
90.1116
447.208
212.065
1142.52
616.863
99.9983
49.6579
142.277
69.1139
184.506
148.039
562.467
49.8489
46.0917
644.184
52.7038
195.945
77.1269
104.794
652.144
854.701
51.0272
44.754
933.298
50.3535
54.5147
65.7816
48.0311
82.2174
148.721
259.505
61.8093
572.565
106.681
52.0673
86.824
708.74
81.5756
608.526
66.3256
61.2635
87.5408
85.2878
60.0477
109.883
65.3707
575.92
112.338
115.149
516.573
124.833
54.5271
621.609
110.057
108.092
81.9061
150.21
110.029
78.2896
46.4861
261.378
73.2424
73.7346
65.2481
119.669
81.73
59.0918
48.0892
66.2265
150.41
71.266
67.1592
81.9141
438.666
74.0865
70.4623
67.893
95.4728
48.4006
64.0131
63.4188
133.209
104.604
142.304
149.822
90.84
420.862
62.9105
57.3905
452.651
382.18
509.144
90.7437
331.759
54.1226
568.681
95.6037
349.796
96.4106
45.4623
116.687
202.675
94.0196
69.5249
45.1507
63.8231
431.6
64.1139
51.2965
54.6142
1610.21
355.106
46.5025
1512.48
579.498
334.803
210.235
1104.71
302.613
75.5497
349.022
90.2618
79.7755
406.406
1045.05
63.6482
46.6036
55.6147
502.701
47.1522
1046.23
107.186
130.29
123.21
126.871
338.751
44.2717
116.195
123.701
55.8332
106.07
53.3807
123.307
1986.39
1950.88
821.549
97.0954
621.207
45.6141
49.5066
62.9682
101.721
45.1504
56.1127
44.8573
73.4684
90.7538
47.1328
54.5233
77.2553
46.7497
101.223
122.337
45.8179
116.437
124.731
45.8346
55.4639
889.809
56.7587
836.37
608.357
128.412
134.19
84.4426
123.183
68.6984
54.3935
499.451
58.5199
59.6733
48.7535
52.8913
79.1417
142.974
119.029
178.796
112.831
49.0336
545.941
62.3051
309.844
331.383
63.6821
664.707
77.6215
56.3
60.7045
57.432
65.3208
49.2679
130.856
51.3633
378.975
216.108
382.338
57.1054
57.1166
83.0872
341.854
442.618
89.6066
147.477
64.7329
338.97
64.3372
150.14
484.344
85.9537
56.5413
91.7486
1033.45
63.8643
59.106
120.764
48.8984
137.818
129.156
114.306
85.2013
277.859
170.725
605.188
71.8754
270.714
390.399
340.021
54.3306
177.287
98.2544
103.587
54.0996
62.814
63.3926
475.479
85.985
99.7599
220.806
83.0225
63.1543
98.2709
47.2692
145.046
48.2532
63.5984
167.087
103.617
80.1397
168.727
99.7546
89.8194
81.3399
127.684
46.3375
312.538
273.027
108.95
103.618
46.3007
339.183
60.596
46.4178
86.1893
48.35
108.702
90.0567
50.0577
54.5931
99.774
280.975
239.942
49.6422
813.885
45.5887
97.525
96.3797
48.1632
779.636
149.698
671.044
50.0428
68.8532
537.038
679.919
89.862
103.333
188.091
127.985
51.5334
94.6411
63.501
147.368
82.1582
135.233
49.821
136.214
101.643
108.591
62.5231
89.103
44.9973
61.4688
574.721
329.364
108.176
85.8514
103.551
87.2848
87.1296
158.47
45.1877
50.9714
60.196
87.7084
82.5395
66.7708
113.732
54.39
57.9651
52.6612
73.0864
58.1316
69.7601
188.563
81.5874
68.8542
1078.63
79.3622
65.4213
79.4382
45.1582
83.7426
209.275
47.9127
77.8822
81.4892
725.704
64.342
62.8909
95.0982
1507.68
95.7886
157.011
122.489
66.2289
52.5229
76.571
63.7927
841.421
94.6656
68.3233
65.1565
46.1562
276.369
47.3079
486.498
432.537
112.12
74.357
59.3204
114.101
89.5976
58.679
433.502
118.836
305.827
44.394
139.121
642.233
118.765
50.4559
101.311
55.0972
681.377
58.476
54.4672
91.132
44.6695
61.2015
87.8772
52.5266
324.779
45.7608
372.47
46.7105
74.9674
66.9554
148.832
88.3797
128.334
112.792
553.471
107.6
120.868
75.7864
45.9602
103.494
58.7427
53.8521
81.9879
77.5073
63.7878
125.889
47.0232
65.0608
47.4154
287.829
87.2507
615.312
539.237
325.254
160.146
67.2473
69.8474
61.4549
196.403
91.8094
46.1131
44.3321
112.265
145.069
47.5953
73.0851
1067.21
116.802
67.545
75.6348
645.739
851.202
59.7128
543.149
553.644
200.877
348.263
166.934
528.005
71.945
226.99
740.256
75.5982
44.018
61.8628
105.35
314.194
45.0001
45.2066
69.9697
146.845
154.546
1051.92
109.379
1019.85
119.999
70.734
86.0536
78.0332
74.3813
577.493
181.748
311.454
457.831
67.6007
458.86
1478.62
66.899
150.496
112.203
415.327
151.923
125.925
710.775
1063.5
104.57
616.737
125.877
406.699
82.2553
45.8549
153.896
762.551
671.381
62.9542
104.727
151.374
98.0509
248.332
50.1488
70.9079
947.404
395.552
396.06
49.9661
394.207
67.26
390.276
57.769
111.829
194.003
326.289
87.3251
117.427
299.54
102.71
939.525
73.1364
60.2799
375.346
47.4809
147.949
46.0162
55.1954
45.1881
82.5956
438.279
452.631
327.235
60.0917
63.1863
292.488
57.49
547.797
71.3693
53.8893
82.1141
216.944
153.844
629.384
51.6033
73.5964
65.0537
282.654
101.673
572.662
905.926
434.879
104.583
62.7601
412.629
375.948
153.377
48.7521
62.7462
43.8372
713.259
261.615
459.058
1592.91
238.217
96.6539
80.9453
780.217
400.691
63.6855
87.9302
102.894
319.039
60.5214
48.0997
88.4804
81.1856
746.008
309.813
226.938
263.264
312.569
340.515
162.471
93.3144
849.36
502.43
713.711
203.399
328.879
636.691
152.196
58.8235
107.151
58.1523
58.6389
76.8082
76.242
139.597
279.853
85.6891
179.006
182.161
147.087
109.581
189.689
109.267
101.13
128.942
733.45
1126.29
480.851
68.4235
120.199
82.6761
293.582
556.09
156.233
625.822
80.5414
496.885
404.515
178.564
48.2139
45.5181
70.9479
63.3478
675.957
92.4887
58.5803
512.383
73.4711
834.622
441.593
105.32
448.786
62.9465
46.1416
47.868
44.1543
98.7111
64.2827
92.8034
132.433
74.3513
46.8801
148.858
708.711
531.435
45.0525
106.45
50.5576
63.295
56.1998
707.239
50.269
55.0305
53.5797
104.424
47.1467
54.5315
97.6723
56.4018
58.5872
54.3007
236.788
45.158
59.3901
128.381
410.667
312.738
63.7979
600.327
752.033
55.2013
53.6842
164.466
79.0005
303.349
77.6157
92.6337
82.2739
309.721
68.9343
93.1036
1046.09
459.523
92.854
630.219
47.3762
46.4516
63.4141
46.3419
47.688
71.846
54.9489
80.695
206.344
88.1936
378.816
230.636
231.713
82.1741
44.3878
608.628
132.292
84.8427
560.678
103.176
679.011
65.628
428.793
45.4524
179.977
87.3159
229.466
48.1923
86.2877
78.8581
761.489
49.045
44.1559
158.057
80.7655
131.842
60.4984
71.3029
91.5387
48.7699
137.17
49.7588
64.3413
148.258
91.7565
257.13
69.2139
46.4356
61.8118
45.8063
53.0524
268.501
44.0555
93.1894
44.5293
225.302
117.6
51.7645
113.941
112.277
57.9807
76.1365
75.8966
130.534
153.027
52.0584
48.3297
90.869
69.7395
309.001
596.176
504.974
61.2943
47.1053
58.2082
65.1307
91.2581
901.147
237.623
64.0405
53.7045
78.0814
47.6246
48.8638
77.516
150.138
191.411
498.92
372.573
57.4021
76.5277
77.5148
44.1916
235.528
73.217
112.325
114.108
51.1906
985.792
77.8576
58.3249
70.7686
71.6731
161.173
603.047
45.6897
480.972
55.5485
747.089
118.971
520.352
71.3206
45.8713
60.4159
104.681
50.7692
48.5141
126.605
45.4536
45.1779
54.5466
60.9169
229.074
55.4675
760.059
72.2934
60.9428
151.583
171.478
48.3969
441.536
962.309
747.208
559.264
442.257
55.2469
388.603
305.423
75.7469
57.5265
53.7692
679.503
91.0279
96.5557
48.9443
76.2456
314.456
760.81
158.674
85.6003
45.4112
66.2713
250.925
47.5239
56.4695
588.083
450.787
273.37
762.235
76.0728
47.2365
69.3104
82.8677
1141.24
50.5578
46.594
44.4753
283.666
47.1825
51.4643
93.5575
101.196
45.5262
114.099
47.1847
147.11
86.5539
142.408
52.6207
229.44
89.5846
112.769
170.196
111.597
264.098
50.5214
621.869
93.956
338.859
330.881
410.903
85.2848
121.803
201.985
67.5631
45.5766
50.8937
54.2574
87.3943
569.667
117.15
46.8228
83.6093
64.0567
49.2336
120.661
62.2917
135.258
100.628
47.5881
100.026
50.0886
78.954
283.348
565.091
71.0375
100.307
80.1585
104.489
529.27
376.878
522.001
859.886
142.71
47.2636
48.9876
44.9092
105.696
841.402
80.3446
784.97
127.898
46.1498
117.865
397.728
46.7682
46.973
56.0737
76.2737
60.0795
331.721
76.7615
92.4669
290.387
49.8065
97.7561
65.3014
129.65
136.735
52.4167
669.469
82.4415
112.709
56.3653
125.255
46.63
124.929
123.23
93.6797
93.1275
80.1224
67.5382
68.9574
51.4139
228.47
61.619
51.3972
116.411
205.418
232.425
137.563
98.4901
113.693
186.697
71.8107
316.283
111.507
136.896
102.785
94.4508
155.566
78.8299
115.039
452.924
100.994
53.9127
48.9811
336.437
91.0094
103.59
51.0599
106.806
86.7335
48.4334
95.1691
408.969
93.9433
73.0406
87.8305
665.357
75.0496
92.2224
146.922
59.8594
157.768
49.2168
753.054
84.4676
80.1656
84.4747
56.0362
115.948
56.0005
518.775
44.1725
77.9969
651.179
59.3679
112.06
202.355
101.535
49.1847
571.371
59.346
45.9833
98.6814
133.182
59.6445
316.933
45.656
357.772
99.7839
44.8822
72.8976
117.903
735.234
184.779
71.8401
45.9905
131.989
403.734
309.494
117.524
124.452
1003.3
212.717
337.804
128.83
83.8116
103.332
59.7955
524.222
1040.11
152.999
166.707
100.201
989.971
468.78
512.673
414.682
180.212
64.3994
52.2508
152.802
73.7492
559.986
319.242
79.658
826.673
108.361
92.5756
71.7179
50.8336
107.034
88.4042
91.635
79.7065
146.301
184.329
886.961
57.392
119.107
645.908
617.171
182.268
181.444
63.398
647.247
47.5258
65.8857
350.581
148.443
45.3766
337.596
440.524
71.7121
124.794
48.6979
96.3083
56.7011
80.9245
176.623
83.1919
617.692
44.6061
51.9777
88.8557
482.593
171.045
124.079
166.488
320.345
122.699
78.9792
419.743
109.313
70.7761
248.313
794.697
286.767
59.9796
380.106
160.408
91.2576
65.9118
129.007
47.6836
116.051
80.5828
75.2939
66.4361
60.0912
88.0152
45.2171
44.2219
49.4743
100.242
49.7595
160.572
396.914
737.527
97.3082
83.9474
59.6364
50.6169
103.884
663.48
52.6652
144.456
71.8655
220.86
66.4874
121.404
212.566
412.06
48.1943
57.3494
267.134
53.1478
71.8439
121.73
87.7207
385.485
84.7337
279.829
445.033
239.925
648.951
193.547
384.465
91.2353
145.488
146.535
54.4552
462.03
127.375
86.8701
165.2
94.9571
87.4277
44.6925
53.8459
50.5488
45.4447
86.8946
331.344
44.298
942.742
112.773
336.642
115.257
358.584
1518.1
54.9091
255.786
904.89
133.712
343.43
77.7107
69.9465
789.024
1010.93
278.579
167.63
53.841
411.944
103.421
606.103
53.4337
55.2848
235.165
1022.25
61.0793
81.9818
51.9882
231.654
529.068
48.4264
502.166
211.991
539.591
716.487
50.2526
357.996
74.3225
723.074
355.101
203.573
386.844
273.751
499.291
359.04
233.491
82.0071
77.023
75.7038
50.0327
54.1458
1358.06
72.7503
106.301
74.9188
82.6658
126.758
1079.48
141.026
259.459
303.221
147.961
312.931
128.355
45.1368
77.7843
992.133
625.612
308.025
193.06
243.912
86.9379
471.721
61.7624
258.209
299.392
58.4658
531.484
100.295
290.217
330.423
150.615
208.763
213.618
140.934
51.6148
142.18
62.565
541.387
72.9282
197.457
82.0216
257.908
57.5506
67.7383
343.856
123.157
304.392
46.3187
1306.99
46.2355
60.2652
56.4592
56.2878
91.9705
511.071
160.691
88.3494
667.548
75.8752
49.077
59.1043
874.928
64.7614
96.9521
852.06
330.594
907.295
512.979
155.316
202.078
161.714
188.414
743.006
66.3586
406.272
129.336
66.3475
181.209
65.5566
142.007
73.5727
614.734
444.603
552.707
358.885
254.107