/*--------------------------------*- C++ -*----------------------------------*\
| =========                 |                                                 |
| \\      /  F ield         | OpenFOAM: The Open Source CFD Toolbox           |
|  \\    /   O peration     | Version:  2506                                  |
|   \\  /    A nd           | Website:  www.openfoam.com                      |
|    \\/     M anipulation  |                                                 |
\*---------------------------------------------------------------------------*/
FoamFile
{
    version     2.0;
    format      ascii;
    arch        "LSB;label=32;scalar=64";
    class       volScalarField;
    location    "0.0501868";
    object      p;
}
// * * * * * * * * * * * * * * * * * * * * * * * * * * * * * * * * * * * * * //

dimensions      [0 2 -2 0 0 0 0];

internalField   nonuniform List<scalar> 
47425
(
1.21822
1.31397
-0.0157312
-5.33572
-21.1556
0.0944721
-19.0101
0.0289486
12.9942
-37.2773
0.0060639
13.5215
-14.5972
-0.0106479
-1.89398
11.9796
0.0329769
24.3492
-111.184
-35.7109
3.02083
15.6805
-0.0395417
1.04275
14.4248
1.05915
0.0986176
-44.1122
0.00507305
0.250779
15.5191
12.3758
13.6697
0.373271
-0.0180648
0.0243927
16.4148
13.4127
6.49796
1.27542
1.46749
0.39125
4.03659
13.338
-40.1205
1.21489
0.154783
13.2273
1.23919
0.562734
44.922
0.370128
0.207966
-30.987
1.03673
8.4819
1.25885
0.107014
-11.8584
0.0810554
-32.5639
-33.1962
-67.9241
20.6912
12.8378
2.88968
13.7475
-1.78526
-48.1769
22.9218
3.31538
0.774188
1.10242
2.8929
-55.6865
12.665
-67.4304
0.197755
-95.2162
-21.3127
-58.2322
10.1167
20.8942
12.5678
1.89938
1.22608
0.948524
1.47953
-4.1756
-27.009
14.808
2.01211
0.509762
1.22468
1.24984
1.25766
0.416108
1.30648
1.38156
11.4722
12.3945
20.9538
9.22143
45.383
9.13913
0.963939
1.41243
1.29266
1.79553
13.776
-39.4228
13.2843
0.513332
1.26855
-0.678325
34.3974
-0.30645
45.9091
7.82542
-2.98877
1.30842
13.6893
13.1596
-8.79439
11.2202
-0.474491
1.26459
12.7313
1.0792
0.558957
21.7183
0.81164
55.2174
7.89719
1.06736
-11.1829
2.09586
-0.492187
11.2223
-0.668294
13.7241
-6.16131
5.88548
-0.116592
11.2256
12.7886
-19.2374
13.0085
5.88316
13.634
0.415059
36.9187
13.0301
-8.65646
21.2164
1.16147
1.15658
-124.727
1.16632
0.318783
-1.99639
1.03687
0.706628
10.8578
-52.4026
-91.0994
13.0546
-55.4545
0.808998
-47.7693
-56.4424
0.577832
12.765
18.3496
1.25881
13.1165
27.3448
0.0588578
0.0448604
0.368589
21.1036
1.28185
0.0663011
0.0877873
0.209644
12.4321
10.2485
49.8867
0.389499
1.30099
13.588
0.46421
-12.1355
13.8039
0.41205
-1.60825
13.7747
0.961063
-2.32875
1.33491
0.330012
1.02333
1.89633
-1.21727
8.78901
1.86392
0.0148306
-0.814895
12.3636
12.6784
1.2839
-1.75633
12.7353
1.04946
1.23601
-2.84306
1.80443
-22.7842
21.2559
13.6145
-23.6001
-3.62705
4.06097
1.57341
2.22804
-21.3975
0.437212
-2.46579
-4.15729
-8.95539
2.22673
0.192925
1.12798
13.4253
0.124088
12.419
-26.3424
0.69254
-23.8181
0.0898859
0.13754
0.434709
0.549628
-6.87562
7.94306
12.675
1.26335
12.5701
0.809836
-0.0114532
1.10257
-19.3002
0.0420951
13.7555
0.250834
0.214456
14.9654
0.316499
7.24234
12.6072
0.273244
13.2683
9.75592
9.60434
-10.2027
1.25168
0.0865206
-10.1378
0.279237
9.87219
10.3205
-23.8512
-26.3048
10.2919
-21.3839
10.3007
-22.4521
32.4236
-24.6032
32.6316
-31.076
1.35395
-36.2851
0.720152
0.699204
-3.13686
0.650863
0.047934
1.56035
-0.47565
55.5238
19.6837
12.8602
0.0517684
0.0949484
11.2527
-5.66713
10.3923
13.1102
-9.32864
1.34228
0.950382
0.233046
0.170288
-56.1736
-69.3296
35.6395
0.442748
0.985864
11.3005
10.943
47.7507
-0.00636688
0.0759329
-14.3787
1.29901
0.517407
0.377429
0.142856
-36.765
-14.1254
11.9597
11.5959
0.0719807
1.09813
0.0805682
11.8568
1.19842
0.689766
0.214284
-5.64485
-62.1561
5.49737
0.120069
13.6209
0.0494974
-61.3367
13.2458
0.748929
0.824653
11.9456
11.6835
1.30668
13.5624
0.616113
0.0236323
0.159053
16.0621
-0.0635565
0.174231
12.1774
7.46755
12.3946
13.1871
12.6779
-2.79579
0.417291
20.388
12.9924
12.9434
19.2374
-3.84067
1.05383
0.142022
8.47509
0.969047
0.155311
13.0594
13.3187
9.80913
0.202481
-40.4891
0.946748
10.8772
12.8007
10.734
-1.18574
12.3638
12.6699
16.0279
12.5905
10.6782
0.980168
13.1457
1.15381
13.188
0.0590145
10.1526
13.6616
0.103312
6.23721
7.53742
-0.0231635
6.92671
0.55403
6.8216
13.561
0.0101091
-13.3198
0.339418
-28.3092
0.489684
-35.7932
0.20632
2.70409
0.255551
0.259668
0.0385882
0.149857
0.215505
7.61606
-66.9477
57.8104
1.00702
7.05884
4.74996
3.26455
0.930622
0.060327
0.54012
0.176955
0.705991
1.45444
3.16611
0.0288712
0.0908773
-5.83183
-4.40041
-1.37778
17.2918
-63.4983
0.956916
27.2688
-62.4955
1.6346
-65.9466
-31.7998
0.824086
0.385331
1.34608
-2.51716
-68.992
1.16007
0.886629
0.517897
-3.00257
-0.776011
1.07646
1.23659
-22.7818
-65.8769
-25.7779
13.5162
19.7695
-1.7212
1.06152
0.925607
-11.7179
1.18515
13.4846
13.7486
13.7671
7.07037
13.6742
0.851908
10.7943
0.193908
-0.730565
0.587347
0.511667
13.5445
13.6631
12.6005
8.32291
11.5651
1.06209
0.148057
-22.6309
12.6196
-12.6227
13.7053
-0.893637
-1.41286
13.1174
0.904903
11.5048
13.008
12.6358
9.58469
0.58463
0.261931
11.748
1.38241
7.74946
21.8028
0.894273
13.8982
12.5542
15.5095
1.28047
0.38191
0.985004
0.147215
3.04761
0.0454581
0.124379
0.977405
1.23452
-0.29302
0.134801
0.0204307
24.1685
0.0209656
1.56646
1.38406
1.04328
0.00960063
0.16845
11.6791
8.01723
12.7596
12.7605
45.2842
0.0768491
0.0267513
13.0116
13.2265
-20.5021
-24.2687
0.308171
1.33979
1.2737
-8.64127
12.3761
-26.6494
13.6614
-32.5847
27.4905
20.0527
0.156196
-20.8371
0.237835
1.2222
0.373466
1.85053
0.144959
0.821127
-64.3033
0.28242
-0.028529
0.343257
-19.2784
0.880472
0.115292
-19.3914
-15.3787
0.150769
0.225869
-28.824
0.413596
0.13431
0.130547
0.430072
0.308929
-10.9577
-10.0269
19.8442
1.59386
1.3037
0.0637932
-27.7276
18.9979
1.5509
-28.6296
0.08836
0.241758
-29.5733
-38.9383
14.3644
-28.4542
-28.4169
0.24507
13.5914
0.11401
17.4349
12.6341
0.103605
-45.9656
12.0353
0.0612642
0.727396
-17.0573
-10.3108
13.6607
6.99984
-56.2136
-28.25
2.47356
0.620828
1.02221
3.32118
0.621742
0.557801
12.6598
8.56335
13.6693
-0.895568
12.8065
-26.3127
6.21762
4.51365
-28.0895
11.2638
0.607261
7.5308
10.7246
0.643109
13.0666
-1.21662
30.1824
12.8215
-0.149949
1.43905
-88.5651
9.16187
-9.85521
-40.3686
-41.8292
0.269918
1.48388
-43.1539
0.0229781
5.26137
-19.3818
13.1242
-38.068
0.215277
0.206444
12.9152
-34.4351
13.7527
13.8257
0.394876
0.16049
0.948194
0.00390813
0.814454
1.06125
0.576943
-31.5602
-33.4525
2.45605
13.8176
0.255798
18.4651
12.0605
13.7266
13.7419
13.8002
13.7246
20.2121
2.80028
13.6669
10.0473
-7.22473
0.0991966
-69.9967
-26.9222
-0.0386795
19.1225
5.28172
0.18879
-72.5629
0.00125424
-56.6866
0.283274
-11.4698
-12.7878
0.726105
14.0541
9.93203
26.9895
0.379199
0.659696
1.11293
-14.5099
13.5971
-15.5143
1.22182
-72.3794
-11.1282
1.1017
-13.5276
13.6881
1.05235
6.31513
1.18581
-14.8429
13.5707
12.395
-14.2049
0.318636
1.13274
0.160737
0.828203
29.5212
28.1109
16.5745
16.377
0.135653
-0.0133849
3.09306
1.22043
0.1267
0.1609
1.1485
0.1115
1.14543
31.6849
-12.7032
0.0793774
12.4641
1.06048
0.998833
1.30637
0.0247915
-2.40441
-22.5558
1.21853
0.209712
0.107928
1.00323
15.6624
0.0559997
1.01754
0.803439
0.750791
1.15397
19.1901
36.5188
0.947871
-27.8045
-6.78154
-31.1729
-27.4459
1.08469
0.881722
6.05592
0.105139
43.4711
-29.0055
55.7266
-8.79217
1.86489
-15.9181
0.420283
57.8024
2.78335
1.15544
1.25808
0.230813
-9.34675
1.54036
1.14459
0.980252
-31.2642
26.4506
12.9918
13.2627
45.7767
42.0398
-14.9102
-54.1913
-20.4518
47.4442
44.3741
13.1482
0.615153
18.6728
0.443518
7.06916
-28.6124
1.99811
6.2168
7.5398
0.286066
-29.9062
-30.1634
0.146163
6.33496
0.702869
0.463164
7.52105
0.311205
16.8506
0.0838602
0.653385
32.9746
0.242584
-0.00477595
0.108921
0.488477
0.226799
52.82
-19.2445
0.0446145
5.85818
0.639635
16.5308
16.8724
-14.706
0.50705
-29.8503
-15.7746
6.74289
2.98475
24.8273
-51.0762
0.0717875
0.10952
-8.8643
1.21362
13.2747
4.08007
-0.0256142
13.8411
-38.4164
-17.5307
-51.7369
13.8132
27.3413
0.169767
-10.2692
18.2041
-15.2193
0.0552247
19.759
-42.3067
-10.9499
-16.5234
-31.0903
-14.6465
1.04714
0.054537
-11.8297
0.112558
-16.501
-27.484
0.0324416
-19.8326
1.08613
1.07104
-39.0827
1.15564
1.23068
15.2793
16.4591
12.8176
-22.6623
-4.24694
1.10368
-12.4635
48.7784
0.416529
15.0598
1.32676
0.514071
1.13881
1.13659
-30.0329
-68.4063
-10.0216
1.46849
-16.7218
-15.9353
-22.1554
3.33787
1.22549
13.3386
13.5331
1.27123
-12.0449
17.2727
24.4806
13.389
-28.0413
-16.087
2.78302
1.17308
0.47884
1.0941
34.0188
13.1683
-13.9013
0.299774
4.64293
13.2758
13.2597
13.1494
12.9555
13.4861
-21.6903
-4.63848
23.7964
26.1228
17.73
7.74379
-1.44844
36.3098
1.01764
-7.81001
0.726668
-15.0316
-8.83311
-4.9943
0.305049
13.4933
15.9517
13.2935
1.23209
-43.0517
-28.9285
-42.8874
10.9735
-8.68017
6.74812
-28.8565
1.3254
-42.0724
1.26524
1.23136
-5.98345
10.2059
1.31363
10.6728
0.363609
4.98047
-7.55736
0.928532
-1.42389
-26.1127
-8.22482
-0.308564
17.8574
50.9439
-60.7709
40.3338
-25.289
-58.4804
0.278038
1.02388
23.4563
0.516059
52.8663
0.516151
0.349361
-67.9744
15.1155
2.66491
0.320995
13.0419
23.0913
11.5202
0.872525
13.5552
-17.6207
10.3076
13.9736
14.2165
13.7006
0.902136
-12.6176
-7.54547
29.7685
14.7182
1.06008
11.1284
0.614712
0.652385
8.22184
-9.69368
-4.30893
-9.39916
-9.52103
11.3756
-41.8248
0.731043
0.662824
0.726978
-62.4278
-60.7691
-19.7987
-27.6296
0.995463
-1.13567
-37.8126
-29.4079
-5.05797
10.8424
0.871271
1.57747
-38.6026
4.61658
-0.848593
0.898776
10.3039
1.54408
33.0913
-109.994
-14.9147
-29.1708
0.969615
55.9706
-65.2507
1.49829
11.5627
3.03389
-34.6662
11.6024
-4.64933
18.0318
-25.7073
2.39009
-26.9625
2.90561
-10.0026
1.28873
7.76664
-25.4786
-24.9816
10.6782
18.7534
-10.4064
-48.7568
9.98592
1.40779
-26.293
-36.7673
12.3027
9.17479
-58.3053
-62.5139
-40.8778
10.9041
-6.35878
-17.6481
-40.952
10.4148
26.2734
-21.624
-8.16575
-6.10376
-22.6659
-38.6888
-5.36849
9.12923
12.8942
13.3658
13.6031
10.7452
-4.33868
13.6053
13.6346
14.4114
1.6782
-37.4882
-34.9271
11.5114
41.8299
-18.3494
11.9818
-20.0503
6.39154
10.8458
-8.5457
-2.92381
11.0242
9.77187
-48.8637
14.0388
-32.9461
-68.277
-37.8343
10.5101
-10.5836
12.5228
1.56656
1.60313
-16.9547
-38.0816
0.840784
-33.7966
-24.0523
61.4552
-21.675
-55.1847
-27.4669
0.0621413
1.4836
-42.2559
0.615076
15.6032
0.107672
-47.841
-38.9197
0.0385989
1.08869
-33.4461
-15.6657
-43.5341
46.717
0.441761
-7.86347
-58.2771
0.0409043
23.0866
-27.8454
15.5514
-72.3006
-21.0002
11.5119
0.346388
0.456085
1.08985
0.409013
1.68982
0.263184
0.451156
7.95946
35.5817
15.0844
25.5901
-23.1959
-11.749
27.3448
-2.65032
3.9594
-10.3438
13.8031
-70.5523
0.897033
1.13116
0.948058
-36.9604
0.883503
-70.5804
1.05393
8.07293
7.29353
-68.1768
51.565
-30.13
-22.448
35.5596
-3.6188
13.1022
-8.4928
-24.9066
-28.0453
-27.8676
45.1851
12.9639
-16.9311
-36.5355
-6.41411
-5.1044
-37.465
-29.6143
2.2754
-13.6757
12.8214
13.1153
-34.9548
-52.0415
-0.867382
10.1354
12.9882
-65.6656
13.184
-16.128
-12.806
13.1473
13.4092
-20.2291
2.92817
51.37
-17.7348
4.5568
30.7235
27.4267
10.438
-88.5608
-39.6996
-14.3001
-113.414
62.858
13.4901
-29.9441
13.489
24.2007
-77.4106
3.10027
-69.161
-41.4003
-2.63008
21.6251
-6.06896
13.3465
13.3692
16.3157
-21.1512
3.46532
0.148343
27.0419
0.340596
-2.68505
14.4242
-12.7164
-0.421558
-17.4398
16.4618
-60.355
-38.2085
5.33891
-35.0129
-34.5021
0.131309
49.6254
-40.5572
-3.54079
30.3485
-9.45207
-13.589
-22.5614
-28.9397
7.99211
-43.0979
-20.2069
6.48713
-1.7738
0.521952
-22.8767
-4.84806
25.7638
-18.0569
1.23017
25.5829
0.778872
-56.0058
0.248034
0.2457
-7.60414
-22.0577
22.2514
-3.61746
-11.7669
-8.02912
-71.3342
0.15786
-12.3292
-61.8998
0.999014
-8.51385
58.9943
-6.21227
-21.8647
-60.2284
0.162672
10.3837
-0.0166298
-125.544
-32.934
-38.9222
-32.6581
20.2811
-5.23906
-3.46771
-43.2286
-58.6562
-12.6465
0.53454
13.2184
1.2003
0.552405
2.9291
54.7062
13.6518
12.885
-7.49027
0.556637
15.9125
13.7902
22.8446
13.3992
0.503585
23.1448
14.1479
11.0136
-13.7498
1.52182
12.44
10.4707
-9.90365
12.6878
0.521401
1.18722
11.2769
13.5628
13.4615
-67.9739
12.7027
18.4107
1.07796
0.282571
-26.899
14.448
13.8196
-63.4821
-56.4718
60.0444
15.3321
-66.3939
22.0427
1.61141
-59.1698
7.97134
-62.8045
1.09102
1.18802
13.2437
20.2503
11.2556
1.17059
1.05112
1.47439
7.24107
9.54548
1.04618
-17.4332
0.880887
-11.72
59.0717
12.7067
-45.4111
-13.3392
-71.2
1.07713
11.5621
0.185041
14.1622
1.38304
12.7991
1.22717
-42.2314
-23.3784
-38.389
-2.81477
-8.14852
1.31514
2.9298
-31.7251
1.54285
-52.1749
-0.658839
-46.7357
1.76795
-58.8934
-87.6539
0.867517
0.0850117
-49.4788
0.261644
-50.4652
12.4439
1.90251
0.986595
1.02019
0.159328
-0.251725
-11.2505
-27.5137
-6.51366
12.4975
1.3258
12.5126
0.876045
12.45
-48.3799
10.1901
-37.4131
2.27424
1.26248
10.0207
0.629595
10.1185
9.52861
0.174855
1.20761
13.2879
1.12206
-2.86426
1.10932
1.20415
-23.5366
-44.0521
-3.89648
0.957294
-36.0207
0.974471
0.633277
0.489733
0.464251
0.0246741
1.15657
12.6193
12.3368
1.00748
0.757058
42.3427
1.25422
1.0535
1.39706
-45.4745
1.12876
-54.2022
-38.5899
-48.2672
10.0855
0.312274
1.18243
0.146356
1.04213
-44.289
-10.5756
0.909865
0.903922
1.18322
1.23407
-29.0281
1.22189
-0.0149497
-15.2079
0.692234
0.523538
0.329141
0.540988
0.337452
0.373243
0.574488
-10.6836
-14.8381
-0.0155603
12.5135
-1.4027
-9.05404
-7.81906
0.66749
1.06131
-10.4961
1.36846
0.157094
1.42383
1.03111
-9.80577
0.0292861
1.28521
0.664323
0.665261
1.58459
-5.45834
0.0433858
-50.1396
0.693864
-15.9719
1.29256
-0.00554432
-52.1636
0.0297094
0.767057
0.0583831
0.8767
0.889363
0.734063
51.305
1.04964
-29.3352
0.937205
0.246482
1.54126
0.84396
0.592589
1.09473
0.504199
0.818662
0.286534
-9.48316
-10.6943
-37.7671
10.9855
-11.7105
1.04471
1.20281
0.974488
-26.1473
0.185252
0.223208
0.159853
-54.9531
0.124413
1.38708
-0.0384993
0.251446
1.65549
-141.414
0.088568
1.41692
12.6269
0.0156716
-7.4399
27.5694
26.6069
0.0483015
7.59823
0.155998
1.08446
0.573786
0.275715
-53.5701
-56.0276
0.0955044
1.04925
-46.4393
-0.0660027
-2.85401
-22.0255
0.0720567
0.95382
5.28288
-0.0923537
-6.50562
0.0427001
1.32261
19.9042
1.29409
0.0261917
12.6546
-22.9472
12.7
-27.3275
-25.468
-29.6899
-23.1205
0.513181
12.6265
-16.9314
12.7713
0.683777
16.6767
-35.7741
-24.8435
13.0867
-11.5259
13.0619
0.696715
1.34974
-29.5171
0.883304
0.471145
12.8865
12.899
41.249
44.7454
63.1929
-16.4873
28.5843
13.1061
15.0889
23.2284
12.9626
0.69287
0.19778
0.486326
-0.0598166
-29.5639
-28.8701
0.718419
1.90272
-1.69964
-65.0189
-2.31484
1.08969
0.685513
-26.0068
-54.7789
0.790473
-46.4738
-2.84259
-30.3827
-39.7803
-14.8894
0.280361
0.752385
13.596
-55.9941
0.256955
13.7079
0.559754
0.155737
-57.7038
-56.3407
-61.2354
0.215684
-46.2843
16.7222
9.86694
2.49015
-15.4919
-66.1708
-64.9159
-27.07
61.2295
-27.5794
34.6348
12.6127
-40.6136
13.2297
-58.6857
12.6155
-54.4058
12.5091
-25.5912
2.82968
-25.3285
13.1548
13.0832
2.61942
12.9298
12.8108
33.4446
2.91198
13.0582
12.8217
-66.7019
-48.1504
-13.9386
-23.8786
-50.6944
-23.454
1.20252
15.2474
-41.8311
-28.9507
-35.8001
14.165
-61.8569
6.39758
-56.0502
-67.4436
-41.076
-13.7956
15.5539
4.41907
9.69798
12.9345
1.7653
-30.2745
-0.455432
0.336821
1.66325
0.18183
0.133984
1.2275
0.400978
-24.5295
0.315528
0.165014
0.493107
1.47204
-19.8387
1.13495
0.0299187
0.257584
1.67966
-10.2972
-10.3591
0.705556
13.7974
-29.7036
-66.9363
-2.82557
-53.114
-11.6437
-4.87147
-20.4383
37.5268
8.94359
8.73184
-6.92006
-0.00811973
0.141316
-1.35485
-0.02133
-0.0880842
-1.02571
0.0162804
1.78358
1.77208
11.9936
-6.13667
1.31586
43.7984
-0.0653505
12.9479
0.100181
-0.00268171
44.0924
-51.0838
24.7187
-0.0161302
1.03586
-24.3332
-28.1914
-0.702001
1.32273
13.4784
-11.5228
0.382125
0.130987
-14.6736
12.8782
0.0238797
14.0229
55.3875
1.17385
0.671882
-13.1779
-1.04818
0.880785
0.808014
0.678647
12.7558
12.7848
10.8642
12.9186
13.2441
4.77757
3.6779
-4.17963
-56.1976
5.60572
-6.90586
12.8266
12.7126
63.2202
3.62502
1.06957
1.03745
-26.7793
-35.8932
5.23215
16.5691
0.928303
29.6747
-5.14119
15.3045
-33.3853
48.4841
30.2794
-12.5372
3.37413
5.13679
-25.136
-63.439
-80.7189
2.05588
-10.431
-65.3752
2.38094
-12.6484
-6.386
-37.4891
-28.3953
2.05844
16.1602
-68.2272
10.9047
-6.58926
2.6774
11.1314
-1.96636
15.2359
-1.48954
14.6108
10.3084
-39.7982
5.52695
58.8915
-18.6437
56.3727
32.8975
-70.1871
13.8091
13.8569
-55.5816
-11.9818
-0.533774
-31.5609
-23.2379
-3.44518
2.22614
1.96836
-31.9987
-2.34001
7.26472
58.1999
-7.55889
13.3616
-5.91375
-17.4255
8.0501
8.13883
-32.5605
-30.6489
-28.2868
-29.3454
0.618277
-16.3269
1.11288
-17.0109
-11.1229
1.71072
0.958001
-15.1768
-3.69728
-28.9708
-28.9032
-0.560625
7.47876
0.73786
-11.1911
-21.2875
9.58899
9.25843
-15.9399
-28.4442
9.59464
-7.09285
-28.7185
1.99054
-37.2786
-0.587298
-3.88743
-51.1209
2.00838
53.3148
-9.71642
1.11017
1.16141
0.339822
-67.2028
0.904803
0.926665
-4.37378
0.297236
11.3194
0.760259
-28.1048
11.8579
36.8936
12.2408
12.0091
11.7964
0.982617
-13.0463
-4.29225
-8.1429
-64.9498
-1.19254
-42.623
-9.68389
-0.0296886
-60.4141
0.0441378
0.793795
0.77931
-7.33374
-54.7581
-23.4222
11.6373
39.2441
-9.04918
1.84211
-33.6489
-42.6589
-9.23436
-49.1906
34.4232
12.6315
-10.3668
42.1922
12.7353
-66.0325
19.7352
10.9208
49.6287
34.8816
12.6291
12.8705
61.5592
-44.7663
1.18926
54.9032
7.4392
12.8464
-9.16668
12.7341
-29.2054
9.37971
60.7618
12.9234
13.0728
38.5057
11.0588
18.6421
-7.09581
-2.35308
15.828
-39.7482
24.5947
-21.0813
-54.922
-68.9039
-23.2379
13.1605
37.3226
14.6768
5.16503
8.80882
12.4033
12.6891
1.25465
1.22756
41.5444
-40.5312
12.9919
-26.5024
2.24804
8.42498
-16.923
-66.7566
1.27994
-14.9553
13.6239
5.84032
1.12187
11.0518
-7.72367
1.37683
1.26804
-29.5652
3.07349
0.918675
-6.94902
11.0062
0.772669
22.4562
0.854499
-16.1456
28.2639
3.02178
16.6688
37.6078
-27.4681
57.765
42.3401
-29.9157
-59.0769
-28.116
-25.4446
-27.3699
-27.5617
-25.3877
-21.9272
-31.9265
-28.3279
60.1469
-1.33106
-54.6459
10.9663
-0.423636
-35.5889
-58.9092
-5.23868
-28.4824
-15.6424
-27.2088
-14.1032
42.4544
-41.9737
-35.4174
-27.5485
24.8402
-27.14
1.1882
-61.4619
23.7281
6.57283
1.20789
-0.889234
46.3812
9.17562
-25.2197
-10.1649
13.5429
1.15503
-6.54259
-24.5282
-30.3424
-1.50885
-3.80976
18.7703
-26.5558
-6.4786
1.3112
-21.0736
46.926
-1.65001
5.92666
1.26456
3.1073
-38.1741
10.7759
8.39903
-2.37864
1.40139
5.66785
-1.61048
-2.24809
63.4729
3.61852
-19.8705
-5.76568
2.53462
-66.5982
-65.6024
9.4693
9.77699
8.92404
11.8473
-22.3743
-8.6584
57.9997
-8.41653
11.6196
-18.6224
-2.33422
-5.07934
9.35817
-11.2293
9.35848
-18.9528
-28.5097
-44.7857
32.2784
-15.8002
18.1298
9.59837
-55.5147
-66.2686
33.3992
-61.1561
10.0306
-59.9691
33.8913
-3.23779
19.8082
-15.1164
1.20882
0.364541
-6.93143
-12.5447
-38.5028
0.964668
9.39794
-93.7028
13.6657
-31.0133
13.5315
-0.873549
10.9537
2.3868
0.0963059
0.256777
-4.5538
8.17623
2.09967
16.0816
0.490122
-55.6304
34.9535
11.962
41.2303
12.8878
0.197915
11.849
13.6894
31.1557
0.541416
31.0708
1.41298
0.445628
-20.0491
0.942859
0.324754
-16.2887
-9.35145
-34.1973
-2.92336
34.0899
6.56521
28.2648
0.873491
19.688
15.6237
1.03879
0.896602
0.459088
1.07391
58.1347
0.379388
-8.78649
-27.9366
12.9642
13.3321
15.7714
13.1788
-22.0642
-30.3755
-0.0402459
-3.03477
-3.00348
-13.0825
34.7054
0.249823
-57.1789
-7.69566
-32.7101
0.587131
9.41071
-22.497
13.0596
13.2145
-18.7213
13.335
1.21545
7.25292
-46.98
18.206
55.5183
0.74388
0.456353
34.906
7.42519
1.50948
34.7239
8.40386
-12.6565
37.826
-13.2267
39.6727
-54.8387
2.62133
13.7359
0.120513
-7.26518
0.310513
1.00935
-0.463609
0.247923
13.7439
-34.3918
5.22831
1.2426
-33.0021
1.03688
9.83618
13.2136
13.3452
24.8891
4.85178
2.21679
-5.98016
0.440015
-11.6352
13.0129
1.34531
-20.1582
60.2046
-18.9713
1.24715
58.751
13.2468
-64.0088
54.3078
-0.737387
5.26106
35.3653
13.3773
-27.3968
39.3625
-27.5102
-5.31812
-27.2156
-14.7577
-40.6597
34.5032
-5.38564
60.8837
0.85967
-27.8007
-27.0989
-69.3396
-62.9062
-35.2129
-65.7126
-36.2374
-32.0298
57.5537
10.1387
11.1562
49.8104
24.0988
-44.2198
7.79368
-46.5983
45.4463
1.06819
11.4927
0.0473563
1.159
0.847311
0.807862
58.9714
0.911772
0.91126
12.3185
1.05713
1.01827
11.508
-5.37951
0.98646
-6.633
1.01305
7.7382
27.147
-45.2357
0.688235
2.30638
-5.17148
0.663251
-42.0895
-33.3255
-21.3245
1.2014
39.4858
14.3851
-1.56072
-4.76192
7.47477
4.74028
1.03906
12.4146
11.9286
-28.1787
1.03738
19.4042
-2.32682
3.43045
12.3258
-0.230878
8.6373
12.5584
12.2588
-12.4853
11.9743
9.747
51.9048
25.9692
13.1359
23.2016
11.5779
-0.434642
12.1395
1.26282
-2.70363
1.18975
5.89631
-0.0308853
23.9193
11.6279
-15.9033
23.8339
0.194826
10.3642
28.6218
-12.8107
34.0223
-24.0753
-49.2921
-45.6028
0.723575
0.00173703
-21.7951
35.199
-7.52602
-1.43808
9.44455
1.85585
0.274835
0.0253404
10.1134
13.5994
29.9189
9.12319
1.98336
12.3937
11.9722
0.081298
-34.8108
35.9578
-0.0412392
8.48167
-10.5906
41.8382
13.4115
10.968
-9.0513
-46.0518
-63.4724
12.6484
12.5829
-4.49237
-8.72155
-7.68444
-28.145
32.7037
1.31374
1.20188
-0.675921
0.441196
19.0347
-16.8761
0.458769
0.41784
30.9809
0.467
-5.83793
25.8068
-33.1228
-24.0148
0.642662
-9.76408
14.4437
0.0100167
0.799811
13.1555
9.91767
-4.38938
21.4604
4.64197
-49.2369
0.883611
0.754622
-36.2035
-4.9688
14.2639
0.714129
8.37385
12.6903
61.0539
0.779249
-9.37898
-41.7022
-37.1572
-84.4411
-56.9431
0.786689
17.0498
47.2515
-0.0291293
9.30303
10.6687
-40.6159
13.8624
6.79434
-37.7122
13.4402
22.5458
-15.7888
9.74332
-38.5912
-63.9759
15.3721
19.4514
-47.8427
15.6386
11.5087
3.28477
14.8342
13.1318
2.0705
-32.6215
-5.48157
8.08743
14.7578
12.631
13.4962
3.66084
0.0315141
35.7187
0.0395433
-7.07698
0.947287
36.975
13.2257
-11.4075
5.2882
58.0588
-22.1315
-27.1112
-45.1042
3.78581
-4.55047
-48.937
-17.3005
15.0407
-14.175
-4.84809
0.0421402
-7.75783
12.5647
6.9582
4.47573
0.136359
0.311078
-17.898
-3.69029
-10.6838
0.938949
0.812533
0.271024
0.5159
-4.81478
13.7698
-40.1516
14.1023
0.469899
0.475531
12.0697
11.9185
12.9157
1.46236
0.519308
-7.37203
4.63301
0.55875
0.294906
-25.8683
3.56578
-7.59076
-45.1547
-27.5198
-35.6519
14.9727
-40.1309
18.383
-28.1212
1.22375
-28.1277
1.00375
3.02813
0.73174
-4.01709
1.16538
3.79469
-1.32467
12.6917
6.2699
14.1109
-4.04993
-6.66616
-62.8713
-28.0195
24.1068
34.6184
-37.5433
-28.3833
-30.6603
-62.7065
-27.6473
-7.17095
-28.098
1.63888
1.61171
-55.5374
-66.7018
-6.54207
0.490027
12.4851
52.501
-3.13776
-66.4802
1.97399
5.36708
-1.55542
0.428793
-30.4591
1.28557
1.31069
1.22453
2.66648
7.57881
1.02282
1.05652
-54.7823
-56.839
-38.5362
22.8629
-36.4551
13.0424
0.922105
15.0114
7.10607
4.67801
22.0663
12.5168
23.1763
1.17939
4.35112
5.8631
1.00224
2.71571
-11.0295
9.52443
14.0663
9.44656
42.8534
1.60705
23.2723
-54.2679
-3.65942
-45.3726
39.724
11.1028
9.98348
6.82027
-18.2228
-8.51991
11.836
-36.7757
8.05808
7.62034
-3.45572
17.6389
10.1946
-4.33901
-13.9323
-18.7039
13.725
-1.75814
-52.7847
0.312056
-44.0593
-33.7615
13.6041
-68.4019
-4.8995
34.586
-2.07514
13.5678
14.0759
17.4433
-5.21364
12.858
-27.8312
-13.7969
-27.3711
-4.19909
-8.0412
17.4114
-27.334
-19.3825
2.11669
1.29983
16.4194
-27.8585
7.69989
-0.249764
-44.4974
0.713889
0.586062
12.2732
-65.5101
-4.45674
-1.35361
1.11559
-0.988094
11.89
11.4132
1.22593
11.947
-16.9192
11.9718
-70.9145
12.2673
-36.4186
-28.7158
-7.48303
11.1696
-7.03302
0.49411
11.5923
-2.33006
0.893498
-7.18622
52.5148
0.164519
34.8827
-6.81301
0.0832379
-2.84567
0.225483
13.1391
11.7105
12.9093
-8.07515
0.194269
12.4713
-1.726
0.0265592
0.699505
-22.211
2.26034
0.302958
13.2761
-34.1874
-35.793
0.104649
-2.80953
0.72362
-30.1156
0.460295
0.367777
1.03212
0.298083
1.13094
1.06715
0.0360805
0.717327
11.9274
-32.4367
-22.1172
13.2658
46.0234
16.5146
13.0087
-0.0488214
13.7022
38.4714
0.0459572
34.4496
1.14958
0.128028
0.506129
26.3344
0.883972
0.0852373
54.8841
13.7766
27.9754
-8.19603
-12.4025
0.167311
-3.10232
-0.0405851
1.03365
2.79917
0.645628
50.51
1.05133
0.596118
0.653501
12.5311
-38.3219
-19.4948
-3.41692
2.61684
1.06148
0.517363
15.5781
-27.8835
26.1926
17.3797
2.51841
0.525002
43.1021
-12.894
41.0102
32.5076
12.2303
13.1117
0.357501
-5.55408
2.13055
-11.7032
-10.845
13.1307
-63.6035
1.26433
1.36046
1.04699
11.4199
1.07823
48.5561
-3.40095
46.4704
1.19139
-64.7552
-9.4152
-12.6831
0.947728
-42.4472
1.17858
29.0322
12.7717
32.6077
1.36447
-16.1139
4.41557
-44.421
29.6236
12.6138
12.3469
-0.08123
-22.4274
12.1762
-72.2628
-24.0303
12.6768
34.2829
12.5382
-20.773
43.8851
6.42455
-4.30814
43.4993
36.4668
1.90203
3.42814
-64.1579
43.2671
10.0732
40.3559
-4.05332
-59.0307
29.4122
-1.28895
-0.0710644
0.29007
-0.0639402
1.21944
14.4748
-42.966
0.372834
-32.3603
16.9106
38.9775
-11.0816
36.8217
-0.0870044
-0.0451204
-12.1811
57.1009
-16.7326
48.2828
16.7569
4.73105
25.0454
5.14012
17.5386
0.0329049
-0.0565873
0.010891
-0.0186389
9.33352
-13.391
13.8901
-31.218
1.78349
-37.7585
10.8908
-19.7709
45.3358
-1.63424
-1.20972
0.170008
39.0645
0.0741724
23.2078
-1.17455
9.02314
-7.26184
0.84159
32.2888
36.609
-12.1727
0.0995253
0.850761
-47.596
-60.1487
-7.73165
52.2559
28.147
55.129
58.342
44.7949
-43.6859
-0.90389
44.5679
-43.3917
-0.00846212
5.74457
0.0645054
-25.7134
-19.3184
-1.0602
2.09322
-7.51
-0.02495
12.0373
-36.5463
41.8905
-42.5394
11.9354
-1.09785
10.5318
2.06434
-4.78979
-71.7759
2.62045
-32.2317
-13.4273
12.3237
-69.2294
-61.2954
12.3648
-9.6338
-11.6511
21.1918
12.413
-12.3453
26.4677
-62.1791
-29.2306
-40.512
39.7953
-40.518
5.46179
26.0947
4.88161
-53.307
-46.1279
1.26467
0.329836
50.0923
-1.78715
-35.3814
-1.18431
-15.0691
-60.271
-19.2829
-28.651
1.89605
-29.1635
0.320637
-28.7797
14.26
-20.3825
50.3568
-27.4485
21.3883
-29.4236
-27.1398
-19.3802
-44.3549
34.1535
31.894
-36.8488
11.5046
23.9099
17.3741
6.6193
14.0212
-2.99583
-32.9457
-79.1412
-38.9003
16.7096
20.7007
-38.15
24.1955
-28.8277
-13.9341
6.71047
5.76229
-36.7425
13.3459
-30.0317
14.7669
31.2542
33.3275
61.2963
30.6235
-26.9314
-55.0582
44.4298
13.3294
37.6661
-46.613
-28.4487
51.5028
31.1672
-3.38837
22.7255
22.3586
-42.6982
-31.3338
-62.9121
16.8344
11.2982
36.8475
-53.6649
45.0976
29.5774
13.6147
38.0789
-35.6084
2.83941
3.14908
13.5663
-11.0833
-58.9411
-28.4496
46.1993
-0.638983
-28.3206
-55.0477
43.0047
47.2966
39.9202
-43.1178
-92.5646
45.9157
-27.0946
-55.5105
47.1932
-0.876411
-8.69559
13.166
1.19709
1.40199
-6.82587
44.7209
-27.1883
1.2528
1.64538
1.36287
1.90228
0.645956
6.0722
-32.1565
-3.74377
1.17906
-53.2303
-72.3666
-27.7823
-17.8495
-0.00869555
-16.492
-31.305
-39.5568
1.22733
-36.7843
-0.896022
-35.2386
-27.3238
44.051
19.9066
27.1884
0.00514934
5.6194
-67.5984
-23.9729
-8.43244
-52.9263
0.00758385
-57.1712
-40.0569
-23.9589
-40.1622
-3.53669
16.7577
12.5569
15.8698
11.8042
43.6474
0.0833142
-0.0326787
0.136101
15.4639
-12.9689
-58.4087
-51.643
16.7687
38.1336
24.9309
30.1903
1.07147
-59.3036
-4.66346
13.4802
5.0429
-0.0170005
19.7589
8.47837
-12.793
15.5384
-9.74177
-8.46626
-5.22791
17.9868
36.9626
-29.7509
53.7901
-32.5238
19.9661
-72.5665
-53.5614
-9.07985
15.5864
34.7882
-7.75245
-41.94
7.29937
15.2951
-18.5515
-29.131
16.7994
47.5981
60.3539
-61.6397
-1.34016
-57.1931
15.3032
1.82136
-9.47052
11.5569
7.9772
-16.0689
4.24583
9.06501
-39.5825
-7.67697
-27.643
-14.6805
-31.4473
0.125885
12.8959
-72.095
-15.9689
0.0155342
61.3843
13.1874
46.6854
11.7633
-20.333
17.8134
2.0063
34.4527
55.8978
16.2696
34.5212
-0.0967752
-46.6981
13.3794
13.2151
-1.14196
7.09446
-34.6158
-3.39815
-7.08048
13.5298
4.52575
-21.1624
5.83257
10.4439
-5.94138
-11.6999
-26.7915
-0.0575544
14.5315
-0.0119374
15.1703
0.00614044
-18.2339
13.2113
-21.8023
12.5828
-33.1909
-0.0502811
34.5447
-8.89003
36.0918
0.027017
8.66476
-0.0440212
-0.0113165
-4.59207
7.43577
17.7216
34.5234
31.0225
-35.7179
-52.5622
42.6332
24.8971
22.1007
6.08271
-0.00876594
0.209286
-71.5729
44.1199
19.3535
15.2109
0.0669328
19.2855
0.162675
0.0930293
-20.182
-22.6976
-36.0472
-36.4734
7.98938
2.18433
-6.71872
13.1673
43.3355
11.6302
-12.8919
11.6216
-5.98302
-74.9553
-15.3386
0.302837
4.65275
-7.96422
-5.47989
-37.0746
13.4006
-36.3121
23.9237
-72.1729
-30.4613
-26.4166
0.298432
22.514
3.20951
13.4749
35.566
13.5293
-9.716
11.5123
12.3245
9.42182
13.4291
-38.3073
18.9932
5.19082
43.5577
12.8371
-21.512
13.6207
13.5323
-29.1711
-73.8234
-28.4406
-28.8833
-28.7666
10.3342
59.0668
-27.8695
-4.51831
12.3023
19.9914
-28.9442
0.602801
0.598567
11.4281
-22.3532
-29.6711
-45.7587
31.799
-1.09584
1.18645
3.85828
-30.6926
28.5282
10.4137
-54.536
-29.0252
-28.4946
60.6429
14.711
11.1186
2.79328
14.7981
-59.1824
17.3808
11.7295
19.6137
-1.3241
17.92
23.2014
44.9117
36.4002
11.1758
-15.8391
22.7607
-8.95132
0.674581
0.604878
31.5121
-29.8956
-14.2002
0.574285
56.0189
0.60468
-30.9212
31.1748
21.3205
39.4516
-28.0829
-23.1864
-28.6296
31.9171
-10.9754
-29.9213
-8.0871
11.8915
1.96531
14.6855
0.909596
15.6606
0.741234
11.9622
0.89705
-11.3809
0.333485
35.1127
3.02961
4.91426
-25.5791
8.76481
1.31475
9.98203
-5.75887
-37.5825
-48.7474
-20.2152
5.18876
37.0748
1.28743
58.7855
-43.3926
59.2031
52.7188
1.14321
4.37098
5.97903
1.0295
1.17964
-87.736
10.9574
-31.4214
-13.0806
5.27635
1.19037
-26.7137
6.65128
6.5857
10.134
7.3123
1.08065
-38.7365
-3.49967
1.27374
-10.7023
1.62595
0.980502
1.51556
1.25495
-5.71722
7.08481
-54.8521
1.06392
1.31751
-10.7489
-6.30901
23.5513
-18.0705
12.7649
12.6513
-0.0608132
0.277197
-9.14305
-16.2905
8.82925
0.15807
-1.82912
9.94717
0.112629
57.351
0.106996
2.81562
0.151321
-0.000963064
-27.939
0.00940505
-28.146
-5.1389
52.5424
4.7079
-0.40136
-3.82523
-0.378643
-3.58219
-41.4973
1.92393
0.108673
7.4347
-28.1164
0.0861723
7.86968
28.4059
42.6182
-10.2276
9.66154
9.55094
-44.3216
-23.5204
0.0532925
48.3072
-58.7912
-21.2494
-7.65002
49.7569
-9.25069
-9.70413
32.2924
-65.2241
-2.10994
0.119909
0.0577941
0.021646
-0.00145916
0.00367711
-32.3453
17.8454
-0.0107162
-54.4013
0.40894
0.133117
-9.16001
3.17969
15.8532
-47.451
6.24797
16.2141
-25.7146
1.71931
15.7858
59.4203
15.4131
-46.7797
41.2459
17.9383
33.0911
0.324817
44.0629
0.59749
6.1594
24.3021
0.159843
-44.6277
-24.4729
0.718149
0.710926
-137.823
18.7733
-28.7971
1.15811
-2.04952
1.14131
13.7517
21.1515
48.3844
13.7599
55.1414
13.726
-82.0351