/*--------------------------------*- C++ -*----------------------------------*\
| =========                 |                                                 |
| \\      /  F ield         | OpenFOAM: The Open Source CFD Toolbox           |
|  \\    /   O peration     | Version:  2506                                  |
|   \\  /    A nd           | Website:  www.openfoam.com                      |
|    \\/     M anipulation  |                                                 |
\*---------------------------------------------------------------------------*/
FoamFile
{
    version     2.0;
    format      ascii;
    arch        "LSB;label=32;scalar=64";
    class       surfaceScalarField;
    location    "0.0501868";
    object      phi;
}
// * * * * * * * * * * * * * * * * * * * * * * * * * * * * * * * * * * * * * //

dimensions      [0 3 -1 0 0 0 0];

oriented        oriented;

internalField   nonuniform List<scalar> 
92401
(
0.147545
-0.0961067
-0.00706046
-0.0443776
-0.0623953
0.0600553
0.0376449
-0.0353049
0.0224244
-0.0399224
0.04314
-0.025642
0.00651648
-0.0128838
0.0127121
-0.00634479
0.00138132
-0.00049241
-0.0058581
0.0049692
0.0195414
0.00976268
-0.0254816
-0.00382249
0.0056773
-0.00467504
0.00037906
0.0324245
-0.0256892
0.0128061
0.0480896
-0.038644
0.0324487
-0.0418943
0.000396763
-0.000945703
-5.20929e-05
0.000601033
0.00467962
-0.0417904
0.0383327
0.0241564
0.0244135
-0.0869026
-0.0170851
0.0109105
-0.000134987
0.00630955
-0.0345388
-0.0403253
-0.0172151
-0.0176501
0.0586585
-0.0237933
0.00213461
-0.0662577
0.0641231
-0.00235173
-0.0077133
0.00199804
0.00345182
0.00226344
-0.000949141
0.00150075
0.000255491
-0.000807099
-0.00482518
0.0105671
4.00725e-05
-0.00578203
0.016282
-0.00577242
-0.00486338
-0.00564615
-0.0407783
0.00830278
0.037037
-0.00456151
-0.0393059
0.010885
-0.0548431
-0.0544167
-0.00275201
0.0553088
0.0018599
0.0907035
-0.0895206
0.0221945
-0.0233775
0.0499705
0.0601163
-0.0712784
-0.0388084
-0.032525
0.0512057
-0.0579866
-0.00267157
-0.00103723
0.0039578
-0.000249004
0.0315932
-0.0636737
-0.000444552
0.0610895
-0.0606652
-0.0322485
0.0318241
0.012637
-0.0173477
0.00126664
0.0034441
-0.0357897
0.106272
0.0615136
-0.131996
-0.0846916
0.107529
0.00897164
-0.0318093
-0.131168
0.0322215
0.0296271
0.0693198
0.0148238
-0.0617638
0.0370499
0.00989009
0.0598703
0.00932122
-0.0543677
-0.0442733
0.0103203
0.00230335
0.0316497
-0.050411
-0.0411819
0.065483
0.0261099
-0.0332832
0.0404648
-0.0139939
0.00681236
-0.0197509
-0.101868
0.0647889
0.0568296
-0.0862874
0.0862437
4.37646e-05
0.0343797
-0.00684373
-0.0763108
0.0487748
0.00465211
0.0233995
-0.0231336
-0.00491797
0.0268862
-0.0503996
0.0235134
0.000128477
-6.75569e-05
-4.75963e-05
-1.33236e-05
0.000678356
-0.0586107
0.0579324
-0.0685671
0.0428102
0.0624842
-0.0367273
0.0901242
-0.0254421
-0.0127744
-0.0519077
-7.22669e-05
0.070277
0.000106067
-0.0703108
-0.0476385
0.0731054
0.0396837
-0.0651506
0.000539163
0.00108034
-0.000372459
-0.00124705
-0.00229661
-0.00347386
0.00033439
0.00543608
-0.0381923
0.0839274
-0.0461678
0.000432664
0.000319003
-0.000789603
-0.000650771
0.00112137
-0.0546901
0.0544189
0.000271214
0.0752597
-0.00791069
-0.0184315
-0.0489174
-0.0979596
0.0907701
0.00502803
0.00216149
-0.055256
0.0276309
0.0110714
0.0165537
-0.00288226
-0.0154232
0.00750205
0.0108034
-0.0124486
0.025836
0.037439
-0.0508265
0.000919671
-0.000309527
-0.000291141
0.00010019
-1.65555e-05
0.000715225
-0.00079886
0.000905871
0.000221982
-0.000697908
-0.000429944
0.00418718
-0.00924552
0.00514646
-8.8114e-05
0.0679093
0.00505961
-0.0171999
-0.055769
-0.0150706
-0.00469642
0.0104744
0.00929269
-0.0410287
-0.052932
-0.0547541
0.148715
0.00341208
-0.0339147
-0.00415166
0.0346543
-0.000407222
0.000560863
0.000624065
-0.000777706
0.00459304
0.00442714
-0.0282902
0.01927
0.0187795
-0.00668519
-0.00955334
-0.00254095
0.041758
-0.0763639
-0.0273892
0.0619951
-0.0287788
-0.00325894
0.0103351
0.0217026
0.012226
0.00807077
0.0129991
-0.0332959
-0.000658617
-0.000372669
-3.21568e-05
0.00106344
0.0252306
-0.00973212
0.0365642
-0.00100516
0.000645083
-0.00115575
0.00151582
0.0443713
-0.0330298
-0.0683712
0.0570297
0.000591235
-0.000314798
-0.000276437
-0.00109772
-3.01716e-05
0.000565087
0.000562809
0.00080723
-0.000262785
0.000632874
-0.00117732
0.0225588
-0.0224754
-0.0626295
0.0625461
0.00119267
-0.0127228
0.00273622
0.00879387
0.0430198
0.0584837
0.0185665
-0.12007
-0.115697
0.026643
0.127956
-0.0389021
-0.00539093
-0.0441933
0.00377803
0.0458062
0.053855
-0.029145
0.0256282
-0.0503381
0.02485
-0.00345773
-0.151763
0.130371
0.00724202
0.017535
-0.0278014
0.00302438
0.000695582
-0.000230862
-0.000714683
0.000249963
0.0378972
0.0128031
-0.00148598
-0.0492142
-0.0023973
0.0840881
-0.0855239
0.00383308
-0.0180312
0.0498224
-0.116141
0.0843497
0.0421051
0.00534263
-0.0528386
0.0421579
-5.28374e-05
-0.00233551
-0.029088
0.0414597
-0.0100361
0.0708789
0.0170485
-0.0314117
-0.0565157
0.129343
-0.142608
-0.0283394
0.0416043
-0.0151654
-0.0452373
0.0580672
-0.0821815
-0.00067784
0.0828593
0.00112192
-0.0979246
0.163422
-0.0666193
-0.00249729
0.00338577
-0.000595959
-0.000292519
0.088985
-0.148163
0.0308373
0.0283405
0.0015348
-0.000365569
0.000859048
-0.00202828
-0.0867168
0.142905
-0.103916
0.0477274
0.0302949
0.00306593
-0.0404645
0.00710365
0.0866902
-0.0157886
-0.0808449
0.0099433
0.00571087
0.0313094
-0.0521857
0.0297331
0.0267818
-0.128447
0.071932
0.0864836
0.112965
-0.0797793
-0.11967
0.000985894
0.000334588
-0.00235179
0.00103131
-0.0939009
-0.0293587
0.111646
0.0116133
0.00110573
-0.00604701
0.0158627
-0.0109214
-0.0139151
-0.0335964
0.0575985
-0.0100869
-0.00546202
0.0169475
-0.0143597
0.00287416
0.000372036
-0.000687436
-0.000568572
0.000883972
0.0216185
-0.0259117
-0.00116885
-0.00185249
-0.000706024
0.00151463
0.00104389
-0.0575014
0.0603371
-0.00283572
-0.00252503
-0.00625033
-0.00203783
0.0108132
-0.0363547
0.0279924
-0.00555282
0.0183329
-0.0472319
-0.0557926
-0.0513173
0.0415914
0.0983282
-0.0886022
-0.00757902
-0.0017246
0.00502955
0.00427408
0.0469371
0.0111255
0.00232242
-0.0603851
0.000384138
-0.00933803
0.00682221
0.00213168
-0.0396362
-0.0535904
0.011687
0.0815397
0.0647064
-0.0388763
0.0266302
-0.0524603
-0.00973659
0.0599856
-0.0589443
0.0086953
-0.0588644
-0.0338399
0.00778486
0.0849194
0.0163415
0.00505054
-0.0331642
0.0117722
0.0605376
-0.0612027
0.000665121
0.00184481
0.00180357
-0.00145122
-0.00219716
0.0407146
-0.0434009
0.00268636
-0.0565921
-0.0343371
0.10496
-0.0140304
0.000847546
-0.00982447
0.00965675
-0.000679818
0.0029328
0.00595035
0.00265427
-0.0115374
0.00184603
0.00631748
-0.00777937
-0.0249931
-0.0576851
-0.00895565
0.0916339
0.0259088
-0.00766144
0.0177263
-0.0359737
-0.084012
0.0925111
-0.101264
0.0927646
0.0795163
-0.0521456
-0.0273707
0.0015282
-0.034602
-0.0101422
0.043216
0.00828429
-0.00559034
-0.00933779
0.00664384
0.0466749
-0.0703436
-0.0619714
0.0856401
0.0740339
-0.0647091
0.0293563
-0.038681
-0.0133879
-0.00817091
0.0318334
-0.0102745
-0.0581912
-0.0868543
0.0570508
0.0879947
-0.0416694
0.0543518
-0.0111543
0.0976971
-0.0482916
-0.0494055
-0.00442787
0.0151344
-0.0024222
0.000994979
0.000676836
-0.000712168
-0.000959647
0.0473541
-0.0158088
-0.00524704
-0.0262983
0.00364397
-0.00187451
-0.000488361
-0.0012811
0.00546207
-0.0101846
0.00874049
-0.00401801
0.0726099
-0.0422373
0.0256411
-0.0560138
0.00872951
-0.000360594
-0.00684122
-0.00152769
0.00167305
-0.000600591
-0.00107246
-0.0648521
0.0645537
0.000298335
0.0123131
0.00543752
-0.096865
0.0791144
-0.011461
0.0142635
-0.0103094
0.0075069
-0.0725688
0.0162305
0.083228
-0.0268897
0.0180878
-0.0971896
0.0756918
0.00340998
-0.0527142
0.0431107
-0.00831758
0.0179211
0.00882379
-0.00180644
-0.00298709
-0.00403025
8.14466e-05
-0.000909343
0.000827897
0.0285413
0.170456
-0.245257
0.0462598
0.000320465
-0.000171852
-0.0247513
0.060272
-0.0526867
0.0171659
-2.93811e-05
0.00522509
-0.00440762
-0.000788083
0.000389554
0.00166169
-0.00231403
-0.0709293
0.000607517
0.0703218
-0.032382
0.113797
-0.0477554
-0.0336596
0.000460729
0.000595692
0.00950998
-0.0105664
0.000570166
0.0905227
-0.0910929
0.00237975
-0.001641
-0.00119892
0.000460171
0.00135347
0.000672942
-0.000690606
-0.00133581
-0.0365785
-0.00164294
0.0323881
0.0190221
-0.0638588
-0.0724452
-0.0164741
0.00664824
0.0822711
-0.000609057
0.00196253
-0.0998263
-0.0420701
0.112687
0.0292094
0.0274028
0.169884
-0.0847889
-0.0575178
-0.0275769
-0.018032
0.119034
-0.0434377
-0.0575646
0.0397806
0.0300182
0.0384583
-0.108257
0.104801
-0.248769
0.10932
0.0346482
0.00161146
-0.00143426
-0.00140163
0.00122443
-0.0122773
-0.0355353
0.0557398
-0.00792726
0.0256104
0.0403524
-0.0259918
-0.039971
-0.0353475
-0.0258141
-0.019768
0.0809297
-0.0534096
-0.0138904
0.0550227
0.000954625
-0.0121319
0.00884828
0.00232903
0.0553734
-0.0284466
-0.0508463
0.0239196
-0.0891694
0.105149
-0.0500768
0.0340975
0.0163391
-0.0231774
0.00701445
-0.000176102
0.0517853
-0.0600597
0.0636478
-0.0570067
-0.00353108
-0.0138008
0.0743385
-0.00539683
-0.0129043
0.00234042
0.0159607
0.000256853
0.0580482
-0.0576052
-0.000699815
0.135561
-0.0536422
-0.00291116
-0.0790076
0.0594548
-0.00756643
-0.0483032
-0.00358512
0.0519126
-0.0210641
-0.0739834
0.0431349
-0.00979903
-0.00195152
0.014948
-0.00319746
0.00534436
-0.00161187
-0.00478047
0.00104798
0.00246767
-0.0436539
0.0402673
0.000918975
-0.000847608
-0.0862562
0.00344519
0.0195333
-0.0129933
-0.0632748
0.046764
0.0165108
-0.0595446
-0.0170387
0.0109747
0.0656086
-0.0991882
-0.000972274
0.103268
-0.00310743
0.00369654
0.0234715
-0.0126871
-0.0144809
-0.0712297
0.149814
-0.066015
-0.0125691
-0.00493092
0.0135985
0.022593
-0.0312606
-0.0514986
0.0989186
0.0387286
-0.0861486
0.0286189
0.00190794
-0.0147096
-0.0158173
-0.0360373
0.0376101
0.000894883
-0.0045704
0.00723558
-0.00966536
0.00700017
-0.000339503
-0.00447471
0.0102763
0.0358691
0.0380961
-0.0739652
0.00110999
-0.00188531
5.10817e-05
0.000724232
0.0194178
0.00835668
-0.0187868
-0.00898768
0.0220201
0.0113369
-0.00224586
-0.0311111
-0.0519349
-0.00137264
0.00673292
0.0465746
-0.000106877
-0.0435471
-0.000953523
0.000571773
0.00149174
-0.0517704
0.0369189
0.0520261
-0.0371745
-0.0448049
0.0301664
0.0183769
-0.00373839
0.00132448
-0.00337635
-0.00986393
0.0119158
-0.00925487
-0.00505632
-0.00334664
0.0176578
-0.0433494
-0.00480385
0.012116
0.0723506
0.0396324
-0.0719469
-0.0400361
-0.0445339
-0.000443301
0.0449772
0.0862109
-0.0486711
0.0595605
0.00360835
-0.00773389
-0.0374097
0.0415353
0.0358678
0.0114358
-0.00556551
-0.0417381
-0.000480995
0.000308675
0.0010072
-0.00083488
-0.0168638
-0.0448973
0.0617611
-0.00026415
-0.00131457
-0.00432082
0.0309956
-0.0230665
0.00613994
0.0279258
-0.0417996
0.0979282
-0.0907638
-0.00202838
-0.00513599
-0.021291
0.101163
-0.0186973
-0.0611751
-0.0323191
0.00680309
0.014789
0.010727
-0.0393634
0.0360622
0.0142302
-0.010929
0.0325642
-0.0251262
0.00134473
-0.00878276
0.0187486
0.0720051
-0.121299
0.0305456
0.0762817
-0.0752415
-0.0243054
0.0232651
-0.143216
0.00215744
0.00361944
0.137439
0.030512
0.0123176
-0.0411772
-0.00165237
0.0398509
-0.0578926
0.0203938
-0.00235213
0.0021165
-0.00123795
0.000239374
-0.00111792
-0.0146145
-0.00121639
0.0733954
-0.0416435
0.0188084
-0.0505604
-0.0117894
0.0477453
0.000426565
-0.0363825
0.00531231
0.0955068
-0.092896
-0.00792303
0.0494633
-0.0989938
0.0582552
-0.00872471
-0.0484184
-0.000376112
0.0370051
0.0151929
-0.00371916
0.00864753
-0.0201213
-0.0234227
0.047797
-0.0133162
-0.0110581
-0.0484157
-2.70247e-06
-0.00542361
-0.122859
0.175842
-0.0475597
0.0101945
0.00969545
-0.0634942
0.0436043
0.0495777
0.00550482
-0.0448881
-0.012723
0.00673665
-0.00360844
0.00959474
-0.0560032
-0.000583046
0.0565863
0.110309
0.0444314
-0.136516
-0.0182244
-0.00917163
0.000384166
-0.00393549
0.0185217
-0.116078
-0.0224062
0.119962
0.0126055
0.0664974
-0.0694074
0.00289866
-0.0557532
-0.0106397
0.000486609
0.00188603
-0.00263679
0.00199832
-0.00181602
0.000304305
-0.0506551
0.025756
0.0740598
-0.0491606
-0.00194313
0.000979907
0.000933055
-0.0342809
-0.00769654
0.0448761
0.000246668
-0.000303772
0.000344116
-0.000902278
0.000114227
0.000443934
0.000133846
0.00211114
-0.00176294
0.00141136
0.000112622
0.000238952
0.000452481
-0.000279365
0.000746555
0.105708
0.121139
-0.079302
0.000115565
-0.000825403
0.00116232
-0.0529417
0.0529417
-3.40762e-10
-0.0106709
0.07607
-0.0713952
0.00599619
0.00181869
-0.0195468
0.00519797
0.0125301
-0.0603968
-0.0032158
-0.0171788
0.00397739
0.0476211
-0.0344197
-0.0639005
-0.00251283
0.0664133
-0.00649335
-0.0167183
-0.0128059
0.0360176
0.000302206
-0.000370321
-0.000504904
0.000573019
-0.0040188
-0.00735416
0.00901295
0.00236
0.0549843
0.0439068
-0.0175081
0.048014
0.0894041
-0.0381169
-0.0993012
-0.0126641
-0.0444371
-0.0198166
0.0192189
-0.0549338
0.0555315
-0.0107693
0.0292675
-0.00664102
-0.0118572
-0.0151044
-0.0135618
0.0136476
0.0150186
0.0972079
-0.0953741
0.0189684
-0.0208021
0.00110995
-0.00436267
-0.000354863
0.00360758
0.00106489
-0.0661005
0.0650356
-0.0725697
0.00343758
0.0666867
0.00244546
0.0390979
0.0383176
-0.0774155
0.0190095
-0.0601717
0.0284981
0.00210205
-0.00121315
0.000581143
-0.00147004
0.000195163
-0.000334298
0.00135762
-0.00121848
-7.49143e-05
0.000422854
-0.000983297
0.000635357
0.0634891
0.0563825
-0.038944
-0.0809276
0.00565427
-0.0869007
0.0824321
-0.00118562
-0.0135884
0.000360701
0.0266011
-0.0133735
0.0535136
-0.0527449
0.019052
-0.0198207
-0.000518456
0.00135999
-0.000680441
-0.000161097
0.0203554
0.0478378
-0.0491837
-0.0470484
-0.001745
0.000910871
0.00155296
-0.000718834
0.00111554
0.0799855
-0.0811011
-0.0499259
-0.0153221
-0.0221653
0.0874133
-0.050004
7.80996e-05
0.01166
0.0167891
0.0167666
-0.0452156
0.000523658
-0.00279192
0.000342593
0.00192567
-0.00171431
-0.000647937
0.000617255
-0.10621
-0.00886789
-0.0430233
0.158101
-0.00990209
0.00703528
0.137339
-0.134472
-0.0383567
0.0419963
-0.0648561
0.0612165
-0.0789021
0.0787344
0.000167695
0.00136188
-0.0500822
-0.0304817
0.0667972
0.0194453
-0.00588337
-0.0803592
0.0503247
0.0944891
-0.156608
0.0117942
0.0414819
0.0159866
0.0331995
-0.090668
0.104216
-0.108472
0.0433539
-0.00351517
0.0130953
-0.0118397
0.0022596
-0.00179614
-1.78669e-05
-0.000669596
0.0024836
-0.00284556
-0.00559022
0.00166555
0.00677023
0.0607271
-0.00606715
-0.0182955
-0.0363644
-0.0567474
0.0282247
0.0285227
-0.0925964
-0.00786229
0.0122523
0.000526295
-0.000513498
-0.00180893
-0.117712
0.0265085
0.00489692
0.0863066
0.00129418
-0.0537373
-0.0100591
0.0625023
0.0454315
0.0291232
-0.101365
0.0268103
0.0381861
-0.0437968
-0.0188652
0.0244759
0.0481241
-0.0602869
0.0503489
0.0310996
-0.055927
0.0496202
-0.0247929
0.0346076
-0.0359859
0.000226673
0.00115165
0.0162467
-0.141945
0.0910116
0.0346864
0.00137696
-0.06151
-0.00374805
0.0523291
0.000417145
-0.108002
-0.0338121
-0.00884953
0.00668506
0.0359766
-0.0487227
0.0444317
0.0501995
-0.0459085
-0.0425786
0.0823992
-0.0398206
0.0105771
-0.102318
0.0479438
-0.016914
0.00757321
0.0244517
-0.0151109
-0.0885325
0.0937214
0.0365009
-0.0416897
0.0584871
0.0328057
-0.0829313
-0.00836146
-0.0467942
0.141791
0.00417771
-0.0991744
-0.00054125
0.00299382
0.00358625
-0.00603883
0.0537584
-0.0720887
0.0829365
-0.0646062
0.0082345
-0.0395257
-0.00827643
0.0395676
-0.0435779
0.0316725
0.102949
-0.091044
-0.0499963
-0.0264533
0.0529022
0.0235474
-0.00982548
-0.00035262
0.00626295
0.00391515
-0.0104566
0.0223972
-0.0182181
0.00627744
0.000212468
0.073746
-0.0739584
0.0149113
-0.044185
-0.019449
0.0483753
-0.0340703
-0.000968465
-0.0133366
0.00142308
-0.0258483
-0.0204345
0.0448596
0.0346847
-0.0346312
-5.35577e-05
0.0612292
-0.0417075
0.0642437
-0.0837654
-0.0996413
0.0977337
0.0991155
7.59858e-05
-0.010823
-0.00179353
0.0125406
0.0495961
-0.000242665
7.18997e-05
9.36341e-05
7.71312e-05
-0.000331051
0.0476608
-0.110395
0.0630654
-0.00858788
-0.000596238
0.0049785
0.00420562
0.0268855
0.00996144
-0.0368469
0.00120493
-0.000966798
-0.00882601
-0.0332783
-0.0335693
0.0102555
0.0572251
0.000971921
-0.058197
0.0728441
-0.044135
-0.0511881
0.022479
0.0016439
-0.0250401
-0.0208771
0.0693907
0.0430264
-0.039573
-0.00800889
0.00928981
0.133738
-0.119554
0.0361458
-0.0503299
-0.0450176
0.036505
0.0218949
-0.0133823
-0.0525364
0.0525725
-3.60923e-05
-0.0477824
0.029651
0.0107646
-0.0469406
-0.0108372
0.0470132
-0.00244796
0.160696
-0.160347
0.00209888
0.107635
0.0159495
-0.0160553
0.0508475
0.00863153
-0.0512764
-0.00820264
-0.0144455
0.00465755
0.0106388
-0.000850826
-0.00954601
-0.00534086
0.00470902
0.0101779
0.0659624
-0.0375369
-0.0526709
0.0242454
0.0296998
-0.0156166
0.023963
-0.0380463
0.0267041
-0.0933689
0.0894514
-0.0227867
-0.0058379
0.000426234
-0.00903384
-0.0943277
0.107134
-0.0232839
0.0104779
-0.0113987
0.0479723
0.0138951
-0.0504687
-0.00427681
-0.000373536
0.00323492
0.00141543
0.083718
-0.00480264
0.0507727
-0.129688
4.74275e-05
-0.000708874
-1.57967e-06
0.000663026
-0.0666549
0.0586635
0.0739968
-0.0660054
0.00348984
0.00100741
-0.00229743
-0.00219981
-0.0781201
0.075845
0.00227506
0.062683
-0.0594391
-0.0032439
0.0605174
-0.000685371
-0.059832
-0.0109055
0.123569
-0.000637304
-0.112026
0.0099272
-0.0311575
0.0328903
-0.0239152
-1.18991e-05
-0.0562119
-0.0676373
0.0117007
0.0664731
-0.0105365
-0.0132276
-0.00215633
0.000281905
-0.000591102
-0.000115205
0.000424403
0.00118728
-0.000129721
-0.000247422
-0.000810139
-0.0634282
0.00760155
-0.00135587
0.0571825
0.000414101
-0.00544982
0.0018932
0.00314252
0.0121143
-0.0146346
-8.60197e-06
0.00252893
0.00818053
-0.00675476
0.0106885
0.0556154
-0.00923272
-0.0227787
-0.023604
0.0360903
-0.00531946
-0.0363236
0.00555271
0.000166787
0.0669957
-0.000323811
-0.0668387
0.00769905
-0.0718407
0.0192701
0.0448715
-0.042922
-0.0319645
0.0418367
0.0330497
-0.0354014
0.0211515
-0.0907124
0.104962
-0.000902343
0.0151657
-0.00781514
-0.00644827
0.0491261
-0.0590367
0.0474682
-0.0375576
-0.0625012
-0.00681015
-0.00817544
0.000797485
-0.000205256
0.00433047
-0.0049227
-0.0119867
-0.00277418
0.00175822
0.0130027
-0.00808482
-0.00924044
0.0107863
0.00653898
-0.00013876
-0.00220838
0.00140539
0.000941752
-0.000391676
0.000487071
-9.5395e-05
0.00165987
-0.0728458
-0.0269541
0.09814
-0.000154029
-7.28007e-05
-0.00140516
0.00163199
0.000127924
-0.000402288
-0.000117313
0.00221386
-0.0661144
-9.42431e-05
-9.86443e-05
0.000679959
0.000630442
0.000119572
-0.000403462
-0.000346552
-0.0281321
0.0637428
0.0779296
-0.11354
-0.00910469
-0.00223386
0.00723442
0.00410413
-0.0145331
-0.000260753
0.00568916
-0.00525951
0.00548241
0.0130719
-0.0132948
-0.00054561
0.000769246
-0.000317879
-0.0658549
0.0665851
-0.0007302
0.0303486
0.0470367
-0.0599876
-0.0173978
0.0115912
-0.0755367
-0.0212349
0.0851804
-0.0134659
0.00276779
0.0054386
-0.00455627
-0.00638492
-0.0025247
-0.0165393
0.0582209
0.0129324
-0.0546139
0.0690924
0.00472453
-0.0536417
-0.0201752
0.000172923
0.000426282
-0.000772898
0.000173693
-0.000147442
-0.000270244
-0.0026527
-0.00117285
-0.00130452
0.00513007
0.0651074
-0.0459344
0.0120386
-0.0312115
-0.000818096
-0.0026756
0.00140134
0.00209236
-0.0162639
0.00998769
-0.00362629
0.00990253
0.00176355
-0.101474
0.10106
-0.00135014
0.00308686
0.000768946
-0.0105139
0.00665813
0.0100724
-0.0106689
0.00162194
-0.00102547
0.00988514
0.0039277
-0.010726
0.0368163
0.0562402
-0.0279491
-0.027279
0.0548035
0.0281962
-0.0557207
0.0277516
-0.0550306
-0.000470303
0.000352358
-0.0331653
0.012477
-0.0100465
0.0792124
0.023177
0.00768712
0.0693398
-0.0542554
0.0981064
-0.113191
0.00479325
0.0926351
-0.0974284
-0.00693041
-0.00705288
0.0134249
0.000558392
-0.0342522
-0.0869385
0.0274945
0.0936962
0.0220539
0.0615722
-0.0243662
-0.05926
-0.0235211
0.113292
-0.0529547
-0.0418519
0.0448948
0.0517606
-0.0557522
0.0557417
1.05335e-05
-0.0390239
0.0367137
0.00231017
0.0398057
-0.0783952
0.0729616
-0.0343721
0.0673456
-0.0838849
-0.00974444
-0.00811375
0.0109278
0.000862726
0.000642711
-0.000582364
-0.000923074
-0.00572941
-0.0425848
-0.00743807
0.00126413
0.00144434
-0.0025702
-0.000138271
-0.0574146
0.051864
0.085542
-0.0799914
0.0352638
-0.0332939
-0.00196995
0.0107461
0.017328
-0.0112703
-0.0168037
0.0042072
-0.000453016
0.00220271
-0.0059569
-0.0643434
-0.000518849
0.0200315
0.0448307
-0.00291295
0.0066943
0.000425851
0.0391287
-0.109427
0.104583
-0.0342846
0.045961
0.0136973
-0.0593783
-0.000279917
-0.00363306
0.00696913
0.00163416
-0.00497023
0.000156972
0.0606387
-0.0607957
0.0377106
0.00638157
0.0151456
-0.0592377
0.00425732
-0.00732213
0.00261179
-0.182901
0.0278384
0.162504
-0.00744134
0.0394775
-0.0110483
-0.0284291
-0.00121618
-0.00152702
-0.00116585
0.00390905
-0.0419396
0.0455074
0.124632
-0.1282
-0.00187501
0.000676027
-0.0019781
0.00317709
0.091698
-0.00259939
-0.0431377
0.000491021
-0.00122523
0.00205128
-0.00131706
-0.0186318
-0.116286
0.0163371
0.11858
0.00389769
0.0522858
-0.00408502
-0.0520985
0.0487263
-0.0702661
0.0604603
-0.0389205
0.0319491
-0.0364849
0.0485724
-0.0440366
0.00847215
-0.00177713
0.00586712
-0.0125621
0.0012836
-0.0443796
0.0532409
-0.0536846
-0.0360411
0.0973567
0.0176567
-0.0244868
-0.0905266
0.0473938
0.0180795
-0.134521
0.0690476
-0.00177522
-0.00864448
0.0063477
0.004072
0.0279432
-0.0501701
-0.00325469
0.0289774
-0.0267234
0.00736647
-0.00584896
0.000103937
-0.00162144
-0.086387
0.0028193
-0.000553569
0.0720511
-0.150057
0.0785592
-0.0270016
-0.087548
0.0412484
0.0733012
-0.0725605
0.0207179
0.00286941
0.0489732
-0.0434351
0.0291344
0.0104782
-0.0828315
0.095833
-0.0130015
-0.0210698
-0.00952065
0.118046
-0.0874556
-0.00357079
-0.00390125
0.00610677
0.00136526
-0.0258046
0.0591846
0.0406539
-0.0721699
0.0280349
-0.00078228
-0.000408258
-0.00101644
0.00220698
0.0467851
-0.0493256
0.0548696
-0.037694
-0.0071186
-0.045045
-0.124176
0.047925
0.0762511
-0.0429219
-0.0325201
0.0276595
0.00307699
-0.00217435
0.000766056
-0.00166869
0.00277167
-0.000359239
0.000664562
-0.0863136
0.00356384
0.0827498
0.0613641
0.0132328
-0.123137
0.0485403
-0.0711066
0.000361586
0.070745
0.00139901
-0.00178989
0.00834106
-0.00795018
0.0483207
0.156055
-0.226219
0.0218429
0.00182788
-0.00230766
0.00144402
-0.000964253
-0.0916486
0.0649374
0.0265389
0.000172281
-0.00176437
-0.000765081
0.00281526
-0.00028581
-0.000669422
0.00837924
-0.00841656
0.000706734
0.00791662
0.00787525
-0.015022
-0.000769833
0.0409523
0.0125146
0.00303426
-0.0027448
0.00153842
-0.098587
0.105341
0.00746282
-0.0142168
0.0120432
-0.0667076
-0.0231737
0.0778381
0.0021778
-0.00483524
0.0879649
-0.0853075
-0.0415437
-0.0368147
0.0872036
-0.00884523
-0.0407103
0.0246683
0.04051
-0.024468
0.0536982
0.0206548
-0.0722279
-0.00212518
-0.00149708
0.000165228
0.00163806
-0.000306209
-0.123782
-0.0430398
0.0396238
0.127198
0.0484863
-0.0377218
-0.0317183
-0.0376591
-0.0309222
0.1003
-0.00189478
0.00428743
0.000396136
-0.00278878
-0.0311091
-0.0802813
0.0284328
0.0829577
-0.0296489
-0.0286929
0.0206478
-0.000791981
-0.00327715
-0.00167089
0.00325071
-0.0037595
0.00217969
-0.0057957
0.00564018
0.0253722
-0.0772026
-0.0852912
0.137122
-0.000457027
-0.000248603
0.000382463
0.000323166
0.0572708
-0.0602967
0.0478671
-0.0448412
-0.0150086
0.0439383
-0.00757639
-0.0213533
0.0864913
-0.0861252
-0.0186165
0.0182504
0.0265105
0.0223985
-0.0636173
0.0147083
-0.127288
0.0739634
0.0182408
0.0350839
-0.00529059
0.00308277
0.000109095
0.00209872
-0.00798036
0.00961846
-0.000239085
-0.0134562
-0.00372549
0.0181232
-0.000941458
-0.0623691
-0.00476786
0.0145247
0.0526122
-0.0087759
0.103045
-0.00506997
-0.0891995
0.00911367
-0.0472422
0.0805252
-0.0423967
-0.00157181
0.00418386
-0.00162632
-0.000985726
-0.0149996
0.000276793
-0.0021942
0.016917
-0.107001
0.00427801
0.0132387
0.0894847
-4.79881e-07
-0.000314901
0.000628541
-0.000313161
0.037279
0.00801899
0.0270526
-0.00480412
0.0459999
0.0527705
-0.0939663
-0.000126016
0.000576074
-0.000450538
-0.000558101
0.00216371
-0.00146419
-0.000141421
0.0174592
0.110753
-0.0475583
-0.0806539
-0.000232192
-8.27084e-05
0.00018352
-0.000415712
0.0618785
0.017019
-0.0922091
0.0133115
-0.157172
0.086143
0.0770781
-0.00604925
-0.0181714
0.000239521
-0.0517076
0.0696395
0.0250089
-0.0148052
0.0169239
-0.0271276
-0.0664434
-0.0231782
0.0896216
-0.0780108
0.0385128
0.0394979
-0.00202703
-0.000313306
0.000485904
0.00185444
-0.0381745
0.0412259
0.00768594
-0.0107374
0.0466569
-0.0545683
0.00791143
-0.0607237
0.0337521
0.0451231
-0.0181515
0.00452548
-0.00262787
-0.00171364
-0.000183966
-0.00323047
-0.0025328
0.000472667
-0.0421876
-0.0418244
0.0465061
0.0141314
0.00252214
-0.0631596
0.00234689
-0.000176898
-0.00191613
-0.000253859
0.0040067
0.00378186
-0.00186825
-0.00592031
0.00712812
0.0222922
-0.0403714
0.0109511
-0.019158
-0.0154151
-0.00922982
0.043803
-0.0757197
-0.0103462
0.030086
0.0559798
-0.00176708
0.0150354
-0.00831376
-0.0049546
-0.052998
0.000485953
0.033354
-5.63406e-05
0.0252031
-0.135815
0.126243
-0.0156313
0.0286604
-0.0344502
-0.0517116
-0.0271155
0.0548671
0.000106862
0.0401878
0.00320475
-0.0434994
-0.0552591
-0.0599485
0.115208
-0.00315635
-0.00104298
-0.00176028
0.00595961
0.00318822
-0.00475061
0.00170931
-0.000146928
0.0365283
-0.0060745
-0.0281004
-0.00235339
-0.00323458
-0.00229483
0.00237306
0.00390023
-0.0112598
0.0660362
-0.0586767
0.0761905
-0.0001769
0.0277735
0.00944615
-0.00653567
-0.030684
0.058577
-0.00077348
-0.0578035
-0.0529649
0.11374
-0.0284223
0.0596987
0.0200969
-0.0513733
-0.0160005
-0.0256929
0.0172441
0.0244493
0.00315438
0.00373798
0.000836567
-0.00772893
-0.0341671
-0.0380249
0.09933
-0.027138
0.0443057
-0.0360242
-0.00026126
-0.00802031
-0.0506984
0.115497
-0.0504167
-0.0143823
-0.00141914
0.00170468
-0.000138292
-0.000147241
-0.000772487
0.0216846
-0.00468522
-0.0162269
0.00297172
0.00380188
0.00013021
-0.00690381
-0.000266951
-3.81166e-05
-1.14116e-05
0.000316479
3.74305e-05
3.50382e-05
-0.000339419
-0.00892972
0.0229033
0.070242
-0.0842156
0.0803456
-0.0802249
-0.000120748
0.000309348
-0.000340029
3.06805e-05
-0.0128131
0.000960865
0.00228238
-0.00135427
-0.00188897
-0.00829826
-0.00532113
0.00612655
0.00749284
-0.0557621
0.0273398
0.000251428
0.000269459
-0.000802105
0.000281217
0.0338219
0.0547017
-0.0348022
-0.0537214
0.012107
0.158903
-0.179655
0.00864468
0.058312
0.063339
-0.0619524
0.00198436
-0.0133774
-0.00177559
0.0131687
-0.0334085
-0.0301101
0.0635185
0.0311152
-0.0645237
-0.0542819
-0.0446633
-0.0654853
0.16443
0.0500446
-0.0559753
0.00593065
-0.0725353
0.134469
-0.0711664
0.0330108
-0.0301961
0.0856668
-0.00370267
-0.06883
-0.0131341
0.0701369
-0.0706153
0.011233
-0.0107545
1.63856e-05
-0.00619264
0.00733091
-0.00115466
0.00154138
-0.00519162
0.00666602
-0.00301578
-0.000221215
0.000174816
0.000708376
-0.000661976
0.0223259
0.0231301
-0.0339473
-0.0115087
-0.0052965
-0.00509657
0.00621281
0.00418026
-0.0107176
0.0320475
-0.0429991
0.0216692
0.00107357
-0.00860303
0.0108926
-0.00336313
0.0487369
-0.00417763
-0.0445592
0.0380679
0.0356894
-0.126563
0.0528062
-0.0978954
0.0599721
0.0759911
0.032983
-0.0997632
-0.0468793
0.107917
-0.0371228
-0.0239153
0.00167166
0.00901449
-0.0123667
0.00168052
0.0278521
-0.00283233
-0.0250198
-0.0305198
0.0436127
-0.00368491
0.0201376
-0.0315572
0.00103948
-0.000141697
0.00104259
-0.00194037
0.0117303
-0.0384537
-0.000910564
0.000203557
0.000408936
0.00029807
0.00273352
-0.00033955
0.0010231
-0.00341707
-0.000912963
-0.00228067
-0.0781872
-0.0128963
0.00141298
-0.0118821
0.0233655
0.0203174
-0.0904537
0.0204423
0.049694
-0.00324849
0.0580304
-0.0820002
0.0272183
0.000954864
-0.000628628
0.000666786
-0.000993021
0.0791428
0.0126046
0.00224912
-0.0939965
-0.00067696
-0.000793422
0.00173149
-0.000261113
0.00493481
-0.000987905
-0.0693924
0.0654455
0.00652784
-0.000997625
-0.00488883
-0.000641387
0.00641259
0.00452255
-0.00358423
-0.00735091
-0.110484
0.0965157
-0.0875995
0.101568
-0.0545662
0.109761
-0.0551943
0.00223725
-0.0439539
0.00897389
0.0327428
0.00365302
-0.00354579
0.000751065
-0.000858296
0.0493822
-0.00297535
0.00133839
-0.129713
0.00276014
0.0739878
-0.0336511
5.46611e-05
0.00118078
0.0311604
-0.0250932
-0.00724792
0.0781773
-0.0307753
0.0342149
0.00406881
-0.00502817
0.000162894
0.000796476
0.0338593
0.0234373
-0.0748905
0.0175939
-2.29338e-05
-0.00013633
0.000113611
4.56526e-05
-0.000427327
0.00150205
0.00533786
0.000208189
-0.00794451
0.00636886
0.00564446
0.0746233
0.0407557
-0.0370576
-0.0783214
-0.131476
0.141062
-0.00856961
-0.00101637
0.0315657
-0.0324756
0.000909975
-0.036293
-6.98723e-06
0.000329912
-0.00312719
-0.0022309
0.0147409
0.206674
-0.158939
-0.0624762
0.0292055
-0.0609118
-0.0177745
0.0494807
-0.00309205
0.0391995
-0.000803574
-0.0856929
0.047297
-0.0228926
0.0100369
-0.0380365
0.0476028
0.0463824
-0.0559486
-0.0667135
0.0888666
-0.151463
0.12931
-0.000188521
7.27449e-05
-0.00145306
0.00156883
0.000206498
0.00226886
-0.000635205
-0.00184015
0.0438362
-0.0151053
0.0387209
-0.0674518
-0.00353562
0.00034437
0.00337948
-0.000188221
-0.0119365
0.0108005
-0.0369005
0.0120987
-0.0463465
0.0059263
-0.0032042
0.0183587
-0.0210808
-0.135338
0.0181237
0.12773
-0.0105157
0.0356127
-0.0240695
-0.016949
0.00540584
0.0344133
-0.0531401
0.00679029
0.00461964
0.007536
0.0518893
-0.064045
0.0246962
-0.00707344
-0.0250231
0.00740033
-0.0791751
-0.00857783
0.0151842
0.00123863
-0.001085
5.28639e-05
-0.000246682
0.00210329
0.00154086
-0.00339746
0.0183707
-0.0319806
0.0383061
0.0179721
-0.143406
-0.0228485
0.148282
-0.112602
-0.0150429
0.0257632
0.101882
0.0571265
-0.035524
0.0291769
-0.0507794
0.110794
-0.00614729
0.00359778
-0.108245
-0.0169532
-0.03693
-0.00413859
-0.0161265
0.00795489
0.0123102
-0.00135531
0.00049796
7.48976e-05
0.000782449
0.0152986
-0.0774154
0.0621168
0.108752
-0.00721777
-0.112439
-0.0263193
0.0555648
-0.0461987
0.0398535
-0.122186
0.0148519
0.0674804
-0.00403449
-0.0123484
-0.0270153
0.0433983
0.00388631
0.0494895
0.0845978
-0.132117
-0.00197074
0.0491582
-0.0829471
0.0892625
-0.0554736
-0.0962689
0.0956733
-0.00690435
0.00749997
0.00199138
0.00440541
-0.0943774
0.0879806
-0.00169689
0.00360915
0.00605334
-0.00796561
0.00022863
-0.000940874
-0.000287576
0.00099982
0.0886651
0.000789605
-0.0175333
-0.0719214
-0.000751514
0.000754521
-0.000140754
0.000137747
0.000883798