/*--------------------------------*- C++ -*----------------------------------*\
| =========                 |                                                 |
| \\      /  F ield         | OpenFOAM: The Open Source CFD Toolbox           |
|  \\    /   O peration     | Version:  2506                                  |
|   \\  /    A nd           | Website:  www.openfoam.com                      |
|    \\/     M anipulation  |                                                 |
\*---------------------------------------------------------------------------*/
FoamFile
{
    version     2.0;
    format      ascii;
    arch        "LSB;label=32;scalar=64";
    class       volVectorField;
    location    "0.0501868";
    object      U;
}
// * * * * * * * * * * * * * * * * * * * * * * * * * * * * * * * * * * * * * //

dimensions      [0 1 -1 0 0 0 0];

internalField   nonuniform List<vector> 
47425
(
(10.1577 0.136347 -0.0150481)
(10.0244 -0.117144 0.0128912)
(10.0507 -0.0281707 -0.0059457)
(11.3952 -0.51493 -0.200898)
(12.3447 0.538844 0.702177)
(10.105 0.00802004 0.0100116)
(12.2446 0.377193 0.673777)
(10.0875 0.00613764 0.00193214)
(10.0056 0.00872207 0.00515705)
(3.08617 5.54263 -0.787045)
(10.0619 0.00446963 -0.00252733)
(9.94776 0.0661683 0.00769826)
(12.0493 0.424262 0.226888)
(10.0621 -0.0171346 -0.0013688)
(10.933 0.372483 -0.127918)
(10.0719 -0.195097 -0.0352548)
(10.0734 -0.0186057 0.000659096)
(8.72547 -0.492973 -1.43957)
(8.62237 1.22959 -4.90767)
(13.3173 -0.477793 -0.980513)
(10.8266 -0.704467 -0.557236)
(9.81144 -0.0536499 -0.0114066)
(9.96977 0.0387308 0.00530369)
(10.0226 0.0151446 0.0128756)
(9.91347 -0.099898 -0.0118895)
(9.98651 0.0496568 -0.0189833)
(9.9929 0.0252768 0.012485)
(11.3983 -0.322158 -8.63767)
(10.0093 0.0256996 0.0133444)
(10.0426 0.0089126 -0.0193792)
(9.73016 0.733281 0.0905097)
(10.0061 0.101305 -7.90189e-05)
(10.0023 0.00636628 0.00591296)
(10.0027 -0.00331607 -0.00578786)
(9.95504 0.0101443 -0.0106409)
(9.91828 0.00204084 0.000812325)
(9.74561 -0.048297 -0.045886)
(10.0025 0.016707 0.00722673)
(10.547 0.352161 0.0185826)
(10.0121 0.0200858 -0.00924807)
(9.873 0.0787747 0.0149547)
(9.33316 0.288538 -1.05382)
(6.55308 -1.94338 -1.43295)
(9.98348 0.0135718 0.00514872)
(-0.128675 -0.515345 1.35704)
(10.0116 0.0675346 0.0233794)
(9.96962 -0.0159704 -0.0305521)
(9.99634 0.0320211 0.00401506)
(10.0515 -0.0112998 -0.0132801)
(10.0506 0.0121653 -0.0157247)
(2.11085 -0.586258 -5.72224)
(9.05378 0.994396 1.51375)
(10.0326 0.00402768 0.00492763)
(6.89677 -5.81336 2.77668)
(10.0124 0.0135619 -0.0142549)
(10.1721 0.019141 0.0409079)
(10.1613 -0.104294 0.0355377)
(10.0733 -0.016865 0.0246071)
(12.359 1.23251 1.57289)
(9.99582 0.00272759 0.0217393)
(5.18319 -5.7468 2.19993)
(4.98118 -0.163676 2.48891)
(5.64976 -5.00076 1.17267)
(9.15995 -1.1364 -0.0222848)
(10.0075 0.0104086 -0.00669576)
(10.7792 -0.281373 0.0313194)
(9.99481 -0.0177666 -0.00671711)
(10.6589 0.00667615 0.438691)
(8.62081 -5.72562 2.88235)
(9.06415 0.537759 0.364473)
(10.8346 -0.510619 0.1697)
(10.0249 0.00579892 0.0268514)
(10.8549 -0.0683819 -0.0173763)
(10.7643 0.236615 -0.615124)
(5.40422 3.17544 1.09347)
(9.99889 -0.00376917 0.000699672)
(6.01781 -4.67586 1.97973)
(9.99486 -0.00530178 0.00858411)
(8.21631 -4.62379 2.27243)
(11.7481 0.243007 1.65885)
(5.67847 2.4099 1.15755)
(10.211 0.292309 0.020722)
(9.19514 0.0851775 -0.242411)
(10.011 0.0198319 -0.00722873)
(9.8692 -0.00436715 0.0656916)
(10.1942 -0.0648978 0.0182468)
(10.6503 -0.190933 -0.0147459)
(10.1343 0.0610922 -0.0204012)
(10.8997 0.714175 -1.76508)
(10.8583 -0.25371 2.3976)
(9.80688 0.384738 -0.00972394)
(10.6367 -0.00673829 -0.00554158)
(10.0481 0.0357513 -0.000985773)
(10.0815 -0.0542318 0.00733834)
(10.0219 -0.042127 0.00969971)
(10.0117 -0.00625835 0.0100421)
(10.0386 -0.0261312 -0.0371031)
(10.2151 -0.24182 -0.0116656)
(10.143 -0.0186159 0.00843523)
(10.005 0.0138927 0.018161)
(10.0481 0.029858 -0.0153322)
(8.74934 0.111954 -3.97991)
(10.259 0.185844 0.0474242)
(5.31842 1.95295 -0.599012)
(10.2795 0.103344 -0.0246639)
(10.4697 -0.758435 0.159012)
(10.0807 0.14976 0.0350719)
(10.0865 -0.0463421 0.00471262)
(9.46434 -0.0551541 0.0290226)
(9.91402 0.0849142 0.0361742)
(-2.504 -2.07751 -0.212502)
(10.0652 -0.0991025 0.0367794)
(10.4178 -0.953292 0.265441)
(10.1954 -0.0168814 0.00386554)
(10.789 -0.46296 0.140643)
(1.77214 -4.29337 -5.70742)
(10.7882 -0.433814 0.109662)
(4.09501 0.0204675 -4.26676)
(10.3389 0.188212 -0.0102049)
(10.9883 0.323127 0.474137)
(10.2723 -0.0420069 0.00160554)
(10.0003 0.00356393 0.00571821)
(10.005 0.0514098 0.00349346)
(11.6928 0.809425 -0.63685)
(10.093 -0.0393966 0.0104625)
(10.6951 -0.867237 0.256751)
(10.1207 -0.0784338 -0.00294359)
(10.0072 0.00379049 -0.00679974)
(9.98307 -0.00285984 0.0141009)
(9.98892 0.0136461 -0.0205898)
(9.26176 -0.298544 0.352641)
(10.2819 0.457755 -0.0344413)
(4.3008 0.0326998 0.64685)
(10.3405 -0.408317 0.0452105)
(9.70121 -0.34334 -1.02658)
(11.9151 -0.516346 -0.834842)
(10.9824 0.726631 0.246873)
(10.7189 -0.858071 0.393532)
(10.1468 -0.0866474 0.0270767)
(11.0298 0.113001 -0.0344262)
(9.98653 1.79586e-05 0.00261782)
(12.4329 0.0964788 0.18519)
(10.5117 0.0418831 -0.0568913)
(10.4904 -1.22002 0.391211)
(10.1902 0.222757 0.0234554)
(10.0054 0.00506234 0.00575284)
(11.8846 0.103906 0.975165)
(10.0314 -0.0213345 -0.0119527)
(10.4866 0.0188853 -0.0301923)
(9.97573 -0.0138158 0.00616093)
(10.4103 -1.27417 0.247478)
(2.95914 -0.380129 -6.77035)
(10.0086 0.0153087 -0.00797458)
(5.69299 0.0777604 -11.3582)
(9.02235 -1.15279 -0.687819)
(9.97778 0.0320013 -0.00229695)
(10.8595 0.411266 -1.6238)
(7.54655 -3.80208 -2.58009)
(10.0093 -0.0237266 0.0265897)
(10.0019 -0.0344314 -0.0109549)
(11.0641 -0.36627 0.114909)
(9.9864 0.0407047 -0.023417)
(10.0097 -0.000877652 0.0552448)
(10.1651 0.281905 0.0401347)
(12.1744 0.128769 -0.328724)
(0.603548 -1.81207 -2.04435)
(9.99528 -0.0256362 0.00245444)
(5.80439 2.94304 1.03622)
(9.9325 -0.00488313 0.0211965)
(12.1673 0.661298 -4.14308)
(6.75418 2.30033 0.639382)
(9.97818 0.00655253 -0.00954155)
(10.0041 0.023561 -0.00252851)
(9.48113 -0.9642 -0.610902)
(10.1671 -0.0298426 0.0355796)
(9.29088 -3.05073 -1.23528)
(2.75738 0.973251 -7.47735)
(10.0056 0.0250992 0.0171711)
(10.0212 0.0158061 0.0239035)
(10.0584 0.00307187 0.0174702)
(2.58204 0.430165 -10.7962)
(10.0318 -0.0861909 0.0092622)
(10.0126 0.018744 0.015528)
(9.99197 0.019578 0.0156738)
(10.0397 -0.0351994 0.00227789)
(10.0317 0.00639441 -0.000543803)
(10.2092 0.0752346 -0.0233601)
(5.66715 -0.443318 -0.523589)
(9.87868 -8.42869e-05 -0.0287443)
(10.0812 0.111934 0.0368295)
(10.001 -0.00853595 -0.00190672)
(9.98232 0.00163767 0.0193667)
(12.158 -0.206139 -0.940829)
(9.99781 0.00177785 0.00404381)
(9.98959 0.0139644 0.032577)
(11.024 -0.118479 0.0110343)
(10.0029 0.000823503 0.00754242)
(9.98054 -0.00406328 -0.00347345)
(11.2051 -0.0801735 0.0332165)
(10.2102 -0.236873 0.0553223)
(9.98235 -0.0174517 0.0188073)
(10.3158 -0.0284369 0.00263652)
(9.76536 0.110993 0.119649)
(10.9647 -0.256388 0.0283606)
(10.2 -1.5075 -0.850122)
(10.5475 -0.00859617 -0.0135034)
(10.013 0.00352073 0.0138638)
(10.9539 -0.161422 0.0134785)
(10.0234 0.111864 -0.0102286)
(10.002 0.0135158 -0.00396607)
(10.1889 -0.132177 0.0188538)
(10.9842 0.0994896 -0.00946801)
(10.0069 0.0354304 -0.00245186)
(10.0341 -0.0338844 0.0367779)
(10.5983 -0.0553821 0.0258335)
(11.2308 -0.113422 -0.159577)
(10.7138 0.0168624 -0.0551117)
(10.6348 0.398346 1.60001)
(8.77194 -1.26245 -0.599129)
(9.96759 -0.0112532 0.0106622)
(11.6789 -0.218275 1.90519)
(10.9959 0.110071 0.160398)
(9.88253 -1.57367 -0.847491)
(10.7501 0.0777071 0.00378229)
(10.5434 -0.00519782 -0.0143808)
(11.7468 -0.487151 1.84654)
(10.0379 0.0173014 -0.00271841)
(11.1481 -0.0960015 -0.0773335)
(11.3232 0.355732 0.246704)
(11.8497 0.382543 -0.256844)
(10.7187 0.0081856 -0.0695449)
(10.0097 -0.0320155 -0.0185039)
(10.3462 -0.10678 -0.00867153)
(10.0009 -0.00361505 -0.000200029)
(9.83969 0.00132797 0.00541059)
(9.98535 0.203558 -0.0226273)
(11.5661 0.357815 1.73413)
(9.9654 0.0311502 -0.00712126)
(11.8895 0.357781 1.54338)
(9.79166 -0.0037472 0.00263851)
(9.88018 -0.0130165 0.0247865)
(10.0111 0.00643972 -0.000537428)
(10.0319 -0.0207785 0.0182717)
(11.8235 0.502215 0.0136005)
(10.456 0.370091 0.0651677)
(10.0073 -0.00324266 0.0123207)
(10.2402 -0.044456 0.0110761)
(10.009 -0.00243814 0.00566306)
(10.016 -0.0127884 -0.00260674)
(9.95593 -0.00319547 -0.00620613)
(10.006 0.030543 -0.00479288)
(11.7257 -0.0923215 1.72334)
(9.92101 -0.0011242 -0.00924893)
(10.0033 0.00405894 0.00613475)
(9.94183 -0.0231421 0.00321356)
(9.93592 -0.00795893 0.0170798)
(9.85445 0.112252 0.00206284)
(9.78061 -0.00973296 0.00122963)
(10.451 -0.58728 0.150455)
(10.0103 0.00190668 -0.00677979)
(9.76442 -0.00403631 -0.00284002)
(9.99666 0.0168256 -0.00174541)
(10.2181 0.0760998 -0.0160055)
(10.1502 0.0244769 0.0220298)
(11.6199 0.216964 0.730664)
(10.0305 -0.446029 -0.0709627)
(9.99647 0.0155886 -0.0323802)
(11.6999 0.221843 0.573328)
(9.99557 -0.00563727 -0.0194521)
(10.2382 0.0683695 -0.0280342)
(10.192 0.0703001 -0.00335057)
(11.9501 0.469673 1.24019)
(11.408 0.476948 1.45925)
(10.1804 -0.136089 -0.000931086)
(11.7985 0.177286 1.59808)
(10.0765 0.0103048 0.0272673)
(11.8694 0.329304 1.42773)
(6.76167 3.32942 2.3784)
(11.3683 0.367479 1.54341)
(5.86206 1.24218 -5.04547)
(4.21828 -5.63644 2.03104)
(10.1687 0.125396 -0.0242034)
(3.87164 -5.92041 1.34519)
(9.90349 -0.00682784 -0.00420438)
(9.99732 -0.00196152 -0.001645)
(11.2129 -0.129567 0.0844152)
(9.91434 -0.00537421 0.0142048)
(9.99207 -0.0353821 -0.00457046)
(9.90598 -0.154889 0.0112185)
(10.7994 -0.619032 0.0302101)
(1.40907 1.7502 -3.3969)
(9.21888 0.810332 0.099026)
(10.003 -0.00155388 -0.00210558)
(9.97885 0.018822 0.0101469)
(10.0343 -0.0413674 -0.01198)
(10.4569 0.311494 0.456342)
(11.8514 0.609672 0.18435)
(10.2259 -0.633714 0.177717)
(10.0765 -0.145093 0.01379)
(11.7668 -0.08018 0.330861)
(10.014 0.143072 0.0160114)
(10.0749 0.0163591 0.0486921)
(9.98532 -0.0181071 -0.00745722)
(10.0375 -0.0457679 -0.00752243)
(11.1729 3.99082 -0.245082)
(6.51807 1.829 0.232321)
(1.48289 1.17975 -6.12398)
(9.96297 0.00290789 -0.0205366)
(10.0698 -0.0689981 0.0123672)
(10.0661 -0.60954 0.0317887)
(10.1671 -0.529135 -0.156729)
(1.21197 -0.714101 -5.72246)
(9.99141 -0.020388 -0.0385883)
(9.97123 -0.0219852 -0.0411352)
(10.8302 2.54545 1.3997)
(10.1278 -0.121401 0.0201898)
(9.87896 0.0197525 -0.000726669)
(9.81455 0.00955789 0.0124661)
(9.93139 -0.00486955 0.0162005)
(13.1013 1.97146 -0.649604)
(11.1321 2.24633 1.28875)
(9.98413 0.162445 0.0304471)
(10.1288 0.136862 -0.0419038)
(10.0106 -0.0121058 -0.0437903)
(10.1847 -0.0244795 0.0108458)
(10.0432 0.0126503 -0.00886458)
(10.0532 0.235654 -0.0241832)
(10.0799 0.0692275 0.00497239)
(10.0456 -0.00184844 -0.00626004)
(10.0098 -0.0144729 -0.00733263)
(11.2831 0.0310115 0.273116)
(10.8524 -0.606446 0.393656)
(10.4872 -0.733443 -1.28903)
(9.98781 0.0263357 -0.00260302)
(9.96634 -0.00585211 0.00777054)
(9.98303 0.0225751 0.0443739)
(10.7221 -0.0571323 0.408228)
(9.93572 0.139868 -0.00375111)
(10.0619 -0.0109733 0.0171153)
(10.0059 -0.0150078 -0.0122956)
(10.0262 0.250763 0.0132428)
(10.0393 0.279638 0.0179418)
(10.086 0.0464496 -0.000289645)
(9.91492 0.275876 -0.0163576)
(10.0217 -0.0129328 0.00838402)
(9.98239 0.00805152 -0.0187545)
(10.0628 -0.0106073 0.022399)
(9.65235 0.393338 -0.156591)
(9.97795 0.00502928 -0.0170791)
(9.99956 -0.0178711 -0.00994323)
(10.0099 0.238074 0.00907626)
(10.4038 -0.431354 -0.0313615)
(10.1023 0.238103 0.0184349)
(9.93509 0.240302 0.00694456)
(10.0067 0.187042 0.0113814)
(11.2085 -1.24771 -0.0716894)
(9.95109 0.00727961 -0.0027992)
(9.25313 0.213077 0.132255)
(9.95751 0.173993 0.00596433)
(9.99949 0.0231899 -0.00632891)
(9.70975 0.267318 2.06444)
(11.3165 -0.397825 -0.516255)
(10.0581 -0.00516329 -0.0113945)
(9.97479 -0.00694027 -0.021661)
(10.3632 -0.378264 0.0661912)
(10.4734 0.47814 -0.0259263)
(9.83781 -0.00400268 -0.00782758)
(10.0124 -0.00560612 -0.00357019)
(10.0653 -0.13866 0.0124863)
(10.2211 0.698312 -0.110169)
(9.86997 -0.0106797 -0.01169)
(0.0295246 -0.0583477 0.23512)
(10.5865 -0.0666886 0.0376494)
(10.0752 0.933651 -0.0772779)
(9.97935 -0.00164777 0.00747283)
(10.0704 0.821734 -0.0514183)
(10.3147 -0.281948 -1.03839)
(10.0022 -0.0156865 0.00443372)
(10.0034 0.00569657 0.00405127)
(9.78608 -0.0343925 -0.0334421)
(10.0115 0.00263821 0.00473627)
(10.0592 0.829029 -0.110585)
(10.1146 -0.0543369 -0.0292775)
(10.0076 0.0231739 0.00312466)
(9.95351 -0.0155269 0.0103109)
(10.003 0.0182944 0.00544415)
(10.0222 -0.00724169 0.0122443)
(10.1901 0.185814 0.040131)
(10.0029 0.003452 0.00748683)
(9.98924 0.00147046 0.0101214)
(10.4796 0.877302 -0.315443)
(10.3138 1.08023 -0.362835)
(9.96994 0.0175098 0.0136779)
(10.517 -0.44054 0.0717263)
(9.95444 -0.0368496 0.0211649)
(10.4067 0.818377 -0.282286)
(9.97803 -0.0587668 0.0325768)
(9.9384 0.0213997 0.00957798)
(12.1613 0.0567589 -0.60994)
(10.0032 0.0128773 -0.0132684)
(10.4238 -0.701384 1.57526)
(10.0217 -0.0122486 -0.0167003)
(10.8082 0.501012 -3.00718)
(9.99743 -0.00554992 -0.0108965)
(10.5828 0.119648 0.00834704)
(9.96865 -0.0063706 -0.0233313)
(10.0189 0.00800484 -0.020614)
(9.84129 0.00963802 0.00592524)
(10.0483 0.000694315 0.0220341)
(9.99321 0.0042129 -0.0247924)
(10.3064 0.958179 -0.282528)
(1.71728 -2.07913 1.75707)
(2.07545 -0.62486 -2.48468)
(10.0505 0.0455552 0.0218372)
(10.3407 1.49071 -0.846928)
(10.6692 0.719585 -0.293353)
(10.7607 0.676161 -0.287503)
(9.98816 -0.0281067 0.00792174)
(9.97329 0.00901274 -0.00482809)
(9.99433 0.0130125 0.0121952)
(9.95027 -0.00762046 -0.00723308)
(9.9531 -0.032844 0.0112152)
(10.1386 -0.204149 -0.0201356)
(10.764 0.607847 -0.199785)
(9.98501 -0.0124824 0.016463)
(10.0419 -0.00334183 0.0146327)
(11.2739 -1.28341 0.434195)
(11.4222 0.529127 -0.186249)
(11.0555 0.547658 -0.126171)
(8.10285 -1.31503 -4.98213)
(-0.0421353 5.03107 0.764519)
(10.4833 -0.285063 0.0572924)
(7.45298 -0.974742 -5.50619)
(-0.0822394 4.777 1.11327)
(9.89721 -0.170746 0.0103831)
(-0.164663 4.97936 0.956069)
(8.86387 -1.57698 1.41814)
(10.0279 -0.0010307 0.00478472)
(10.9903 0.637242 -0.303344)
(10.9414 0.688641 -0.327967)
(11.2126 0.611177 -0.300247)
(-1.3151 4.10663 1.3249)
(10.0917 0.118765 0.00360225)
(10.001 0.0253681 -0.0129917)
(10.0095 -0.013633 -0.0211414)
(11.2822 0.655296 -0.399308)
(11.1621 0.688642 -0.457341)
(10.0483 0.00167491 0.0202487)
(10.0747 0.0941455 0.00498553)
(9.84855 3.6464 3.01585)
(-1.21295 4.04101 1.30653)
(12.845 -0.394985 -2.9721)
(10.007 -0.0125683 0.00773824)
(8.75232 -0.703948 -3.22659)
(10.0386 0.0310711 1.11519)
(9.97922 -0.0216454 -0.0131196)
(10.9012 0.403587 -0.044634)
(11.8751 0.349867 0.249539)
(10.8897 0.31363 -0.0370586)
(9.99632 -0.0138102 0.00459682)
(9.99894 -0.00462853 0.00722589)
(9.98273 -0.00643833 0.00085035)
(10.4581 0.340972 0.0178316)
(9.99949 0.00189281 -0.000263269)
(9.98966 -0.0182078 0.0181778)
(10.1472 0.0901043 -0.0370289)
(9.96294 -0.00527412 0.0118698)
(11.0404 0.150272 -0.0344294)
(10.0291 0.00293031 -0.00548456)
(9.99747 0.0328587 0.0267153)
(9.99878 -0.0151453 0.000796546)
(10.0061 -0.006902 0.00881793)
(9.94391 -0.00275613 0.0138673)
(10.3886 0.307421 0.0071694)
(10.1615 0.0513164 -0.000973631)
(10.05 -0.000888169 0.045061)
(10.9675 0.167856 -0.0423849)
(9.2185 4.34034 2.51366)
(9.96185 0.00553576 0.00912479)
(11.9336 1.6034 -1.32481)
(9.99831 -0.00929498 -0.00132754)
(10.7927 -0.202658 -0.043768)
(6.55518 -0.900166 1.66215)
(9.75805 1.40742 -0.571225)
(9.97842 0.0568428 -0.0249837)
(9.83473 1.49037 -0.638048)
(10.0083 0.0254172 -0.00745159)
(10.0623 0.0165232 0.0285526)
(10.0598 1.27791 -0.856253)
(9.98445 -0.0022096 0.0155253)
(10.6404 -0.187686 0.0604143)
(9.93401 1.16469 -0.597782)
(10.239 -0.0537678 0.0428415)
(10.5412 0.0163493 -0.25927)
(8.17821 0.279481 -4.09017)
(10.0388 -0.0210745 -0.0154369)
(9.64898 1.88215 -0.577478)
(10.0518 0.016521 0.0384748)
(9.05581 2.02435 -0.979243)
(10.0623 -0.0767958 0.0162666)
(10.0112 -0.034098 -0.00909538)
(9.99325 0.0202315 0.00687658)
(9.97893 0.0172657 0.00533859)
(10.8929 0.929789 0.856632)
(9.96455 0.0073623 -0.0030088)
(9.98408 0.0213379 0.00633612)
(10.0462 -0.0244409 -5.43449e-05)
(9.98822 0.0340409 -0.00413082)
(11.1281 0.537255 0.00252533)
(10.0867 0.0151668 0.00117148)
(10.0592 0.0173171 -0.00120569)
(8.64029 0.242709 -0.574774)
(9.95928 -0.0146384 0.0460875)
(9.88485 0.0744078 -0.00496918)
(10.0587 -0.118783 0.0268727)
(10.0483 -0.022957 -0.0184)
(10.1129 0.0175626 0.0276223)
(9.97826 0.0176901 0.00793345)
(10.1266 0.0366744 -0.00259051)
(10.3332 1.32628 -0.993966)
(10.0051 0.00964988 0.00685414)
(9.98887 0.00482679 0.00254505)
(2.96712 -0.472273 -5.71994)
(10.0467 -0.0126682 0.0184075)
(10.0324 0.00692 0.00704509)
(10.0434 0.125081 -0.030576)
(10.0048 0.011078 0.00652752)
(12.6405 1.28023 -0.427758)
(12.7478 0.936711 -0.145513)
(9.95378 -0.0220335 -0.0143198)
(9.97019 -0.0812104 0.0175132)
(9.91215 -0.00509983 0.0188901)
(11.2818 -0.129775 1.21437)
(10.0408 0.0592784 -0.0321073)
(12.7049 1.35809 -0.383242)
(9.99933 0.00630689 -0.0036739)
(-0.800222 -1.32997 2.76101)
(8.16483 -0.507104 -0.658554)
(9.24318 -0.87182 1.93525)
(10.0444 -0.0124234 0.00917384)
(12.6501 1.26997 -0.311913)
(10.0717 0.0342056 -0.0280718)
(10.0823 0.11273 0.00693444)
(10.0254 0.0139581 -0.0637984)
(9.83211 0.0549498 0.130485)
(10.0256 -0.00965153 -0.00611084)
(10.0441 0.0365961 -0.015509)
(7.12554 -1.01789 -0.0768299)
(10.006 0.00841256 -0.0150244)
(9.9663 0.00129322 0.0045935)
(9.98721 -0.0138863 0.0162789)
(12.5432 1.32483 -0.371334)
(10.055 0.00957211 0.0309425)
(10.0321 0.000799975 0.00591)
(12.3679 1.32766 -0.440976)
(12.27 0.701889 -0.0553018)
(10.0414 -0.0111834 0.0188965)
(10.0137 -0.00581041 -0.00204109)
(-0.294717 1.98282 0.878935)
(10.039 0.00505136 -0.0088858)
(10.5705 -0.341171 0.175533)
(9.97089 0.00679246 0.0217337)
(10.0666 0.0207193 0.0348852)
(10.0414 -0.00932889 0.0103123)
(11.9272 0.832208 -0.229211)
(11.1324 -0.028459 1.38307)
(9.29605 0.680026 0.853362)
(9.93378 0.0576935 0.0993617)
(10.0122 -0.0307434 0.0241576)
(10.0061 0.0127134 -0.0172125)
(12.6182 -0.444642 0.522764)
(9.29405 0.151394 -0.396021)
(9.85149 0.0545778 -0.0364859)
(-0.17905 1.84652 0.603003)
(10.004 -0.0279638 -0.0203602)
(10.0147 0.0122598 0.00861095)
(-0.926089 1.72793 0.918767)
(12.0357 1.92326 -1.13754)
(9.85491 0.105813 0.0268899)
(0.0323128 1.93105 0.531651)
(-0.0010804 1.95443 0.837564)
(10.0101 0.0260443 -0.00182552)
(9.99904 0.00605228 0.00222927)
(10.0468 -0.00693962 -0.0151271)
(9.66004 -0.388046 0.05336)
(9.99491 0.0130937 -0.00107897)
(9.9683 0.00497923 -0.00181497)
(11.363 1.10053 0.232237)
(10.0277 0.250975 0.0553508)
(9.95373 0.0445315 -0.00256759)
(10.0654 0.0065847 0.0195002)
(12.6177 0.831734 -0.0688814)
(11.8444 1.14525 -0.234686)
(9.97141 0.00447444 -0.000541557)
(10.3681 0.370294 -0.0466051)
(-4.52112 -2.67666 -0.427877)
(-0.0304006 -2.13096 -0.216796)
(10.71 0.363689 -0.164905)
(9.95971 -0.00361881 0.00477545)
(10.3451 -0.15291 0.151544)
(10.8978 -0.133558 -0.712882)
(9.89202 -0.000318635 -0.0235711)
(9.89164 0.00170301 -0.0208097)
(10.041 -0.00161676 0.0251183)
(10.3102 0.162989 -0.00941168)
(9.9796 -0.0124858 0.0070067)
(10.7346 0.169775 0.253984)
(10.0078 -0.00220168 0.0108375)
(12.895 0.901408 -0.607316)
(10.3182 1.51495 -1.08183)
(10.6505 0.351098 -0.0941751)
(12.9313 1.08664 -0.925663)
(10.0989 0.0666086 -0.0220702)
(10.0011 -0.00463738 -0.0142622)
(10.5339 0.678512 0.151102)
(10.1695 -0.0942451 0.0278753)
(10.0162 -0.00131978 -0.00632564)
(10.0068 0.00616554 -0.00266361)
(10.9365 0.770249 -0.480003)
(7.97644 -0.745264 -1.40717)
(10.0208 -0.00558511 0.0032305)
(10.7868 0.194622 0.0559652)
(9.98706 0.116172 0.0339569)
(12.0379 -5.4444 -1.97469)
(10.565 -0.821133 0.945043)
(11.495 -0.155471 0.855692)
(6.31601 1.01161 0.334138)
(6.14247 0.98583 0.180574)
(10.0601 -0.0141353 0.017762)
(9.89256 0.13235 -0.00664017)
(5.01866 0.851886 -0.171438)
(10.0338 0.00675279 -0.00436321)
(9.9434 -1.74901 -3.39979)
(7.06026 0.536361 1.99431)
(9.98491 0.000614961 -0.00236017)
(9.93857 1.24909 0.680376)
(10.0183 -0.042798 0.0034859)
(10.0192 0.00546705 0.0197175)
(10.0209 -0.0023126 0.00175362)
(13.0751 0.415867 -0.0849569)
(9.97702 0.0107536 -0.00393625)
(9.98492 0.00483621 -0.000721322)
(10.0276 -0.0232087 0.00649015)
(9.89159 -0.00428257 -0.0481144)
(10.0211 -0.00866554 0.00939112)
(10.0483 -0.0142747 -0.00319285)
(10.035 -0.00301304 0.04101)
(9.97481 0.0059669 -0.00650933)
(11.1677 0.957363 0.642268)
(9.9832 0.346304 -3.1075)
(13.1052 3.31245 1.40482)
(10.7905 0.421735 0.025016)
(9.77807 1.36989 1.38562)
(10.0221 0.0348852 0.000914653)
(9.40654 -0.952996 0.105438)
(10.017 0.0176316 0.0115401)
(10.0004 -0.00153202 -0.00818429)
(10.0029 0.00166717 -0.00703949)
(9.99958 0.000812115 -0.0065184)
(9.9864 0.0159407 0.000829623)
(9.12804 0.329891 -0.875936)
(11.3772 0.571451 0.233377)
(9.98549 0.0125228 -0.00448658)
(10.2282 -0.512347 0.136946)
(11.5277 1.42122 1.93163)
(10.0123 0.023284 -0.00146077)
(4.16155 -0.103 2.01639)
(13.0407 -1.00155 -2.81366)
(9.95067 0.0247695 -0.00534666)
(9.40141 -0.579711 0.0521212)
(10.4322 0.0361241 -0.00696152)
(10.0291 -0.00403179 -0.0309357)
(4.59481 1.03921 1.56311)
(9.99919 -0.00387689 0.00166507)
(8.05117 -3.54817 0.82686)
(10.0458 -0.0045586 -0.00465779)
(11.4706 -0.235702 1.07433)
(11.9301 0.480222 -0.0101081)
(9.97848 -0.0281146 -0.00657547)
(9.97077 0.0200063 -0.00534126)
(10.2397 0.536788 0.062124)
(8.57457 -0.573897 -2.24963)
(9.95061 -0.0264772 0.0113866)
(10.0309 0.00675726 0.0286469)
(10.1941 0.00062882 0.00774681)
(11.8375 -0.0861023 0.721211)
(10.0021 0.00447946 0.00252391)
(12.156 0.472612 0.283386)
(10.3376 -0.0193621 0.0123075)
(1.11273 -0.735324 0.408951)
(11.8741 0.412895 0.0894823)
(10.2692 -0.0101958 0.00879806)
(11.9812 0.441921 0.204268)
(10.0013 -0.00457913 -0.00257514)
(10.1125 -0.0702733 -0.020468)
(10.5323 0.361615 0.0230625)
(10.3045 -0.037728 0.000680142)
(12.1763 0.536132 0.114062)
(9.99741 -0.0179371 0.00317961)
(10.0387 -0.214421 0.0220414)
(12.02 0.485798 0.0447454)
(9.99868 0.000818713 0.000157209)
(10.3421 -0.0470766 0.00451348)
(10.0032 0.0096406 -0.0017929)
(10.019 0.00883981 -0.00119224)
(6.87363 0.368309 -5.10206)
(6.69171 -0.128715 -5.68019)
(9.80642 0.0696132 0.399747)
(8.79257 0.332378 -4.15272)
(10.0098 0.0123834 -0.000925006)
(9.98285 0.00375764 -0.000212398)
(10.7543 0.642913 -0.22612)
(10.3324 -0.143096 0.0314233)
(8.81733 0.138698 0.341069)
(10.0262 -0.00236157 -0.00536527)
(10.0517 0.0238243 -0.0115601)
(9.95482 -0.0172368 0.00972454)
(9.98639 0.034073 -0.0215204)
(5.27645 0.232222 -6.32866)
(2.59391 -0.718416 0.924125)
(9.95038 -0.0121853 0.00961622)
(10.019 0.054176 0.00307991)
(9.95566 -0.0567175 -0.0182042)
(9.94183 0.0139585 -0.00681786)
(10.1181 -0.115993 0.0315845)
(9.94015 -0.0191457 0.0057088)
(11.1333 -0.126713 0.046937)
(11.6924 -1.41122 1.88861)
(10.0819 -0.00725019 0.0137472)
(10.0544 0.0214638 -0.023825)
(9.96374 -0.0280505 -0.00439699)
(10.0092 0.0220317 0.00890986)
(9.76283 0.214257 0.0381)
(9.98645 -0.0272494 -0.0160776)
(10.5575 -0.194169 0.0128628)
(9.96429 -0.013093 -0.0381384)
(10.0208 -0.0186825 -0.0225241)
(10.0553 0.0126195 0.00539829)
(9.25077 -0.853351 -1.22986)
(5.15378 0.723137 -4.76241)
(10.0216 -0.0615899 -0.00238195)
(-0.248163 -1.8131 0.646113)
(10.1192 -2.65635 1.27304)
(12.9683 -1.33142 -1.0238)
(-0.160054 -1.93793 0.483002)
(10.2191 0.0452243 0.021077)
(5.76316 -0.234974 0.678069)
(10.4386 -0.468795 -2.54323)
(10.9948 -1.44409 0.425777)
(5.69577 0.303801 -3.7377)
(-0.426612 1.84023 1.49855)
(1.49507 0.590393 -3.51545)
(11.2767 -0.033128 0.490714)
(10.6814 -0.039189 -0.0291668)
(10.8371 -0.0243228 1.12771)
(9.93027 0.00519974 -0.00961691)
(3.76926 -0.220334 -0.242477)
(10.7412 -0.0111899 -0.32617)
(10.6059 -0.0248849 0.0219321)
(10.005 -0.0118351 0.0127898)
(10.0162 0.0134441 -0.0243907)
(11.2874 -0.159706 1.08544)
(9.91399 0.113603 0.0373498)
(10.1331 -0.0333361 0.0180965)
(9.97118 0.0614442 -0.0132998)
(-1.46619 1.10148 0.412957)
(8.10989 0.262191 -2.46677)
(10.0206 -0.00344126 0.00102925)
(9.98475 -0.0049187 0.00408758)
(5.05874 0.2831 -2.35562)
(5.95468 0.14716 -3.01944)
(10.9751 -0.390297 -1.80725)
(-3.24826 -3.55409 -1.13143)
(3.59361 0.618755 1.55319)
(4.09493 -0.00396866 -3.84332)
(3.82311 -0.075445 -4.71096)
(10.0064 -0.00381901 0.00865913)
(9.75951 0.000220133 0.0042031)
(9.46235 -0.0336811 0.100787)
(10.0018 -0.0428319 0.0182846)
(10.4216 0.041886 -0.0462388)
(-0.464611 1.99298 0.833572)
(10.8657 -0.101267 -0.25285)
(10.4749 0.0365933 -0.0466872)
(10.3659 0.0406521 -0.0397285)
(10.0647 0.0259048 0.0100083)
(-0.356641 1.93248 1.70891)
(-0.433253 2.20166 1.68788)
(10.0366 0.00289823 -0.0267103)
(10.4477 0.00217418 -0.0541165)
(9.93045 0.0526934 0.0161447)
(9.99326 0.0090402 -0.0164666)
(10.3982 0.0190144 -0.0380121)
(10.0177 0.0178214 -0.0287682)
(9.69259 -0.0317867 -0.0192193)
(10.0372 0.0141222 -0.0449151)
(9.98839 0.0041319 -0.0138381)
(6.92805 -0.675307 -3.09178)
(10.024 0.0083249 -9.604e-05)
(9.99046 0.0244456 0.0380258)
(10.0315 -0.0346027 -0.0131195)
(9.88851 0.0318974 -0.0107161)
(9.90953 0.0257462 -0.0125939)
(4.24094 -0.502459 -2.35833)
(12.5207 -1.34946 -0.382565)
(10.0141 -0.0113057 -0.00724712)
(10.7367 0.402292 -0.206765)
(10.0393 0.0263758 -0.0114603)
(9.76046 -0.350213 0.13019)
(9.74162 -0.426854 0.189938)
(12.0273 -0.0696258 -0.0514397)
(9.92264 0.00524468 -0.00709572)
(-0.370675 -1.08937 2.20082)
(12.127 -0.138262 -0.061053)
(10.4451 0.0705452 0.0176834)
(10.7634 0.343257 -0.0416893)
(8.1184 0.304363 -3.39298)
(12.1415 2.68415 1.09963)
(9.99713 -0.0337597 0.00117377)
(10.0025 -0.0305045 0.00115762)
(11.8451 1.57641 2.05976)
(10.0434 -0.00139353 -0.0230892)
(10.0029 0.0296375 0.00053865)
(11.075 0.576499 0.361863)
(9.99345 -0.0326119 -0.00341106)
(9.98345 -0.00290623 0.00174552)
(-1.67027 0.386278 2.68297)
(12.5061 0.232798 0.103465)
(11.4527 3.23644 -0.0996167)
(10.0023 0.000586319 0.00502674)
(7.65528 0.528269 -2.63625)
(9.95754 0.00998916 -0.00700737)
(11.888 -0.395346 -0.261237)
(9.58687 -0.418801 0.298072)
(12.0724 -0.0843665 -0.0225626)
(9.91013 0.00639936 -0.00380208)
(9.39855 -0.457197 0.261278)
(-1.09016 0.418654 2.88135)
(11.8733 1.67759 2.52348)
(12.3078 -0.377912 -0.829501)
(-1.01665 1.78464 1.81111)
(12.0223 0.336858 0.202741)
(10.4029 0.165795 0.0585197)
(9.91554 -0.00672469 0.00807523)
(12.0952 0.27487 -0.207031)
(9.97599 0.00487507 -0.00147124)
(12.2002 -0.0948736 0.153898)
(-0.170921 -1.15344 1.36501)
(9.98816 0.00302552 -0.00268928)
(12.6874 0.0449681 -1.17914)
(9.98467 0.00442054 0.0274728)
(9.96661 0.004334 0.0218729)
(11.3212 -1.80267 0.754366)
(9.97702 0.000606676 0.0190502)
(10.1289 0.106328 -0.0324608)
(8.23403 -5.83434 0.190059)
(9.58453 0.404727 0.0760094)
(10.0068 -0.245809 0.00632115)
(12.4944 -0.797861 0.190455)
(10.4819 1.40519 1.43234)
(10.0434 -0.00162865 0.0437069)
(11.8239 -2.52246 -0.760686)
(5.25565 -0.835917 -0.0813941)
(10.6478 0.0422868 0.0567271)
(9.61502 -0.724521 -0.852733)
(9.99289 0.0815423 0.00761039)
(10.4114 0.176876 0.014931)
(9.99314 -0.0102197 0.0218807)
(9.98577 -0.0114817 0.0108516)
(1.89077 1.90672 -0.991457)
(1.08965 -3.97251 1.73038)
(12.331 -0.422412 -0.0112495)
(10.0763 -1.67021 -0.337429)
(12.1822 -1.50917 -0.220586)
(1.58288 4.60991 1.14661)
(-1.94421 0.500645 1.06955)
(9.68602 -3.59615 4.36067)
(9.97231 -0.00801206 0.00338571)
(10.0038 0.011774 -0.00804117)
(9.98953 0.0139516 -0.00315098)
(9.86534 -0.0644697 -0.0598288)
(5.49257 0.726889 -1.97227)
(9.68637 -0.547612 0.180666)
(9.04333 -0.635286 1.12131)
(9.98876 0.0197355 -0.00751685)
(-0.920115 -1.50987 0.428872)
(12.1487 -0.0820762 0.0147998)
(9.94811 0.212073 -0.182808)
(10.0648 0.0433983 0.0149006)
(10.0092 -0.0431857 0.0259138)
(10.0693 0.0429364 0.0121903)
(6.2658 -1.84092 -3.14009)
(10.0049 -0.00297869 -0.00608965)
(5.81283 5.38131 0.108913)
(10.0219 -0.00823659 -0.000224087)
(10.1676 -0.564521 -3.03675)
(9.98842 -0.00381005 -0.00261491)
(9.99993 -0.00639399 -0.00583139)
(10.0124 -0.00924962 -0.00261117)
(10.0218 -0.00763316 -0.00695103)
(9.98804 -0.0120531 0.00304687)
(12.8403 1.00438 0.206715)
(12.1258 0.220538 0.728392)
(9.04323 1.44388 2.5002)
(7.13611 4.05651 2.52706)
(9.41254 1.17862 0.529296)
(10.377 0.519479 -0.0648563)
(11.2341 1.04198 0.0478854)
(6.5805 -0.366248 -2.86852)
(10.5134 -0.129514 0.046165)
(12.1821 -0.119584 -0.0357127)
(10.4322 -0.737227 0.143411)
(11.9303 0.0249803 -0.0462177)
(8.17711 -0.111615 4.63579)
(5.36503 -1.34929 1.37259)
(10.5346 -0.244578 0.207502)
(9.99916 -0.00907456 0.00486053)
(9.53537 0.895283 -0.282826)
(10.0058 -0.00537205 0.00935435)
(10.1173 -0.00456226 0.00326031)
(13.5665 -2.35384 2.6747)
(12.1889 -0.580598 0.789787)
(-1.68008 2.84144 0.565185)
(10.162 -0.877128 0.271128)
(11.7529 -1.02227 -0.342011)
(10.4153 -1.09472 -1.10966)
(10.8411 -0.158246 1.6124)
(10.1679 -0.00844046 0.00632214)
(-3.9708 -2.85106 1.42521)
(10.0085 -0.000671018 0.00674299)
(10.0591 -0.00374288 0.00449455)
(10.3917 -0.0425437 0.730484)
(9.79691 -0.0690826 4.95355)
(10.1813 -0.0155105 0.0125921)
(10.2274 0.547734 -0.386512)
(9.98376 -0.00172592 0.00410738)
(10.6151 -1.26656 0.630051)
(10.6059 0.0899423 1.05251)
(9.95952 -0.0239748 0.00302145)
(10.9843 -0.392461 -2.99609)
(10.3212 0.706617 -2.42444)
(12.5514 0.384388 1.42784)
(10.6421 0.516362 -0.125559)
(9.57423 0.114379 0.304923)
(3.13194 0.957617 -3.6977)
(0.493635 2.91063 3.29433)
(5.33816 3.19098 0.818302)
(13.0437 -0.835497 -2.67775)
(5.38806 -0.545013 -0.107053)
(9.82359 -0.00272391 -0.0681696)
(9.8943 -0.0264703 -0.00407773)
(8.42322 1.69509 2.82556)
(9.95741 -0.0105082 0.000759756)
(4.49234 -0.767733 -0.147407)
(9.858 -0.00557915 -0.0463724)
(9.84543 -0.00893943 -0.0506608)
(-0.367737 -0.361277 0.312475)
(9.63817 -1.25462 0.892637)
(10.8913 -0.456552 0.142653)
(9.97601 0.0110138 0.00917464)
(9.99098 0.0204138 0.00853057)
(8.2662 0.295605 -2.80548)
(10.0273 0.0199883 0.0242398)
(9.94987 -3.24265e-05 -0.0155626)
(10.0574 0.901584 0.995409)
(12.2614 -0.723289 -2.79126)
(10.258 0.326191 0.0729562)
(9.89027 0.0855793 0.0067105)
(9.90957 -0.105428 -0.00069816)