/*--------------------------------*- C++ -*----------------------------------*\
| =========                 |                                                 |
| \\      /  F ield         | OpenFOAM: The Open Source CFD Toolbox           |
|  \\    /   O peration     | Version:  2506                                  |
|   \\  /    A nd           | Website:  www.openfoam.com                      |
|    \\/     M anipulation  |                                                 |
\*---------------------------------------------------------------------------*/
FoamFile
{
    version     2.0;
    format      ascii;
    arch        "LSB;label=32;scalar=64";
    class       volScalarField;
    location    "0.0263738";
    object      p;
}
// * * * * * * * * * * * * * * * * * * * * * * * * * * * * * * * * * * * * * //

dimensions      [0 2 -2 0 0 0 0];

internalField   nonuniform List<scalar> 
3918
(
-47.3895
0.806907
-7.64667
-12.3582
6.29993
35.4122
29.8316
16.2106
0.0794154
-0.429528
27.2207
-51.3301
-18.6864
-24.4611
-9.11814
34.328
38.0901
-42.842
-41.4394
1.55582
61.0253
-9.74846
9.92445
-53.3927
2.81098
-61.0433
31.5023
-9.12961
-45.2436
-13.1201
-43.624
-6.28567
-8.93807
-0.791494
-46.4266
-53.1521
-3.42025
-11.9995
56.2216
-6.27921
-15.7821
-4.956
23.2659
-35.6803
1.38175
14.5237
5.01418
55.9495
-46.1949
-14.8406
41.3163
-54.3386
-9.49837
-20.6697
-8.35575
-46.9192
-8.82685
-36.048
-2.22571
-1.63445
19.6487
-6.55039
-10.4704
-36.7302
21.8667
-4.03895
-12.2398
-53.8187
-25.8731
-51.8906
19.85
-58.6824
-41.3218
-46.9196
-45.8084
-43.6371
-35.5726
-24.0293
-36.1242
-5.90038
-47.4012
55.9667
-12.6938
-3.45171
-7.52335
-40.2361
-40.5968
-42.0704
-55.4905
-7.69049
-5.90555
-2.11158
-68.8691
38.2187
0.25361
11.291
-47.3013
-2.16031
-51.6504
60.7457
-9.71574
-10.3459
-6.88912
-8.84143
-9.33616
-44.4249
-18.2146
34.7799
-2.51985
-55.757
-44.8511
-46.3124
-44.096
-44.3483
-46.312
-45.6534
-44.2458
-48.2788
-43.8918
-47.5893
-8.53248
-14.7992
-20.7151
-41.592
-20.598
-42.0945
0.69531
-11.0113
58.1701
38.4729
11.3725
-12.6972
0.890813
-12.6836
63.8612
62.5276
-42.4491
-42.3234
-42.0596
-29.209
63.7835
-43.4275
-19.9982
61.3691
-31.586
-33.7632
51.1541
62.5695
-34.0388
-42.0266
-13.978
-47.8748
0.090109
-37.1716
-25.3191
-27.1375
-67.7203
-46.6123
16.168
-1.95219
-4.22174
-40.0549
-41.749
-65.8067
-40.4912
-45.1174
-43.3266
-43.0981
-43.8158
-44.6111
43.69
-44.1849
-42.9553
-44.2038
-44.8137
-9.24951
-56.31
-5.14444
57.6489
39.2531
-4.48511
-36.3124
-58.8351
-27.3006
-30.1449
-31.3362
56.9178
-19.2667
-13.1855
-34.1063
-7.14822
-32.6457
59.0328
61.3189
-17.684
-21.6778
-20.6552
-29.2169
-39.2736
6.36092
-49.4834
-6.23938
-43.3865
-20.7474
-44.7064
-25.1074
-45.741
-121.829
-59.1357
21.4283
-27.2946
-40.7584
-7.27847
-44.2959
35.6277
-16.8788
-35.108
-32.4508
-43.9357
23.7843
-42.273
-59.6095
-50.0243
-0.924586
-36.1805
-71.7771
48.5234
-49.2543
-79.2042
-12.8193
-43.9298
-22.0662
11.9755
-23.0021
-2.00191
-41.2564
-45.6388
-10.864
-32.7776
4.0207
-41.5761
-55.0002
-29.5101
-15.9523
1.12024
45.2092
5.56855
-6.59844
1.50974
39.4195
-20.7386
-68.6227
13.1748
2.05963
-48.9675
50.2836
-50.9639
-10.764
-45.1811
-29.5297
-47.2434
-1.04985
-61.9079
-9.73404
52.8251
7.12061
-38.1353
38.2533
59.6472
38.765
2.82434
-25.4105
2.07958
-13.3239
-13.9991
3.55035
-66.2968
-40.8815
-58.4353
23.9532
-12.0473
-26.0908
-47.2724
12.7681
-12.3064
42.6202
-7.59817
-62.0696
8.66618
-2.42293
-59.787
-21.6066
-17.9373
13.105
-28.6219
-13.5439
-60.6732
-44.9371
-51.0204
-14.5576
-48.5068
5.16721
9.4949
-55.0981
-42.9376
-50.9259
-14.6159
40.481
-3.049
-20.9492
-53.9038
28.6157
-47.8957
-44.0889
-21.4437
23.2698
-5.0246
40.5831
62.4362
-74.0347
-26.1023
-41.2893
-50.2611
-0.912535
-0.138196
-42.7253
-3.07704
-19.2064
-46.6347
1.21151
53.6898
-12.5375
-6.9614
-28.0029
-46.0135
42.8305
-33.1352
-15.7742
-46.906
-5.05993
-3.71537
-50.1688
-36.0045
-17.5139
44.6426
-33.3976
-47.1012
25.3963
-46.8396
56.6326
-47.1989
-45.5497
-47.8708
-12.3058
0.359064
-4.54332
-35.0497
-36.4255
-54.5216
-16.5673
-17.4972
-54.0748
-55.4667
3.51759
-4.40643
-48.8582
-28.32
-9.09559
-3.90525
-53.6466
-22.3048
-12.5754
-21.2797
-10.3964
-49.7041
-40.6119
-29.7533
-49.7511
-28.1755
-0.160261
0.462269
-12.4174
-15.088
-7.50207
-9.25185
-42.0013
-56.5812
-51.7101
-12.1226
-20.7541
-48.8935
-34.7085
-1.65972
-39.4451
-14.0984
-42.3099
-40.3731
-7.2475
-39.7223
-36.8749
-48.1752
-6.88046
-25.5578
4.71061
-3.18768
-1.89047
-20.3666
-46.1425
-38.0803
-59.0979
-60.3317
-21.8112
-7.86893
-15.8291
-24.0765
-9.33739
-12.8764
-7.96066
-15.5243
-5.96252
-4.99882
-15.3076
-7.83019
-13.2813
1.93634
-5.83648
-12.6034
-4.74785
-10.773
38.2053
2.7746
-28.3204
-48.6354
61.9284
32.884
54.5578
25.5703
-14.7652
-14.8768
-13.1353
-3.32186
-21.2286
-59.204
-44.3992
-32.6828
-14.4801
-4.47109
-30.6074
-31.8123
0.276921
-25.5622
-30.0649
-43.0518
-23.8583
-26.9746
-33.8054
-32.1358
-21.774
-61.7851
-6.35853
-4.92058
64.7855
-50.5402
-3.74431
-56.4102
-26.1969
-4.22268
-47.356
-7.29451
-5.9631
-41.458
2.2404
-96.0936
-67.1035
-17.1285
34.4615
64.4557
-45.8358
-65.6993
-5.23106
-50.286
-53.7442
-45.229
-6.97738
-54.6653
-24.2079
-108.691
-61.2168
44.5214
-47.1036
-54.5146
2.35253
66.2194
59.0545
31.0354
62.8683
-53.6507
-5.46366
-60.4131
-7.9904
-7.06828
-7.67368
0.867916
0.300181
-15.0566
-8.7071
-1.92919
0.594151
-1.22181
-8.72921
-15.1651
-4.03784
-0.771667
19.1219
-10.9512
4.97597
-11.4675
-3.23642
-8.94393
-3.73923
-2.9112
3.15102
-0.0599124
-69.4711
-1.87256
-1.31953
-41.4358
2.51831
-11.1121
-17.7029
-8.60794
-49.4506
45.0974
-8.43043
1.0041
-10.8536
-1.88727
-5.89187
1.78366
-6.50516
3.92308
-9.76314
-2.85228
-0.755369
-32.5977
-42.7216
-31.1635
-11.382
-7.54256
-22.9558
-10.8603
-45.3437
-40.5324
55.4627
62.2857
-41.7884
60.2676
-46.3349
-8.16413
60.8159
-63.9891
-35.7394
-45.3549
-65.1044
-18.7398
-29.2323
-17.192
-12.8659
-43.5444
-11.258
-16.588
-43.8027
62.3764
-29.6305
-36.0834
-46.3828
52.6169
-14.5506
-11.0083
-12.3563
26.7904
-79.509
9.56837
-47.2227
-38.9171
-43.4197
-17.5518
-63.8785
-57.1477
-40.1403
-35.4489
-49.2431
-9.33488
-23.3278
-41.4692
-59.5179
-48.8842
-41.8307
-26.9558
-47.0563
-9.20927
-80.5801
-26.1925
-59.1592
-28.8619
-61.6889
-49.3457
-28.7767
-52.0079
-32.7399
-13.9398
0.422658
-28.7158
53.3521
-8.988
64.3975
63.2581
-48.6879
-51.5314
-49.634
-44.4744
-44.7442
-55.3297
48.5122
-46.2103
34.8754
-40.0558
-41.0841
-41.2379
-43.2823
21.9194
-4.28651
-46.1209
-48.4749
-46.8131
26.4669
-41.2196
31.2331
-32.6887
-19.1188
-15.527
-14.5522
-15.6225
43.212
-58.201
-19.1187
-4.92555
-5.19968
-10.6351
-0.696525
-2.03346
-6.25838
10.1369
0.884825
-3.87333
-1.93027
35.9975
-1.13812
5.93056
-17.0635
-5.81768
-21.8324
-17.0134
-26.1014
-21.2854
-17.9203
-106.209
5.2589
-57.1612
-51.2014
-48.0339
34.1547
-51.1253
0.190205
-48.9916
-51.3706
-50.6594
-50.151
-54.5522
-63.8529
0.665825
0.192636
-8.01409
1.81958
21.1459
-12.5757
-29.3557
1.63078
-20.5666
-20.6218
-1.73494
-20.3316
-69.8123
-78.2292
-36.0194
-73.5249
-66.5436
-57.3989
-59.5892
-59.5067
-55.7116
-51.4468
-60.1085
3.82263
-14.8367
-14.8418
-19.8017
1.77595
56.4509
62.2149
62.6866
62.0492
26.9119
24.4119
39.0214
42.4592
34.5578
-10.7936
-7.91049
-8.50978
4.50351
33.8705
-6.86982
-10.1188
-7.01021
-20.834
-7.88361
-1.69386
-6.63346
-4.29028
-9.71798
-59.2926
-16.6721
-7.21237
-7.35783
-6.1267
11.7497
-20.4057
-2.98855
6.14613
-6.34743
-10.9116
11.2624
-52.126
-0.599863
-49.0108
-20.6838
-62.2668
-9.07105
28.962
29.2121
-49.3958
-20.2646
-43.7585
35.3271
-10.0018
-8.59582
-5.46901
-28.1593
-35.9167
-3.55935
-86.7848
-8.45653
-7.57432
1.34744
-20.1778
-20.3388
-18.5689
-45.4023
-13.4518
11.9208
-40.7619
-26.9171
41.1151
37.6746
0.764922
33.9935
26.4588
-22.8215
-51.4763
58.4225
-155.268
18.455
19.9663
-109.771
12.6323
3.03168
37.7044
10.8367
48.3539
-46.4083
-53.1842
26.746
-39.3079
-0.0682463
-3.29121
-5.72661
-10.6189
-12.4014
-13.4465
-14.0556
-9.04596
-127.543
-87.4214
-43.1905
-34.7118
-46.3308
-7.16956
-51.2416
-34.9398
-15.3972
-15.9637
-7.37643
58.7273
-4.7052
-43.9567
-11.8476
-0.031743
-0.0136103
2.18196
-38.0043
-49.5725
-30.211
-39.4833
-47.0249
-39.5183
-6.26091
-3.48263
-24.3568
-2.21832
38.8241
-14.4326
-20.5245
1.40391
-6.33262
17.2435
-25.1387
-1.98809
12.1158
-35.9401
-1.33796
-63.503
-9.58251
20.8086
22.1358
-55.7932
-7.5382
-42.9429
-24.6177
5.0472
1.05813
-3.22928
0.456979
-18.7926
-6.41528
-9.97754
-41.6185
-59.0698
-31.9255
-39.5888
-41.7187
-34.5439
-9.84531
-7.66991
-39.8138
31.8713
-8.63459
-8.48802
46.7684
41.5296
-9.99283
-7.7203
-7.19586
53.595
-3.30083
-51.7528
-8.80129
-29.299
-8.65021
4.46895
41.226
-2.92155
-3.44934
-26.8462
-11.8621
-38.4427
-31.9598
-74.9424
52.3572
57.9395
-45.1071
41.1817
-23.0945
44.3051
-12.6124
-86.9483
58.0877
52.0567
55.6032
-12.0533
-34.4538
-2.4912
-9.17108
61.3465
-14.1564
56.632
-62.2775
-69.7673
-55.5336
37.363
-13.7527
-7.09016
-4.1534
-0.788814
1.00513
-37.2479
46.5446
-6.47202
4.17325
-20.3152
-3.82045
3.08741
62.2678
-19.4556
-45.6293
39.2694
35.3146
3.16581
24.9774
-1.87777
-13.159
-1.20557
35.2566
-19.5368
-35.6176
-45.2823
0.701568
42.3862
-52.8302
18.3618
5.88007
-46.4077
53.5595
-22.4677
-16.4751
-49.8449
-51.5641
-32.5478
-42.7125
-16.5959
-50.7626
-32.8657
33.0866
7.44637
2.17129
1.65467
-3.76449
-27.9913
-33.2297
-52.0056
-4.71619
-0.993448
-5.54341
-6.90648
1.78257
46.3782
-23.42
-19.7468
27.1726
48.2667
-31.9052
-55.2588
-8.36589
-29.4094
57.1775
-30.062
-81.2058
-55.7596
-6.10697
-52.3103
-50.4685
-44.5263
-46.8104
-51.555
-4.31881
-30.2476
-10.1536
9.86043
7.4036
5.20812
-29.5656
-11.4775
-86.4646
-52.0806
-16.1815
-44.2798
-82.2351
63.2494
-33.9762
-42.7541
-4.48432
-67.1365
-39.155
-1.22564
-21.482
-49.1878
-49.3412
-54.7423
-51.763
-7.41786
-11.7061
-51.0774
-9.91268
-33.1094
0.649473
-5.36153
-18.8702
-16.3665
-18.2232
-19.2818
-55.0411
-56.3536
2.65649
9.39833
-56.8051
-0.49754
-13.792
-0.111243
0.931986
-45.1901
6.6994
-49.0377
-13.886
-10.218
-71.029
-27.8222
16.3596
18.3629
-17.4869
-3.16846
-56.7116
56.1991
-38.5121
-66.1839
-9.88684
-21.7333
-10.2445
-11.8667
-11.064
-9.49922
-23.6333
-46.1052
-49.7752
-53.0092
-5.90005
-26.0443
-3.92374
-1.51701
-11.7884
-20.3807
-22.1669
-15.0988
-19.8989
-4.51004
-48.0009
-16.9157
-58.0542
-3.02747
-7.36676
-13.6151
1.60418
-64.9737
-2.79005
-53.2695
-31.9249
-44.3551
-44.704
-60.8787
-9.22874
-24.5271
-19.1352
-7.86408
-15.7938
-52.0281
-10.0724
-5.01679
-30.7206
-23.4816
-42.9258
-44.0004
8.42267
21.3482
42.2297
3.50113
-43.7392
-45.0574
-44.4047
3.87832
-46.0803
-4.23452
-40.3766
-11.793
-11.6087
-23.197
-40.2524
-56.6099
-7.92943
-8.45937
-7.71344
-7.83697
-3.05529
-18.3423
-15.1053
-19.5389
-38.4865
-40.2013
-2.74826
-3.46326
-2.76309
18.4333
-51.6189
-42.2733
-38.0724
-32.8967
-24.8049
-35.2054
-43.8418
-43.1942
-3.76275
-9.22695
-23.6286
-6.11316
1.8845
-9.58503
-7.27258
-6.21392
37.1629
37.0756
-7.72412
-47.0854
-36.7341
-8.94647
-9.18944
-1.50614
-25.469
-42.8964
-26.2115
-7.33839
-1.17435
-5.96648
-15.528
-32.4203
-52.0559
-20.3813
-0.178819
-5.02288
44.949
-93.9135
-7.82001
-61.3314
-46.6173
-45.0042
-32.1831
-30.9975
-17.342
-52.6244
-6.466
-0.000651923
-5.93166
-2.89824
4.07494
-84.7479
-24.0176
4.15559
-1.91898
-53.0574
-17.7462
19.7464
13.9184
47.5801
15.4451
-7.66445
-13.5517
-44.0106
-7.20508
44.9439
3.63967
14.9075
-45.1063
-66.3812
-44.6476
50.853
-39.2391
9.60297
7.98606
64.4795
-67.6331
-41.6181
-17.2239
60.1718
42.5445
64.9566
60.3096
-15.2525
-20.8498
14.0097
-3.43186
-42.6105
-41.8546
27.3478
55.3573
-37.6166
0.916394
0.274678
0.499925
4.51454
4.553
-6.41699
-11.6139
2.44528
8.04394
-2.27673
10.066
32.8688
-34.3734
35.0546
39.697
-37.8082
26.5091
-7.5868
-12.277
-7.84234
2.45297
-2.51741
-14.2258
-49.2906
-34.227
0.779702
-58.0016
-17.4826
-4.15147
-16.5914
-18.9541
-12.4267
-48.7164
-46.4756
-8.21613
-44.0401
-62.8416
-58.7648
-49.5243
-4.91865
-42.0693
-14.7027
-8.16941
7.96867
-2.05095
1.9548
-37.0985
-14.2124
-44.8842
-2.706
-30.2053
-18.3217
-14.0932
-2.81201
-6.54597
2.10068
-8.8169
-6.64844
-4.58329
-8.28662
6.48017
8.85554
-29.2839
-15.4197
-3.34047
-44.9055
-49.4291
-45.6334
-45.4121
46.845
-43.2275
-4.89615
64.2122
-45.3255
-44.9319
-5.13582
-47.9723
6.92934
-47.173
-46.0202
-45.9344
-53.5177
-8.80819
-57.1986
-36.0886
48.3684
-62.9307
-34.0291
-52.4418
-50.2726
-5.71723
-8.55316
-52.4051
56.9888
-9.68655
-44.8561
-49.434
-67.4578
38.3532
-39.2905
-51.4527
-16.3196
-14.9855
45.4239
-50.362
-11.31
48.1853
-23.3016
-45.9017
-49.682
-31.4265
-44.8077
-26.5927
-27.9561
-47.89
-20.83
-46.8595
62.0556
-52.9103
-46.3512
-42.972
-45.9952
-47.7365
-0.099039
48.9513
21.902
-3.43409
-0.132023
-8.47434
-11.5217
-45.0139
54.9273
-46.7565
60.5999
64.2954
64.1944
47.9078
-41.2098
-63.6505
-41.6804
36.0145
-37.5207
56.3006
-18.7996
49.3876
-5.70626
-20.1194
8.33966
-5.96202
41.5886
27.414
43.3226
-2.43596
64.5514
43.267
32.2032
35.4239
-32.1672
-37.5976
-54.3884
-47.8303
-7.65043
-48.2756
4.48046
-48.0435
-46.1947
-66.496
-43.2421
-15.8144
-9.81621
-46.2089
12.2212
-44.6072
-44.5755
-45.9118
-40.1178
-59.1455
-45.3692
-56.9825
0.583758
-45.5531
-7.55257
0.334463
-5.36609
-23.8794
-14.543
45.9535
-5.60237
-33.7102
0.682754
-20.743
-60.7632
-46.8715
-44.5788
-28.962
-25.4051
-65.1066
0.462789
-2.06931
24.7361
46.8231
-4.88398
-5.45773
-6.46707
7.52081
-5.8383
-45.9303
-64.286
-63.258
-5.90389
-22.0102
-43.7688
-98.6082
-15.2176
-56.7215
-7.26729
40.6556
-34.3167
0.359865
-1.95951
-0.0357222
-1.33101
-18.1586
7.73913
-4.4293
-4.23163
-98.1256
46.281
-49.9598
43.8875
0.339723
19.3444
3.09864
-12.1843
-25.6265
-6.73185
-8.94004
-8.66109
-5.81367
-5.68434
-28.2242
-59.6748
-31.7188
-17.7951
7.93168
-5.55777
10.536
-18.9403
16.4149
-10.2022
15.4524
-30.5092
-6.23576
2.73181
-5.58524
7.712
18.0292
0.782039
-44.7415
10.2291
41.9559
34.2855
7.83569
-6.40469
12.0425
-30.4171
-32.3721
45.5699
-50.2024
14.9549
-12.8093
59.8021
-7.78715
11.5866
-1.26087
1.0155
-2.74239
-13.5733
9.06403
-22.633
-20.4082
-25.1841
-48.2153
-40.4254
-45.7061
-19.0195
-12.2091
3.8065
-43.2518
-14.8384
-14.577
-41.2835
-48.3157
-2.17767
-43.2084
3.94863
-46.7733
-43.9354
-48.8618
-138.498
24.3719
27.056
48.1304
63.7582
24.3545
-1.55329
-13.5074
-13.3374
50.7162
50.1697
-59.4996
56.2465
22.889
-59.987
-21.3276
14.2104
-34.634
-24.3843
-38.1939
-5.53745
2.44917
-19.176
-66.4537
31.8977
-51.0969
17.5406
40.5117
-31.4818
4.73834
-41.6761
9.57345
-54.0642
-47.8019
-11.3622
4.57654
-44.2149
-40.2061
-45.7023
-47.8424
-50.7335
46.2468
15.216
30.1416
38.8261
17.2999
-19.0138
42.3774
63.0406
12.6713
61.1085
-59.0823
9.88705
-7.91398
2.04515
1.30714
-58.1251
-36.0668
-33.8068
-71.4447
-48.0155
-46.4985
-0.514298
-12.1362
-43.4424
-50.4845
-46.7235
-36.9593
-24.8168
8.35483
-17.9576
3.63537
19.4323
3.75461
30.0855
27.997
26.8568
-46.2871
-2.82091
-33.049
-47.8423
-53.9945
-67.5925
-35.5362
-13.1462
-42.6423
-13.5105
2.97562
-2.15009
-1.42163
0.690719
-36.5954
-8.3857
-26.676
-67.8365
-36.9025
-50.4458
-50.292
-72.827
-8.10568
-19.6841
-16.4177
-9.98961
-10.9466
-24.1567
-49.7096
-3.84588
-38.4495
-46.5667
-21.0772
-11.7462
-26.0863
10.3874
5.67403
-11.5188
0.210006
-69.2496
-52.5148
-52.7155
-47.6433
-8.2281
-13.5438
-45.4821
-6.41562
-2.04197
-10.7254
-24.2495
-28.6801
0.323023
2.69533
0.753179
-8.09064
3.03953
-24.4014
-17.8517
38.457
-20.6652
-15.2524
-8.60797
-14.9628
-13.6369
-18.0236
-51.2743
-19.0947
-55.5097
-4.41598
-38.7896
-42.548
-15.1176
-19.4754
-13.4662
-13.3245
-4.50214
-51.1478
-53.9014
-50.7202
-49.8229
-48.7196
-48.5768
-57.901
-43.8517
-44.5054
-43.8742
-43.7962
-42.9199
-33.334
-40.8637
-31.9853
-29.1749
-43.1119
-17.4256
8.78482
2.67281
6.00844
-32.4119
-8.41568
53.0108
54.2221
46.3575
46.4396
52.0441
50.7771
57.3234
-40.0251
-49.0019
8.57333
-22.9484
-12.5049
-22.1551
-57.6378
-9.77869
-5.67486
-6.064
-9.57359
1.01356
-15.4683
-55.5898
-45.1777
8.2932
-38.5679
-24.3801
-55.9874
-57.4441
-39.2688
-45.9828
-4.8977
-15.6995
-3.07282
-46.8584
-46.5963
-45.4371
-44.5195
-57.9678
-45.8785
-6.09098
-38.2163
-46.3176
-2.74842
-2.47209
-27.3424
-84.105
-33.5289
-6.36134
-11.1097
-34.7285
-26.7745
-65.2005
56.545
22.8873
4.94385
-50.7884
56.2446
-42.8917
61.2674
60.5973
59.3079
-19.4107
-24.766
-15.4831
-18.1918
-7.51656
-9.26754
-20.9926
-13.8175
-20.8526
-24.2049
-39.3916
37.9863
-22.7347
36.0148
-34.3181
-42.4918
40.4567
16.9856
0.0746785
-16.8564
-36.3593
-55.3578
-49.3294
-48.295
-48.7331
-6.5854
-1.30572
-6.61387
-2.16176
-6.88798
-48.8661
-55.3104
-43.5491
-10.0554
-16.7924
49.9557
53.5439
57.552
42.1346
47.8704
33.7991
5.87484
0.509708
5.55583
1.87597
36.5495
22.1736
28.7637
-4.26445
-5.23112
55.6661
41.9616
41.3944
46.626
0.118586
48.3148
59.2272
52.8478
50.5304
-54.4224
-53.7084
-52.569
19.72
-3.96959
-8.59404
-5.67176
39.3596
38.0559
43.4199
-43.9177
-45.8857
45.781
58.7454
-59.3487
56.0852
60.4321
-51.0785
39.2574
23.8186
-99.5154
-141.887
-8.78746
-78.6319
28.4029
42.3834
-66.575
-7.78343
-6.89942
-44.1072
-47.9113
-46.7832
60.9215
-58.1821
-28.0526
-0.015989
-19.8888
-17.1203
-13.8144
-48.1222
-11.0466
-9.31475
-32.7277
-70.4375
-49.6226
-56.8179
8.78549
40.885
-25.8721
-32.8239
52.9217
51.105
34.7222
-44.5692
-27.0887
-26.3217
-29.8301
-46.0743
10.158
-48.9997
-38.2405
18.3976
-50.9625
59.6795
-47.132
-47.2203
-50.7104
-51.1187
-65.7556
-51.3693
42.0196
-31.8765
-9.09187
16.9273
-5.32269
-25.2107
-86.5838
-47.5857
-57.0259
-40.3335
-53.4156
-49.8236
-46.9496
-28.336
0.477354
-26.2437
-71.0945
-45.6703
-54.4243
-20.0341
-64.6002
-44.5597
57.5674
61.6786
38.9441
39.9179
57.574
52.8668
-52.4933
-45.9663
-62.373
44.046
60.5015
-3.31014
-1.93341
0.491199
-3.80813
0.693922
-28.9878
-20.9226
-37.4159
-5.16536
-48.6801
-19.4552
-5.19299
-2.79771
-8.4397
-41.475
-14.2889
-29.4952
-24.7314
0.675287
-8.78039
9.76204
-32.8063
-55.4103
-48.1483
-37.0792
-6.96416
-8.95407
-41.1579
-51.6588
-44.127
-60.9457
-59.3332
-56.8209
50.0956
-6.30073
-6.55851
-7.19523
-2.60817
-30.2112
-54.9912
-46.7978
-5.9654
-18.8489
-3.57708
-41.9866
-10.0307
-45.1192
-34.6631
-13.9132
-56.8898
-9.7698
-16.4965
-51.6126
64.7279
47.2424
-64.2256
49.3715
-60.1265
-48.8397
56.697
5.85394
-36.8079
-17.1287
4.1711
45.2316
42.9713
54.5443
61.0873
57.4344
-16.0197
-59.2133
-5.55276
-17.5081
14.7756
-3.31202
-16.9288
-32.4551
-45.6787
-34.1869
-30.6423
-9.47355
-30.2656
-36.6992
-43.6613
-55.5381
-46.0565
-57.177
-54.0518
-0.813785
-18.6316
-22.7333
-2.25377
-2.55521
-16.3801
-6.68624
-57.0833
-13.2446
0.431213
-31.2894
-45.1717
-46.9037
9.46391
-12.3002
-36.3464
-10.6842
-9.22499
-32.4517
64.1475
55.622
-6.75263
35.7979
0.551078
26.1672
29.7005
-10.1561
8.49843
-4.87379
-6.00344
-12.631
-43.6704
-30.6894
-17.2865
-16.5584
-16.1866
-36.6638
-11.0816
0.888049
-17.7852
-53.4507
-59.1732
23.9093
23.4715
27.6034
-43.06
-38.8601
-9.30796
-51.981
49.054
61.1765
49.0852
28.0791
25.9097
64.3902
2.10792
-5.5859
15.9241
22.6092
34.5363
52.8617
-35.7172
1.95748
-7.88008
-8.69589
-12.224
-7.90899
-8.72334
-13.253
-9.31826
-8.54374
-21.1912
-1.825
4.16256
-18.6978
-7.04111
-48.4573
-46.871
16.6702
49.1741
49.0051
-3.19123
-26.741
49.7173
20.0388
-7.18875
22.4018
-11.7509
-6.90253
-31.6121
-8.02024
-5.33598
-6.79852
56.9387
-30.2542
-38.0657
-20.2528
-8.1126
-19.7707
-12.534
-41.7432
-47.9916
-43.2416
-46.8148
40.2169
41.1999
50.4143
46.5335
50.8208
46.0602
-55.1671
-12.6441
-20.1619
-3.29608
-10.9526
-51.1866
-6.74394
-29.4177
-6.54912
-39.9072
-45.1579
-9.40814
-10.3511
-19.7265
-26.3465
1.76379
-1.63525
-5.50638
-47.7641
39.7884
41.29
-63.5711
39.4131
5.80796
25.8814
42.84
-17.8078
-9.18448
-4.19017
-45.2909
-9.55509
-6.80418
-3.3108
-61.5634
-43.2625
-26.1776
-51.6146
-36.8379
-54.7844
-13.7374
-30.9737
-53.4931
-3.66078
-2.25744
30.2363
59.3021
-41.9939
12.5748
-51.1994
4.1527
-10.9612
-0.816633
48.6586
-50.6357
-15.5027
-16.3441
-10.0008
-32.7343
-10.6845
-5.53427
-17.5293
-7.64207
-10.5142
-30.1238
-13.3898
-3.03453
-21.6864
-24.1885
-49.3022
-62.3848
-2.47294
-47.7576
-50.4216
-47.147
-47.5688
-47.2186
-3.08201
-28.2868
-9.14132
-10.1038
-21.4385
-7.98442
-51.9721
1.5376
-26.3606
-24.8546
-0.556342
-10.3246
-18.444
-9.83871
-4.17186
-5.13518
-50.3807
-11.2111
-20.3118
-46.2928
-7.82427
-1.98726
-9.47387
-6.87691
-37.1357
0.375797
-4.01751
-24.2503
-14.4179
-55.929
-2.02336
-10.5017
-66.7857
-16.7816
-35.9895
-61.736
-26.7342
-11.6083
-35.3946
-12.0507
-4.51835
-8.84799
-44.7504
-4.74865
-2.86692
-40.2892
-46.8221
-12.5359
-10.5667
-69.4325
-31.6643
-39.5467
-15.6006
-26.6692
-47.6829
-43.4753
-0.803945
-44.4677
-45.1605
-46.7586
-0.415346
-27.1173
-59.341
-40.8846
1.7657
-8.14465
-37.508
7.74467
-3.2198
12.5183
18.9649
-52.8495
-5.9673
-67.7218
-49.7007
-7.39216
-42.5891
-46.6951
-37.0586
-29.7744
-55.3587
-32.5331
-33.1893
-53.4461
-70.5629
-10.3831
-15.203
-17.6772
-8.35101
-23.152
-1.28073
-1.14431
-14.4264
-37.5572
-15.252
52.431
-44.0245
-104.573
-44.4232
-54.4806
-28.1709
64.7224
7.91463
-46.7655
-51.0602
-51.0289
-46.6981
-50.6922
-48.0088
-49.6255
-49.7766
-54.1262
-1.9809
-47.3198
-47.4185
-49.2008
-5.33404
-4.55135
-7.50705
-31.1315
-55.8225
-156.242
-42.7459
37.0618
-46.4622
-66.9939
-63.8915
-58.4678
-47.8169
58.2534
-46.2888
-46.7933
-15.6773
-47.7804
-42.1859
-19.5829
51.583
-49.4649
-14.1467
-11.9057
-6.95253
-3.60446
-0.430219
-7.44188
-7.49153
-26.4682
-19.2978
-10.8273
-50.2888
41.3224
-65.8821
-11.0796
-57.0544
-58.9409
-15.9517
63.9768
0.888877
-24.3003
0.491279
10.0241
2.57602
-19.223
-9.4542
-49.7032
-28.9524
-45.4327
-30.2511
-65.9822
-16.8225
39.8778
-46.8843
-2.38402
-34.5482
-25.3538
-32.8224
-23.1818
-47.7392
-47.2278
-47.4714
58.6003
-45.9274
-43.2212
-40.7151
44.3759
-46.098
-43.773
-53.8342
22.3151
-50.3517
-49.6006
64.0509
-56.2166
64.7979
64.8654
-44.6754
-53.4839
41.8765
-22.6485
-45.1411
-17.9302
-16.3554
-15.9905
-11.8416
-54.7113
-52.0013
-50.9465
-54.1234
-50.0251
63.2525
-46.0174
51.8141
-51.4521
-27.0925
3.77222
-54.0418
-45.2178
-47.9392
7.48066
2.62911
-2.8444
2.82217
7.55442
4.06746
-14.7846
-46.4017
-49.5986
-14.6844
-105.061
-43.861
-44.8517
-53.4698
-68.4807
-59.476
-57.5628
-71.816
-65.8636
-63.9614
-65.7022
-67.5129
-0.527174
-64.5816
-63.5375
-48.469
-69.0283
-64.4386
-59.5774
-13.9515
-14.6103
-12.843
-14.8623
-25.032
-32.4959
-6.842
-4.91223
-5.21559
1.06326
-5.56909
-5.55618
2.84606
2.17042
-65.0425
-4.82551
0.614127
-2.52571
-51.208
0.201864
-5.41663
-16.7444
-19.1583
-17.4878
-12.1495
-28.8779
-21.6724
-13.3387
2.27511
-4.46686
-18.3311
-22.1711
-17.7113
-18.1332
-5.99434
-7.02587
-3.71431
-46.2174
-72.3261
-2.09171
2.62365
-91.5687
-116.45
-39.1085
-2.39989
-3.95713
-46.8431
-36.5431
-43.3374
-38.1238
-54.8252
-9.51929
-15.9202
-8.33045
-14.2537
-14.5205
-49.9453
-40.5839
-153.262
-43.7644
-25.3105
-30.2678
-23.7427
18.0887
43.0774
46.1029
9.21323
-51.1624
-5.17501
-33.9416
-32.839
-57.559
-69.6972
-64.8891
-75.0616
-53.2545
-36.1502
-8.71991
10.2517
-3.31675
-58.1879
-45.894
-34.214
-4.51852
-2.19532
0.542622
-6.46999
-51.6995
-45.7942
37.4285
-5.55538
-12.6522
7.26534
-19.6399
-68.308
-54.5962
-53.9256
-14.5959
-31.2321
-11.6849
60.4912
55.6308
62.5048
59.8163
63.5247
-25.4696
2.90894
1.14705
3.14314
-0.962584
-23.1628
-24.1052
-153.787
-92.1529
6.78868
-34.6615
-19.4112
-12.2469
-12.0093
7.3834
20.4852
7.48763
-8.97152
43.9593
59.3069
-10.3547
1.12077
37.8912
15.6325
-22.3682
-9.67858
-30.1433
-24.5526
-15.0397
-8.93773
-12.9625
-15.4635
0.349781
-6.60266
-45.6391
-11.3048
-6.68928
-6.6036
0.882059
-1.68112
-7.63683
-0.471018
3.22411
-2.99465
0.544869
0.168344
-7.08827
-8.34804
-6.26432
-147.294
-1.76559
-0.264515
-42.6508
4.65665
-6.04204
-4.88565
57.9086
54.4387
51.5391
44.9034
9.06973
12.8283
12.712
4.90663
2.08771
11.497
6.10139
9.83031
-139.008
-7.43933
-42.2954
-44.2707
14.8073
-9.97095
22.1914
13.8824
-6.46776
-39.2048
-3.82528
-10.0758
13.4019
-3.9209
-51.7424
30.7425
26.09
45.7849
14.9872
37.56
0.416142
-2.22057
1.24451
33.2495
35.3672
31.2993
49.062
25.9458
35.3125
37.1281
0.181705
3.89486
-2.78511
-13.0211
-0.515353
-10.19
-8.43153
-13.805
-31.0961
-6.25812
-9.47498
-7.22623
-6.7495
-42.023
-53.3503
-98.6804
-61.8112
-2.20852
-15.1381
-27.1474
0.111922
-98.7824
-61.8072
-47.8378
-49.8309
5.49311
6.90611
3.32217
-2.70264
-9.38078
0.879137
48.042
-2.89013
63.2645
3.73262
5.31513
64.2232
48.8185
52.3662
0.166514
-42.8194
2.4997
-11.4046
13.558
18.0375
-0.108464
-3.93773
-7.59074
-7.8463
-46.9423
-44.7972
-43.7749
22.4837
46.8021
49.6321
11.8439
14.9509
-5.80909
-5.75006
7.33701
24.4714
-0.608493
-15.7459
-29.6797
-19.7855
-20.487
-43.4703
-64.0877
-37.3511
-78.1992
23.6163
30.7303
-6.62302
32.3458
-7.92563
-23.0324
5.90709
54.071
-47.997
-10.14
8.9961
-104.404
-48.6726
-48.6438
-41.8681
-40.6824
-17.128
-35.0067
-56.4246
-15.628
1.21649
-28.4098
-25.2259
-31.2741
-46.8261
-25.9195
35.1755
9.82043
65.5768
-26.7097
-24.883
-45.4906
2.37903
5.1647
30.2126
20.8791
10.5765
19.9088
44.904
-11.1346
-19.6413
10.623
4.47698
11.3532
12.4034
36.349
-28.9407
-13.7136
-11.1363
-22.6316
-13.306
-25.7857
10.817
-48.537
-53.0575
-53.5979
-31.3481
-51.9187
-38.3561
-10.5576
-24.1089
-29.307
-11.0982
-10.6059
7.64942
-5.71115
-13.3408
-44.1278
-68.4446
-54.4524
-47.0374
-47.6806
-64.9736
-50.5452
-52.0191
-49.0387
-50.0823
-48.7192
-23.9796
-38.9999
-49.2999
-38.921
-9.79229
-1.24643
-0.0456331
-9.34848
-3.60141
-6.78617
-10.6449
-10.8662
-52.2976
-52.812
-4.40369
-10.8813
-19.3075
-2.82146
-27.454
-12.8275
-46.5032
-5.37629
1.80883
-7.26577
-1.79418
-5.58491
-4.24624
-5.91554
-7.37326
-2.69866
-6.43371
-7.49377
-5.80619
-6.08509
-22.1733
-18.3913
-28.854
-16.3909
-11.6589
-5.64286
-0.390426
-11.7895
-7.74717
-25.1867
-9.6044
-36.2725
-1.75574
-27.1595
-41.9004
-20.7466
-15.7156
47.8175
-63.1445
-62.4788
47.657
56.6732
46.3603
-20.4849
18.8481
55.8961
25.6661
-7.0212
56.1954
-41.0121
57.7327
-52.0253
-48.7757
-49.589
-43.2023
-60.6891
-32.1681
-46.5218
-30.5086
-46.7312
-55.4344
-29.8757
-37.6106
-36.3714
-56.2921
-7.66338
-16.2145
-0.491835
-48.917
-58.944
-50.7633
-8.8113
-11.249
-68.7864
-26.6066
-54.7027
1.0654
-24.4776
-7.88412
-5.65543
-13.6637
-9.32676
-4.17303
-31.1998
-55.2993
-8.33121
-35.6128
55.3694
-42.0083
-16.7804
-12.2899
-11.8087
42.8335
51.4137
45.833
45.8041
59.4967
64.8026
28.5249
64.6229
55.8958
50.7351
-49.7108
-47.0913
-46.5939
-52.5276
-50.5408
-31.9603
-45.1597
-43.1169
-50.3789
-21.101
35.8261
36.2618
35.399
-59.1394
-48.0496
-19.2017
-39.2975
-54.6768
-13.9661
-3.38475
-3.61928
2.74738
0.360876
0.755668
-0.792963
0.33755
2.30655
-3.10857
-2.13467
-65.8936
-2.58866
-23.7022
-7.98239
-1.45386
-22.5872
-7.80214
-6.17307
-40.1287
-10.8651
-9.22671
-39.3823
-49.6704
4.24287
-17.7938
-6.82876
41.2184
-17.1358
-8.65716
-59.0896
-1.995
-49.2271
-38.9959
-26.3618
-1.08561
-42.1883
-43.1195
43.6544
-40.2219
-47.1663
-71.2508
-66.8078
-45.6509
-52.3419
-49.7821
-46.961
-49.6436
54.7894
-46.7506
-66.0888
-45.692
-55.5061
-48.7362
17.4519
-2.54478
-44.651
-47.1853
-49.1433
-1.10704
-54.357
-45.0691
-46.8314
-15.2248
-38.956
-34.2152
-37.1014
-43.8525
-42.3962
-20.7536
-49.2431
-31.9529
-13.1884
-48.2841
-57.2419
6.68905
19.1746
16.4526
60.0418
13.0799
-5.62052
-8.80676
-10.3167
0.877051
-5.30324
-0.706097
-0.449549
9.3683
14.0119
-56.5178
-24.702
-18.8157
-28.633
-31.986
-41.8944
-16.2454
-5.93042
-2.18784
-2.02453
-13.3283
-7.37978
-10.6141
-11.9504
-9.62234
-1.77058
-4.3116
-7.82397
-59.4657
-56.349
-52.3438
-5.21386
-49.3236
-15.2143
-21.5095
-24.015
-20.4297
-16.7353
-21.9857
-3.84641
-1.88005
-11.63
-30.0327
-39.4657
-38.116
-65.2667
-28.0315
3.32988
-57.472
-7.62362
-6.67127
-2.75874
-16.5114
-11.7695
-19.672
-12.0463
-5.47066
-12.026
-27.1494
-5.08298
-7.68567
-25.1025
-8.79134
-10.4564
-39.3654
-59.4389
-47.8483
-41.5279
-50.1054
-8.13468
-10.1899
-7.63375
48.7283
48.8292
57.1089
48.3474
-45.3311
-46.4774
58.1713
45.1069
59.0886
-4.11402
5.23968
-2.68181
-6.0335
-12.2053
-25.6415
-23.1065
-104.407
-79.738
-33.4105
-27.1043
-35.5318
-26.8087
-29.632
-38.7739
-27.221
-59.8615
-61.3292
-58.6798
-79.8388
-74.368
-80.3281
-73.8899
-80.9258
-87.8156
-89.8683
-1.68521
12.1148
-50.7115
41.5529
-44.1255
-45.9854
-48.5248
-24.8668
-32.1605
-44.4246
-50.7966
-35.4597
52.4804
-105.337
-105.465
-46.3593
-45.6002
-44.7178
-46.245
-46.2644
-64.2994
-58.767
-34.5075
-51.2469
-31.5544
-7.86974
-48.1657
-49.6546
-54.3246
-110.876
44.6872
-52.1703
54.7063
60.638
-43.3932
-48.0644
-50.4411
-4.77383
54.0228
-50.1526
-6.06491
-7.97709
-6.67414
-19.4061
-19.0337
-1.63721
-47.0674
-6.43495
-51.6297
-50.4465
-42.9015
-42.2798
-44.1548
-82.4788
-5.66182
-61.7636
-1.72428
-3.65925
-14.111
-19.4435
19.9775
23.4919
-26.1613
-30.8947
-12.3141
-53.9615
-50.6228
-44.7631
-45.3428
-45.3996
-60.3151
53.788
52.3189
-65.4121
-8.08859
-11.4914
-6.12899
-7.32266
-5.52111
-61.6786
-54.2451
-62.7628
-53.0358
3.03866
-26.406
-4.41971
-14.4612
-22.3874
-0.995938
3.57766
1.9619
0.911938
-7.02386
-49.2514
-55.5789
-48.0474
-61.8921
0.550696
10.7102
-6.71855
-3.54679
-10.4558
-6.36215
-3.70199
-9.94022
-10.105
-32.5604
-72.1603
-58.4995
-56.1773
64.1692
-10.1119
-18.3112
-23.0435
-16.0768
-47.7643
64.0971
60.0483
60.9711
65.2258
49.3584
44.0172
-51.0403
8.53032
52.4512
-50.7193
-6.47148
-60.1064
-44.485
-10.5192
-2.2291
-16.2308
-9.92267
-31.6021
-26.2787
-36.0857
-43.4152
-42.0186
-40.6517
-42.9947
12.4684
30.1041
18.1482
-60.753
17.3528
22.7668
3.37976
-8.26387
-43.8221
-18.3684
-23.6911
-23.7097
-52.8869
-15.4017
-32.5418
-11.6163
-46.7518
10.4368
-45.809
-33.942
-163.879
-114.572
-14.8113
0.523825
-63.8329
-12.4286
-15.1208
11.5724
10.7143
57.6692
53.6332
35.7343
-44.9669
-66.7086
-34.0128
-10.4797
1.54726
-12.1054
-6.38185
-19.2145
-3.8426
-19.5292
-30.0791
-25.4652
8.71595
-40.1989
-39.5681
-34.3192
-44.0654
-40.5472
-60.5958
-53.1828
-44.6417
-15.2421
-30.9437
-5.78565
-14.8556
-22.9443
-7.80647
-4.38749
0.462734
-1.37323
-2.25984
-10.9749
33.4107
45.3881
55.7345
-13.763
-4.40974
19.4324
38.8133
50.2279
26.4006
48.786
9.29315
-32.3298
-25.7805
7.46804
8.47727
-9.93819
38.9323
-18.0524
12.168
0.0865739
2.60524
-3.75866
-50.6704
-84.2001
29.1791
52.9865
49.9456
0.456718
31.3881
46.2589
-11.8372
-14.2821
-15.7981
-57.441
-73.1157
33.7536
24.1155
38.551
28.4061
4.96327
-22.1011
25.9399
12.2485
-5.24547
-16.3191
-10.216
1.1934
-37.0012