/*--------------------------------*- C++ -*----------------------------------*\
| =========                 |                                                 |
| \\      /  F ield         | OpenFOAM: The Open Source CFD Toolbox           |
|  \\    /   O peration     | Version:  2506                                  |
|   \\  /    A nd           | Website:  www.openfoam.com                      |
|    \\/     M anipulation  |                                                 |
\*---------------------------------------------------------------------------*/
FoamFile
{
    version     2.0;
    format      ascii;
    arch        "LSB;label=32;scalar=64";
    class       volScalarField;
    location    "0.0882685";
    object      p;
}
// * * * * * * * * * * * * * * * * * * * * * * * * * * * * * * * * * * * * * //

dimensions      [0 2 -2 0 0 0 0];

internalField   nonuniform List<scalar> 
3991
(
-11.0118
44.0252
0.907403
-8.25443
32.6103
-6.6949
-45.293
32.5944
-15.1557
12.8361
14.3078
2.38889
6.11683
-0.0935346
-26.33
0.71453
13.2525
1.53641
-5.50969
-42.6942
-7.34294
-43.4029
-8.57422
-20.9804
22.661
26.7796
39.6513
23.2479
12.2902
7.13388
-34.4516
18.0652
-51.7121
13.0139
-14.2495
-5.08726
-45.4293
-19.0554
-0.60746
13.986
-52.3216
-7.60941
3.21952
-5.92537
-9.93727
29.4365
23.8805
3.8309
1.83055
39.6099
32.3588
-49.2727
-52.3961
-8.1149
-2.46711
7.6551
-2.30369
-7.26793
3.96884
6.75324
33.8586
39.9884
29.9639
29.8413
-16.0959
-9.90434
6.29559
-11.7191
-44.2395
-10.2702
24.0245
-7.21455
53.0881
4.10829
34.9833
-15.55
49.1674
22.9253
-7.37549
-39.323
-6.62443
7.53367
50.8826
12.4635
32.6912
34.882
-0.79093
7.74002
41.6464
-5.26118
-9.01064
18.2849
25.4581
-1.93028
-3.58923
8.57824
23.9296
35.2489
56.4321
0.26878
0.486663
2.66814
-28.3343
1.67295
2.63238
9.99976
-6.74754
-47.4351
36.2396
-30.8349
-50.1789
-6.05861
51.6898
-4.25731
0.905813
-43.9091
-44.8099
-36.3711
0.660182
22.7746
40.4243
-15.3401
-10.5478
11.4842
-35.8107
8.25167
17.2333
-7.04371
-14.6932
-30.5303
-2.17294
14.0998
16.3846
-5.82677
-8.87881
-0.3483
-3.54679
-4.78699
2.11222
29.5554
6.72649
41.806
36.8843
41.7766
9.07682
28.4296
-12.3773
35.2215
56.3831
23.2747
3.04568
8.1501
34.1747
25.4384
-37.499
-13.9363
40.429
22.11
25.7002
38.543
13.3769
25.1396
-3.53523
49.7041
23.9611
-9.69651
23.5512
-27.8889
-28.054
-5.53488
-4.28377
-6.24288
-24.5844
41.1471
41.5795
42.5569
-29.218
-2.64017
-0.23774
-24.5865
-2.24085
18.7481
22.7319
-40.1185
-0.0682825
4.93854
-2.32573
6.26908
-5.44166
-41.9277
-44.7006
-7.79322
-142.079
-53.6706
2.81795
-49.519
-15.8832
-2.1546
-51.7739
-8.12257
1.02147
-12.5228
28.6474
14.2132
-0.540129
39.3423
35.2028
9.46802
16.0059
30.012
32.5335
13.3115
18.9253
50.0361
17.4769
-12.1409
-2.09887
42.2746
-11.3929
-53.7946
14.3736
52.4578
26.6108
54.1982
11.569
-11.0386
-23.2485
-4.86622
15.7524
34.5254
13.1267
-10.3203
41.3575
49.8846
10.4385
-25.0052
-9.92466
-1.37488
-2.06422
39.7073
-24.6842
-1.05987
-51.6427
-15.2515
-49.9363
-3.84012
-4.50359
-7.98331
-13.2621
-19.9851
6.9682
-6.40244
-13.0727
-5.7051
8.57563
-4.65258
-17.6935
30.6226
18.2147
-18.0674
-16.2113
41.8365
-52.3634
54.1401
1.6067
-47.9815
-36.572
-4.81743
-28.0372
-21.2442
-43.3331
-8.57448
-9.7192
-14.1788
22.3901
-9.44692
8.45437
-9.94123
-3.15067
11.0545
30.3119
-4.49324
-4.03524
-51.5517
-7.25333
-24.6164
-8.85781
49.7074
-41.7118
16.6542
51.3767
-40.1609
-5.45967
0.0800334
4.90295
-2.44619
14.0808
14.6977
20.8227
18.4353
9.44397
7.64449
-5.29638
16.7333
-24.7852
-20.043
-2.38544
23.2186
-10.5053
37.8644
1.31148
9.54778
9.27409
9.64958
34.0463
3.42772
-19.0856
0.728654
34.47
3.25852
18.9361
13.1643
-2.6504
-7.33944
-13.8495
1.86534
0.962219
-10.8758
-24.3102
-30.8346
-51.9099
48.0457
-10.2581
9.93669
-35.4432
-1.96862
20.1338
-3.97495
-13.6392
22.8035
-30.0387
14.0658
-17.8005
-13.642
5.32655
4.88242
-3.55022
28.4663
-3.78505
-4.35739
-3.38788
-1.87403
13.5448
35.3943
-2.88165
40.4712
-10.2741
-2.30736
-47.309
-31.6162
-26.3454
-10.7976
14.43
53.3174
6.73837
11.5482
29.9809
26.2009
-3.23034
-22.7599
28.9472
18.7764
27.8194
-34.6067
-5.38631
34.9068
-19.1377
-10.063
-7.39033
-4.11228
-49.892
-53.0467
23.7535
-0.266857
12.7019
17.3516
-20.0615
-31.912
-52.8633
-19.59
-25.0237
-45.2428
-27.1622
-11.5352
-1.40888
-53.0824
-9.31574
-0.454428
-51.9026
-52.5438
3.72207
-21.6858
-50.045
-25.8041
-52.7911
-6.61173
28.2879
33.9775
-42.169
20.5287
11.09
-43.9555
-40.0028
-30.1523
3.2885
-2.05863
-1.68422
-34.6165
-8.40043
0.839553
-1.00108
-46.8946
1.20353
1.48026
2.89567
-21.2139
-17.7781
-44.771
-46.2395
-4.06806
-46.8777
-28.3554
-36.7404
-6.63999
-4.85636
-4.14064
-1.18146
-4.29192
-22.5306
-32.507
-27.7542
-27.9231
-26.9907
-28.9986
-6.71517
-9.22423
-7.92523
-11.1488
-22.9514
-0.797999
-13.5634
-12.6434
48.5644
-10.7383
-12.2694
-13.4897
-16.0646
-8.64065
-13.8332
-9.70408
-7.8379
-10.0323
-11.7961
-17.8546
-13.0043
-15.3042
-23.776
-7.88834
-10.8507
-14.1763
-18.4159
15.7973
-6.20862
-2.21717
-5.60558
-1.62755
-6.47779
-5.27987
-7.18359
18.4538
21.5256
-31.4328
-37.3596
-23.4704
-29.9475
-31.6141
25.8496
25.3114
14.9513
6.50956
21.7296
-6.99991
13.3268
12.3397
-23.9443
-9.66717
10.1144
5.1856
-4.7179
-5.63821
12.4156
18.6812
-1.00973
17.012
1.86929
6.39521
1.21704
6.45914
3.89558
3.91692
3.76275
4.91445
4.83197
2.22966
3.49498
3.29351
4.25732
6.91506
3.74908
9.73496
11.4864
21.9126
16.9095
12.1965
13.4916
10.5559
1.96964
14.4805
9.13453
6.02598
-6.48905
12.9168
-4.16503
-5.17589
44.6283
40.3569
51.5311
46.8128
47.4143
46.1615
-3.29488
-50.3137
7.90601
-23.0883
-17.6205
-2.29814
-1.50542
-27.1465
-22.2297
-10.9622
-11.4797
-0.334
-1.22944
-3.47253
-2.2529
-1.56885
-1.84616
0.279787
0.415477
0.482526
0.348379
-5.46732
-16.2146
-10.6814
-20.5608
-6.02553
-20.0878
-9.92142
-2.7172
-37.6978
1.30909
-51.6682
-29.1305
27.9367
26.1806
-40.8314
-14.5173
-16.0941
0.436923
-3.23551
-33.5139
-52.9358
-23.5576
-29.7113
-50.3757
-20.2133
-2.89907
-6.48299
41.1015
-51.2751
1.24839
-24.7748
-14.8938
28.6615
43.3004
37.9851
-0.230441
-3.57447
42.3008
-4.90717
-48.8071
-44.6778
-4.20535
55.3975
-4.8542
5.47862
2.42686
44.2664
36.0879
43.739
44.823
8.18609
10.4565
8.97936
-25.1889
-47.9879
-48.2507
-47.1403
19.4067
20.5689
-4.52588
0.0292022
1.94573
-9.3319
-0.277641
42.915
10.6838
6.67795
-8.25113
-9.8799
-7.35955
2.53666
-8.59343
14.6859
1.04318
-17.9966
58.5891
-35.3137
-7.76675
2.73519
-6.95514
3.78794
31.9374
19.7421
35.3689
-50.8991
-14.0945
9.77929
-1.43661
33.2503
-50.0623
58.0915
-12.4946
-23.4805
-2.55854
46.0043
10.8774
5.28828
12.5586
-4.86501
24.801
29.4414
26.1669
-15.3823
8.7213
-41.6776
10.9134
12.0061
48.2346
22.3254
-17.3418
27.8658
7.00656
-3.06194
24.9182
3.0413
-8.17517
-5.04109
-49.4525
-18.3009
-38.458
-41.8155
-52.1054
-9.18284
5.10937
-49.4341
-29.0955
-46.8322
-58.8277
-20.6888
-45.7713
-2.70861
-30.6911
13.497
-1.46684
-9.44536
16.4101
9.25502
7.73285
-6.23807
-14.7904
5.62198
-7.06319
-3.83415
-45.8535
-26.7222
47.0254
-43.8584
-5.51418
-6.17322
-44.6484
-3.58196
-46.069
-5.84901
-1.57541
-13.8046
2.22758
-23.139
-1.93737
24.1213
-21.9883
10.2893
-48.6322
-11.6267
-13.337
-17.6565
-15.7036
34.9891
-51.1546
-25.2699
-49.4994
-51.0383
-47.017
-48.7237
-48.7847
-40.9343
-35.2679
22.384
-48.2398
-47.9662
-20.9313
22.888
-25.8539
39.1519
34.4854
50.7411
22.7565
31.418
40.5908
34.9797
22.4988
56.8189
15.3851
15.3681
14.3559
11.0842
-28.4246
11.0344
19.1229
21.1448
20.593
24.5223
36.5656
-10.9973
28.6545
40.5067
-2.10822
45.7738
-53.1909
-30.064
-44.2246
-15.0134
-15.1748
-21.9758
-47.8417
1.35074
2.05276
0.937329
2.22457
-9.27106
7.42203
8.66571
4.36853
6.94573
9.75598
2.96127
4.82758
4.92506
4.21619
4.98756
4.42184
4.50123
7.58627
10.7937
12.5116
26.1928
9.94597
9.97426
-2.50979
-28.107
-50.9487
-47.1288
47.6466
50.3103
50.1462
47.7976
47.5372
50.6246
51.5905
53.3348
30.9942
19.9693
25.4222
23.8259
21.2292
22.1577
16.4773
14.9182
12.6345
20.0568
43.6112
46.0856
42.9268
44.1402
48.3401
36.5018
4.96924
5.82048
4.04813
6.53261
5.60234
-2.82072
-8.07953
43.507
44.0767
11.0375
8.45642
11.0347
13.8431
18.8111
11.2798
5.99138
-21.0054
-22.1341
-6.13676
10.8132
-17.7936
-7.29028
-7.21375
-34.0708
-3.244
-42.4961
-11.0073
-16.8057
-40.2899
-0.674022
50.5695
-51.2324
-51.9795
-7.24428
-52.2036
-33.0039
-37.8885
-11.7571
-21.3909
-5.07409
-33.7799
-3.24311
-6.97015
25.4274
33.8739
29.3912
19.0063
-28.6002
-10.823
3.60997
-33.1729
43.0627
9.27925
8.58468
-51.6501
-55.1302
-19.6599
-22.04
-27.6006
-28.1802
-30.9344
1.20025
-15.2168
-56.9213
-93.3305
27.159
-14.9276
-11.0222
-16.892
-19.5765
-27.5087
-35.042
-53.0727
-49.245
-12.0614
-8.05349
-25.9637
-2.01488
44.8497
-42.3336
-49.9776
-9.62828
-36.5925
10.9937
-10.4554
13.5443
2.14202
-48.8195
-11.3672
-3.22636
-20.2358
-46.7947
3.389
-28.3789
-8.96102
21.992
-14.5709
4.47949
0.337605
-5.00659
-15.4361
-6.40559
-28.1424
-0.702108
8.03934
-7.89162
1.20523
-7.80672
-40.2647
-1.79536
-52.7574
-34.0688
-29.8646
15.5749
20.2464
-2.54052
3.91461
-39.4035
49.4567
2.07064
20.9056
-15.5044
12.9764
-48.7892
-37.1096
-19.9663
-19.5392
-35.5956
-28.0488
14.0133
-1.56208
-33.5645
9.46151
-6.69536
-46.329
-11.2766
-6.73284
22.4335
30.3865
-4.47235
2.30139
14.2184
-4.56771
-15.9238
-50.2145
-50.5634
16.8904
22.7961
4.21127
-15.6778
26.4752
-50.5065
-26.8137
6.23812
-35.4235
-23.3752
-16.3629
17.6578
9.18173
-0.256059
7.94172
4.50477
5.60897
-6.7738
3.1317
6.28563
14.5788
2.76589
25.5342
22.8268
38.0619
15.7641
16.0533
12.8011
5.83227
-11.267
27.396
6.34686
9.31125
38.2026
31.0159
-17.5256
-8.56502
3.34809
3.16683
-1.47876
-6.18644
-17.403
-7.4015
4.48884
-9.14679
34.0495
0.612563
7.57599
4.1583
3.78619
0.406439
0.0718491
1.07779
1.65619
4.21326
-7.17472
-73.5121
42.8473
48.0279
50.0134
28.9904
-5.86309
-0.435148
-12.6621
11.2695
-4.82832
-29.9582
-16.5066
0.416536
-16.1413
1.87455
-69.2236
18.686
25.2964
6.08274
-17.2845
23.0471
-2.54117
30.307
25.495
21.0149
17.7873
32.5509
6.5723
-31.1452
10.4553
32.6984
36.8847
25.8358
-7.73204
35.5335
-14.2944
30.6897
-10.7086
0.679964
3.36877
4.84728
14.7985
12.5218
14.4631
11.6073
13.2141
15.0579
13.4155
-5.48249
-24.1947
-12.1706
-31.9862
32.2184
-64.706
-103.591
-47.3419
-111.206
-79.6716
-19.328
-21.7774
-52.8215
-30.6154
-49.9294
-11.6385
-36.8065
-52.7926
-21.475
-22.4294
-20.2189
-24.4718
-37.3677
5.4693
4.47837
-2.17725
-6.51973
-39.2875
-13.1248
-52.0066
-51.6725
-8.17844
-48.0396
-10.8663
-27.3785
-7.96681
-14.6897
-54.6304
-30.9936
-8.50244
-93.816
-7.48686
-64.4876
-28.7707
-66.3449
-49.3908
-53.5532
-44.4652
-51.6286
-45.6516
-50.0927
-0.893708
10.8994
-0.235636
-7.00849
-4.8969
30.4352
1.88864
-4.4612
-20.645
-0.154687
-12.5329
-6.39378
2.80856
1.11552
-51.8189
24.179
57.6703
12.8792
-45.9545
-46.4523
-40.8841
-26.3179
-32.7769
-38.2807
-43.5356
-49.3739
-48.5837
-35.0505
-33.1607
-23.4964
-27.9217
49.6372
23.2564
57.7988
-27.8376
-12.8925
-31.6968
-20.5198
-3.06988
-3.21917
-3.8912
-2.79078
-1.81882
-4.34539
-4.26301
-5.23198
-47.6116
-48.628
-51.9115
-49.2431
-44.093
-48.9404
-37.1364
-43.7153
-36.1311
-30.0399
-26.0736
-20.6325
-17.968
-24.1158
-22.5611
30.0762
11.1454
9.73965
15.9188
-38.1029
47.1105
13.6507
-19.3942
45.7362
45.1077
51.9485
16.8024
-54.6147
43.1439
-5.86774
-2.03573
-12.7717
-14.1208
-6.9356
-47.6393
-9.4112
22.0192
-2.38491
-17.9396
5.24022
16.207
14.0312
23.675
15.5882
18.2378
-5.31722
19.5635
17.4386
9.47006
-4.49085
-9.69251
11.8149
9.22021
-47.4719
11.4597
-11.7731
-15.1638
-18.5646
-14.0167
7.14153
30.9669
15.0595
46.566
18.3062
40.3082
1.16726
-12.6872
-11.6098
-2.33801
3.13515
13.7486
7.30937
2.20211
-4.21343
-0.26818
0.309211
-3.59059
-1.71026
-1.23057
-28.9365
-21.3019
-15.4345
-13.4828
-28.831
-32.64
36.2281
46.9232
8.77931
8.64962
7.13349
51.588
8.13568
6.72649
28.032
22.0263
21.5082
1.25732
-3.78846
-1.88943
7.3473
22.3037
-3.74599
7.27485
9.70105
28.8637
-13.4699
-13.3336
-2.94386
1.77501
6.89731
43.7151
46.753
46.6696
19.4972
32.5948
23.9131
0.630875
2.01679
0.31912
30.4257
-0.0497663
-1.35512
21.5075
19.0692
-0.914992
27.6784
0.162082
0.501947
-49.3203
-10.0595
-10.876
-63.7355
-0.84973
-0.731137
1.27903
1.9019
-18.7189
4.355
5.1528
2.70076
15.3256
16.5679
21.3422
3.80764
-5.28305
-7.35235
13.8365
19.2034
43.4712
6.81251
5.09225
0.993269
-8.19962
-2.49309
-6.6076
-17.7246
12.2797
10.6141
10.1527
27.0301
-42.4081
18.6044
27.4181
14.5563
-5.96937
27.7612
-5.90974
44.4145
2.37401
3.49584
-0.248152
52.6331
10.7426
52.4273
7.49056
-0.129973
5.55753
-9.66864
-5.2041
-3.38299
-8.46441
-3.10503
2.84739
6.95584
22.9877
-9.75322
27.866
32.4785
36.4832
41.2513
22.6542
-65.7483
14.1482
7.034
26.6385
33.5532
18.6564
-87.0906
32.3208
55.0558
1.98412
-1.23862
-29.2792
-51.407
-9.44007
-4.42776
8.10867
-0.268693
-2.0375
15.7771
-5.5548
35.366
21.3072
-55.3574
-51.3046
9.59491
20.6576
10.963
2.54514
-6.22084
12.6739
2.13105
38.0644
24.9086
5.19854
7.62131
2.36743
1.94184
-3.27041
32.6146
39.6044
36.0144
0.82142
30.2218
16.6066
-9.1642
-3.70063
2.97605
1.20762
-11.7065
-4.36964
-4.9056
4.11745
-11.3797
7.29702
-26.6592
-56.4001
-22.4321
3.66839
-10.038
-5.77033
-1.28254
11.4771
3.30326
6.73163
7.84967
14.1249
16.4954
15.6845
-12.7278
51.9338
48.1819
33.7835
40.8716
46.2559
52.4995
43.4448
38.2796
2.7512
-49.4769
-2.66316
-16.2497
31.9647
-3.28815
21.683
8.86829
-7.22584
-4.08308
4.21514
6.47168
7.15503
-5.91303
18.2588
-0.654631
-1.87083
21.2847
4.72034
3.77784
5.74793
4.71586
2.31111
-21.5347
-13.9863
-8.18217
-6.07196
34.7408
44.4586
41.2366
0.0561331
-6.177
-53.455
-48.8467
-50.2459
-51.7565
3.96476
-14.5686
-10.6798
-13.6953
-6.66118
-2.95913
3.22731
-45.5957
-35.9416
-49.571
-1.75883
-12.8945
15.9031
-41.319
-39.8261
22.008
33.0252
-14.6092
-11.8297
-13.1124
-11.1721
-12.6398
-36.53
-53.137
0.232322
-16.0867
-45.3305
-9.72535
-19.1344
-18.2027
6.25085
-24.3941
-38.2187
-13.8008
36.8229
-50.6422
-8.98536
-0.0955454
-9.92867
2.4728
14.0188
15.7431
30.9271
6.15663
3.5747
8.25051
11.1014
-1.79674
-8.8359
-38.7628
-3.31727
-25.5936
-37.5116
-53.7091
27.8641
21.6422
30.0394
18.4259
23.0776
18.4613
36.458
28.4247
51.8276
28.1304
12.6678
-46.4259
-48.1282
-47.6141
-44.4349
-44.498
-9.09708
-11.8656
-12.7565
-5.93354
-15.4183
-18.5266
-13.0608
-17.6452
-48.589
-47.9138
-45.5905
-51.0309
-51.2554
-54.4109
-36.3838
-28.1275
-51.2498
-45.1766
-37.1138
-45.9322
-43.0457
-45.8474
-45.7673
-52.5262
-51.9279
-51.7588
-49.0128
-51.5152
47.4425
-22.5462
-32.1226
2.45034
-8.19885
-34.1515
-47.8177
-37.3801
-16.7563
-47.7635
-12.6908
-20.8621
-6.44305
-1.93576
-8.28942
-3.24366
-8.33405
-13.5721
-13.6261
-13.8974
-3.71342
-4.58371
-5.82872
-24.3119
-8.93662
-29.3605
-43.2783
-47.1904
-10.3262
-22.2425
-33.897
-48.6193
-7.39106
-23.8505
-44.2938
-11.1564
-45.1193
-9.15232
-38.4606
0.143348
-11.5605
-19.271
21.2532
-6.83443
13.9509
20.4083
-21.9774
11.8039
-31.8882
-17.7644
3.52421
-13.5149
-1.00378
-16.1631
-20.6269
-6.05946
-3.17278
28.9661
-4.99556
5.45324
-17.709
-40.6379
-12.9088
-11.1848
-40.7128
-2.14435
-50.5717
6.80915
-30.1159
-1.07246
-15.4254
-52.4861
30.3218
1.88875
23.3849
31.6556
24.2827
4.22774
0.0656183
10.8275
-2.90533
0.654358
2.71039
10.1672
18.0027
4.27809
-32.568
14.1015
5.89565
-38.963
15.9353
12.8063
19.7098
47.2272
35.5371
-9.51537
-4.18281
-20.2622
12.4371
-10.2376
-44.1237
21.2098
42.612
4.09761
3.1267
-1.3748
-20.4749
-34.0649
-12.0649
8.96351
-1.47536
4.56815
21.2204
30.4426
43.6851
44.0196
3.89685
-39.3474
-12.4248
-13.3184
20.1544
-49.0341
-10.1529
-26.2028
-103.305
-3.44064
4.33607
-0.377358
0.0399703
-0.633053
-40.3974
-58.1482
-60.1827
-11.4211
-2.76672
-1.49217
7.03642
-11.8984
-7.59172
-2.33287
-23.1145
-7.68102
-24.0847
17.8019
15.3004
34.8939
26.3769
24.9837
7.20397
31.5873
-8.90223
-51.5457
-47.3994
33.4371
31.0687
-46.2156
-10.2854
-10.7339
-24.1144
-47.841
-40.9796
-41.6324
-46.381
-41.9545
-52.1038
-23.0103
-24.0216
-12.8272
-11.6814
-5.63333
-48.9881
-1.73253
-42.5456
-48.5878
-3.20559
-32.9133
-52.4531
3.27487
6.99403
-12.0601
-36.9381
-6.50885
-12.9942
-42.4463
-28.5418
1.12059
-5.99715
-3.09589
-48.8746
-38.0248
-16.0347
-42.2297
-75.4273
-48.1683
-44.7558
-41.9955
-27.948
-17.1284
-18.0703
-33.4595
-21.8894
19.7826
-2.12664
-23.0698
21.1178
-47.6535
5.34681
-2.80964
-1.32758
2.48426
4.62961
-34.3406
-0.546331
-7.8114
-24.1946
-32.5435
-33.4559
-23.4841
-24.1882
-46.0373
-25.4593
-17.6182
-17.4399
6.20927
-32.5083
-2.66756
-15.9276
-10.978
-41.3375
-14.5951
-22.7417
-32.654
-33.6914
-38.2632
-18.3888
-30.7609
-69.3809
-6.05615
-53.8042
-29.4878
-34.1024
-5.07941
-20.5305
-6.72277
-37.7259
-37.7018
-6.57522
-27.3927
-16.8519
-5.91084
-14.8771
-36.8394
-40.854
-24.4324
-1.27525
1.16775
4.39919
1.48781
4.88883
36.574
33.821
46.4568
45.6079
46.7769
42.4712
3.50929
14.1613
27.3637
20.3482
20.7421
7.88998
-58.517
-23.4803
2.56221
-46.0075
-3.00713
-2.79793
-20.9475
-30.4887
-1.94505
5.84724
-23.3283
16.9945
-8.81648
-4.2913
-3.7085
-3.94394
16.8273
0.528838
-6.59427
-3.31526
3.08667
24.6517
18.9862
7.97207
-12.4464
-13.5659
37.9183
33.6872
-7.75584
35.8049
16.7228
32.3317
40.2539
42.8171
10.4455
18.8995
0.398134
8.85319
40.4261
20.4794
16.6701
19.5316
18.8969
22.564
1.26521
-5.0893
8.03799
1.53687
5.56274
4.55126
8.19162
-4.58476
4.84465
5.38226
-2.76267
-4.37983
30.3607
38.9725
-5.73968
32.1045
-41.0124
38.0629
45.1548
40.8766
16.9823
17.6068
30.641
18.3711
13.229
12.5352
11.577
4.35034
3.99826
4.76942
26.0848
19.4255
21.0801
-8.35084
-7.06002
4.55309
3.95124
0.743839
3.49196
15.8181
21.1184
-50.546
15.701
13.9054
13.282
-6.98357
24.7338
32.3985
-6.68687
-5.86114
-16.911
-14.7804
-17.1937
-25.3333
-10.04
-8.32991
-22.5784
11.6211
13.5515
19.153
13.6877
-6.19766
16.2371
18.0825
5.22676
8.29768
2.80262
14.3363
13.5758
20.1064
13.1872
11.7009
9.87691
8.10823
18.1268
-3.9758
8.52186
-1.64093
13.2216
11.8475
-3.39518
0.383301
0.198293
1.43467
0.330426
4.30673
-29.1722
-49.0616
-32.1911
-43.9938
-36.7437
-18.8336
-22.055
-4.11113
-3.07484
-7.45263
-4.07638
-24.5773
-38.9893
-19.2229
-9.39458
-21.6332
-11.8268
37.0573
-16.4908
-50.503
-52.838
-47.3924
-42.4356
-36.9539
-38.3278
-32.9248
-25.5725
-48.7322
-50.7709
-47.1931
-50.2256
-50.719
25.2852
30.0419
7.68003
-52.4282
-46.9265
33.2779
20.3954
-32.9826
-42.4235
29.1549
-69.9804
-50.5906
30.319
46.025
17.8914
36.2672
24.1857
29.4352
47.168
52.0617
35.8517
-48.5748
-49.0981
-55.7464
-48.5643
-13.1899
44.0007
-33.1739
-51.6904
-53.4047
-52.8404
33.1991
14.8862
31.9368
10.5117
34.5841
20.8899
9.21473
-14.559
-66.1353
-53.0821
-5.40525
-26.468
48.5987
47.0458
48.3675
26.7463
7.75225
8.2036
-19.7918
53.2085
18.857
20.179
14.2603
9.71292
55.4486
57.4739
-37.9181
10.3621
56.6479
-7.81162
-45.642
54.9683
17.3617
-32.2754
14.0368
-49.5027
30.6551
29.3239
-0.771732
38.6395
19.9804
-10.7603
-2.38252
-23.6191
7.3881
-14.721
41.1555
-42.3307
51.5326
3.02067
4.08845
-22.0144
-47.0234
-47.9342
26.6869
-2.02682
-18.6703
-2.36543
-6.89334
8.00622
-19.9108
-20.6199
-30.4547
50.2452
57.7456
13.112
34.9968
-43.3331
17.7068
27.0423
51.7145
17.8709
42.1696
48.3934
22.8008
22.8686
17.8686
35.4364
31.0789
34.0523
29.093
21.1068
22.6261
27.7293
12.837
22.1262
12.459
20.2942
16.8518
43.9952
45.6904
-11.5388
-4.50213
-2.27314
-7.30996
-12.4502
-14.7305
-7.55782
-11.2457
-2.78597
-20.189
11.8547
9.7869
-3.43457
-5.85155
2.02964
6.44661
5.98104
-7.28714
-2.58773
2.2081
11.2718
-51.0302
11.4225
-4.45889
-17.4123
-57.9822
-45.5894
-18.6757
-27.0492
0.0288667
17.3439
-14.6941
-0.178292
5.12366
46.8949
-26.0006
44.6607
16.506
9.41638
11.0307
-18.1331
17.1258
21.7974
36.443
12.7252
34.1029
43.673
32.234
-17.6049
-18.1479
12.5286
-0.552054
36.1542
5.17419
6.04382
38.3012
41.0251
41.3447
45.6497
39.5683
37.7458
6.08223
-0.757163
-1.88915
-2.83524
-2.44523
43.9867
-7.58559
-2.58947
24.6503
-16.5716
-48.8589
-50.833
-5.01687
29.799
28.6648
22.3676
17.0801
10.3785
-7.78459
15.6535
20.1851
23.2816
-18.3502
15.9151
14.1981
-8.89175
19.8969
19.781
24.9529
12.6374
-49.9139
-49.72
-31.2186
-24.1414
28.1952
9.90442
-17.5613
28.3454
20.802
-5.76046
-4.90391
-13.4001
-6.48539
-25.395
-14.4931
-1.01582
-47.8578
-0.0580839
0.468752
-1.11221
-16.323
-1.16022
-20.5091
6.01443
-2.7317
-4.68216
-4.04165
3.77261
9.22711
-49.9527
20.7506
17.9211
18.6578
-3.69947
9.39283
20.4587
8.57144
5.28744
2.75677
-10.7794
-11.8392
-14.5846
-12.5337
0.220444
-49.9419
-39.358
-30.2389
-13.2267
14.3409
-39.8988
14.0028
-35.1613
-42.7836
-9.30228
-50.0234
-48.883
36.7271
32.1766
-48.7018
-45.2013
-57.9657
2.58886
17.1694
-18.2595
6.23558
34.431
22.4861
8.13653
-5.29424
-3.35683
-13.9569
-13.3668
-3.17114
-12.6964
1.7556
-21.0967
-7.90535
0.839287
-10.9772
-16.828
-8.41961
16.509
-38.9507
2.75158
14.9741
-34.1909
-6.39182
-26.9482
10.495
23.4563
14.8536
-10.7572
-15.8673
19.7933
16.3424
-1.72604
33.2269
14.3683
-39.7639
-3.45365
18.6013
24.8467
1.78306
3.99815
5.04361
4.5182
3.30241
-28.048
-49.9264
3.89494
-0.335573
6.48481
11.631
-5.93335
-70.0246
-15.7447
38.676
-10.3461
-6.15069
-13.5663
-6.49615
-5.04208
-47.7245
-28.009
-41.906
-16.0063
-9.3112
25.4189
-36.9152
-36.0038
-15.8345
49.9142
-19.0043
24.4095
-13.0253
-11.601
-39.356
22.2345
-9.67382
-35.9448
-30.1069
-39.3412
-14.9804
-42.2001
-51.9906
-33.6918
-18.7818
-36.7949
-52.1614
-49.6377
-53.3921
-14.4432
-10.8889
-34.406
-0.161177
-7.07012
-7.96383
-23.8782
-4.42732
-11.374
0.117444
-4.8295
-8.39011
-1.78063
-15.8146
-8.37064
-5.85285
-5.3244
-8.44984
7.55458
10.3616
-2.73252
-7.3512
6.2707
-39.0983
-11.3327
-36.0468
-15.8205
-10.9717
0.00713851
20.0711
37.679
1.3661
-0.358944
4.14755
-4.72175
1.78497
-20.7543
-15.7195
-34.5636
11.3944
-16.0486
-11.5121
-3.98502
-10.248
-8.80129
-30.8448
-44.2227
-46.5246
-75.431
25.5607
-51.1477
28.6911
56.7995
27.1426
32.1829
22.9403
28.0487
26.9309
-18.0717
25.0231
2.92299
-20.1931
-20.7574
-4.18682
-22.9006
-1.40027
-0.802497
-41.2518
27.7097
15.2419
-23.104
-31.9319
-49.2026
11.2429
2.93667
4.51558
4.1291
2.24612
12.4475
17.3105
-1.45666
1.09587
-0.812102
18.1295
29.104
10.2915
-7.04536
19.0379
0.55036
8.79553
-2.40836
45.8536
-6.87889
-0.450652
3.50689
-3.46737
0.366546
-3.00078
10.8119
-5.3513
29.1423
30.3518
19.5751
7.55493
9.60722
8.1465
0.899482
-48.0242
-47.0109
-19.2181
-15.8342
0.253758
-9.34245
-0.322885
19.212
2.2536
4.46776
7.72376
-2.94567
-14.2089
-4.15602
6.92147
5.33563
-2.8162
0.417249
0.578665
11.5966
-0.799276
-0.871679
-2.87749
1.96221
17.0268
14.9902
34.1221
28.0178
34.223
29.5108
18.7682
-85.4981
32.7235
24.0516
32.3086
24.9601
13.648
19.3977
-46.0009
6.77441
21.0222
36.8622
-29.7556
-1.41836
-50.6897
3.07545
-6.03531
-5.90034
-7.70686
-27.04
-14.4353
-50.5207
-49.9028
-49.6324
-33.0674
-40.9177
-10.9746
-9.44834
-52.4817
-3.67604
-39.6236
-19.077
-13.2276
-27.6768
-48.6901
-50.5424
-10.7122
-52.1874
-9.34267
-11.437
-9.59484
-49.7469
-5.13606
-17.1763
30.519
-51.9051
-7.35803
-18.3128
-8.64853
-51.1431
-12.9678
18.3228
-51.9169
-32.5378
-6.87086
-7.56479
-47.7759
-44.8865
-13.4966
-6.35462
-13.7534
-10.8046
-3.61705
-1.09121
43.2155
1.33296
-6.64252
-2.33015
-1.5687
1.59987
4.28195
5.1279
-1.70655
1.92564
2.77454
8.0861
3.31298
3.09182
-11.66
-9.47607
2.34515
-2.50772
-1.71001
-3.41699
0.272376
-0.0741776
11.3514
5.66718
-1.00534
0.964771
2.1375
-0.20016
1.92784
-3.12309
9.60175
15.7568
-50.5978
-24.7767
-52.7087
-3.25913
46.2962
48.3114
58.6802
57.4527
58.734
-39.2393
19.6
-8.80349
-58.3659
-50.6328
46.7634
-63.4548
-15.7295
-72.4409
31.7443
24.4873
11.6294
9.03683
-0.910028
10.6139
15.8084
13.1355
-18.3629
-99.3814
-16.3226
-1.14356
-12.6337
33.5237
22.9174
-28.8114
-23.6342
22.1167
11.944
-39.3733
-43.7232
-47.1611
-0.707314
2.05179
2.69384
3.92052
-43.0026
21.5225
32.4299
12.099
-23.2225
-50.2069
-57.7119
-67.062
-54.7813
26.7947
27.2049
49.2957
1.13616
-2.21827
-11.3275
1.48383
6.61796
6.65209
9.34818
56.0092
-30.5274
-11.4553
7.15219
-0.748827
9.17893
4.44104
7.9902
1.06639
48.1358
49.7692
-8.43785
-5.64258
1.23142
11.0737
-50.9628
-11.2711
-4.36633
-51.4018
-7.33926
-7.40006
-7.96926
-7.75709
-21.6159
-39.2038
-2.60697
5.96204
28.4532
8.29876
13.0939
3.51184
-26.0865
31.7592
2.91222
6.83858
16.4752
28.8157
24.4908
38.4128
36.4963
25.9256
-31.6128
17.5246
6.45555
11.5567
7.04073
13.0104
16.1841
-4.89346
-1.87279
2.58711
-11.2613
-18.0829
10.1189
19.6786
27.711
-52.2919
34.6175
36.4108
26.1321
28.4715
49.5749
26.9718
31.1522
-21.9255
-53.7513
-8.5279
-4.73679
-27.5213
-41.1838
-0.895087
-12.8481
-8.99052
-1.95621
30.3484
21.058
20.9187
20.9295
21.1359
29.9825
37.2099
20.0067
14.3248
8.28705
10.3221
2.52859
-1.56675
9.42708
13.8161
21.6538
28.77
28.3066
32.3278
-14.7995
-11.0533
-44.6568
-10.4059
-5.78726
-25.9534
-12.6986
-1.00926
-64.7705
-9.94938
-28.7166
-29.8085
-8.30401
-44.4018
-8.23103
-12.7296
-50.9794
-25.0178
-11.0814
-20.4113
-52.2497
-48.4495
7.92251
8.96375
-34.9177
10.6804
4.7582
18.6114
-51.2534
30.1634
17.9911
14.9641
26.6994
53.287
-15.2067
27.9305
19.102
3.57194
-24.6376
-7.99619
29.2646
-0.0390235
13.7683
20.261
28.6611
30.3243
44.047
16.3214
16.7039
-5.94768
-7.96136
2.89674
0.657374
17.7921
21.2116
16.29
-17.5956
19.8658
22.9261
19.2827
14.6816
-49.175
-3.0644
-2.62415
1.09269
1.92805
-4.81077
-3.74207
-5.21569
-7.49566
6.33591
-1.65718
-6.46513
-3.57849
-2.03454
-5.81153
-10.8401
-6.56628
-14.801
-0.136896
0.405544
-0.724279
21.3385
20.376
23.5387
10.9111
2.78794
2.65761
8.17741
9.74993
9.05241
4.86375
5.89795
5.61964
6.21692
9.95835
15.6355
16.2212
12.239
13.3065
26.4672
27.3923
30.488
30.831
31.7503
29.262
28.3598
-24.5529
-25.1283
5.44451
-31.2487
-29.512
-7.84113
5.78798
-10.8049
-5.44495
-5.95282
5.68544
-9.42851
-16.8375
-5.54533
-9.37845
-7.2669
-9.80919
-6.96336
39.7445
50.3584
35.5218
55.3961
34.1008
43.3328
37.0633
50.1479
31.1137
39.9476
-0.436806
29.5567
43.6676
37.6663
26.919
26.1471
29.6565
25.8393
-39.292
-22.3824
6.12827
-0.0142308
-51.2328
-0.129668
-7.6248
1.98898
-7.67945
-3.85849
-0.618088
20.1384
16.4773
17.6021
-5.22399
-8.77444
-2.83494
-3.21378
-16.5266
-23.2572
4.16862
27.6624
17.0919
17.36
2.69399
-7.41277
-0.441593
5.33137
-28.1147
16.0646
10.924
29.0176
-51.1384
-36.3828
11.0682
40.9233
39.5745
41.5561
11.2613
13.1567
25.8113
15.3484
14.1732
7.74812
-48.2952
-51.1129
-51.6875
-47.1622
-48.8014
-53.9232
-49.4281
-53.0571
-6.31379
-7.69823
-7.87362
-8.15549
-2.03405
-7.7144
-11.6089
-19.4618
-2.70914
-12.6035
-11.1068
-7.36226
1.7525
-0.657531
9.79639
-1.92285
-2.35574
-4.50504
-17.3302
-4.02116
0.70859
0.727235
1.81881
16.0471
-25.2107
-1.36112
19.3706
18.5656
6.41327
10.2972
-15.7158
-46.0334
7.69202
19.3693
8.2028
0.713913
-5.65039
-9.74448
38.5782
9.88992
3.65468
9.93003
-2.08474
23.2073
10.0407
25.6992
27.8667
11.238
-20.9778
-16.9408
5.29384
-25.1229
-86.6133
-60.1142
41.0423
21.9683
-11.8789
-74.3989
8.91113
12.034
-2.35987
41.9005
5.58333
18.5042
9.65272
17.6202
3.7569
23.4282
23.629
9.42149
10.2262
14.6271
1.43564
19.9106
5.66649
8.71721
8.30077
5.05266
2.2557
8.05079
1.92924
1.87754
3.76051
8.35234
-9.37292
-1.13378
0.0398604
-1.57809
55.7718
-102.809
31.0695
2.88781
14.9037
-0.725016
-20.752
13.5493
-4.72664
-16.4391
9.30269
-2.34008
14.8159
-14.1516
-48.8492
6.97539
33.9522
23.2283
26.1187
-3.45228
4.29666
-3.4858
-0.24763
-5.57098
-3.39362
-4.74666
6.111
9.58274
-10.266
-6.28827
-48.0394
-8.13243
-23.1477
-9.27541
-5.42584
-16.0527
-7.80099
6.50959
12.4749
0.910415
15.9354
24.5612
8.48037
21.274
6.56398
29.0254
-34.3134
-31.4838
-8.5365
-14.4465
-11.7139
-37.2568
-4.53254
1.63601
-15.8642
-11.7758
0.604681
-8.28627
-5.07289
-21.2003
-105.305
-38.8359
-49.0907
-26.5776
-49.5516
-48.8298
-21.3045
-11.8276
-2.70009
-5.05261
-0.605728
-1.59748
-7.16325
-40.5018
-50.3086
-31.9034
-19.5419
-55.3586
-42.0921
-51.797
-79.8116
-44.6537
-49.1813
-49.4281
36.7457
26.8078
-28.2256
-51.8928
-51.3278
-47.3753
9.50778
8.23812
7.80089
20.1784
23.5545
20.5361
4.64229
-15.2699
-21.0871
-26.0876
-22.3506
-6.88968
-4.85352
-5.22844
-1.66745
-9.12918
-8.94623
-5.72698
-8.90946
-5.58383
-3.57894
-3.52108
-0.63705
-1.58727
1.49284
-31.3564
-27.9722
-30.7995
-32.1474
30.7904
28.649
24.8947
13.9825
6.50187
20.3848
21.5763
49.4257
38.1534
37.5503
45.9552
53.5634
51.3261
47.7529
50.115
-14.7675
-21.2824
-11.0873
-1.12799
1.98637
7.11873
6.81795
31.2713
32.1999
34.647
25.11
40.1323
-30.1245
-22.4495
-26.0405
31.6529
30.6923
30.5318
9.45103
8.38951
-48.5515
8.44798
8.478
8.37296
-56.2141
-117.584
32.9375
-53.1799
5.61549
4.52761
3.90351
-8.17284
9.16867
8.53909
36.9484
-41.5827
28.0045
26.5051
23.4718
-71.6935
5.19582
13.5851
9.27602
-10.4088
44.7898
50.135
6.71971
7.96747
26.1583
17.1853
12.8008
20.8199
21.5627
38.6417
-2.35076
-18.2698
7.06507
-22.2957
-21.76
11.9132
33.777
-52.3939
48.6551
-11.3497
8.99986
-5.61836
-12.6192
-14.3909
-13.1076
-5.42994
-17.5057
-3.29152
-3.51195
-3.74737
-4.68423
-49.4532
-48.5879
-49.5017
45.0067
13.5335
13.3886
11.8325
14.927
10.1898
50.879
46.2278
47.3608
35.4703
50.6014
53.8208
41.116
45.1146
49.4673
36.1066
45.7825
45.542
-31.7288
2.24631
-15.7478
-19.8169
-8.55625
-0.310826
-6.78034
8.87998
-34.0798
-25.2873
-19.4926
0.297356
6.0779
10.4532
-21.2299
-15.842
6.84019
2.06431
-36.2204
-34.5179
43.0767
-33.733
-20.2983
49.8896
-5.10935
-8.09952
-3.40889
-5.98566
-4.66074
10.5974
41.0412
49.6203
37.6502
54.5096
37.7327
-4.23609
-2.54764
-4.83432
-5.98258
-63.1735
-7.04905
-1.6405
10.5102
7.48455
-3.29769
5.85374
42.6248
4.67731
43.5951
20.63
27.0739
22.0782
24.8227
24.1959
9.10059
-1.76945
29.6435
30.3325
48.3651
29.9969
-44.3626
4.94077
1.00222
-6.42603
-4.35263
-6.2606
-6.05561
-12.4609
-69.4381
16.8273
-7.2651
7.56548
2.09981
7.74261
-3.21593
4.46417
-3.45094
4.26407
0.199533
9.03142
2.74485
10.8345
6.58466
-5.7427
-2.21618
1.60445
-47.3849
32.5116
-84.7142
-80.0531
-16.5026
-20.1386
-50.4735
-51.9995
-2.20268
-14.8976
-6.89541
-15.7062
-28.9214
-22.1882
39.116
13.278
16.7645
15.6139
22.6508
30.9558
37.8682
38.7577
-13.3069
-9.84685
43.6045
47.9014
10.991
21.0711
25.6017
22.2262
59.0214
-11.7127
28.5034
20.4785
10.8071
-54.3665
16.7886
18.6766
33.0253
29.2158
40.528
37.7167
-31.1572
24.3711
31.6213
27.1488
28.734
25.0923
-16.9742
-19.2346
-15.9304
-21.367
4.42324
4.53322
6.35977
-9.04393
-2.7751
-21.3001
-3.71335
-22.0508
-15.9798
12.2555
11.8667
-11.0989
11.4375
-84.6738
-43.8454
-15.752
-41.5274
21.5457
58.391
48.5102
46.3956
39.1739
-52.8225
-27.2112
-40.967
-40.8272
-23.7596