/*--------------------------------*- C++ -*----------------------------------*\
| =========                 |                                                 |
| \\      /  F ield         | OpenFOAM: The Open Source CFD Toolbox           |
|  \\    /   O peration     | Version:  2506                                  |
|   \\  /    A nd           | Website:  www.openfoam.com                      |
|    \\/     M anipulation  |                                                 |
\*---------------------------------------------------------------------------*/
FoamFile
{
    version     2.0;
    format      ascii;
    arch        "LSB;label=32;scalar=64";
    class       volScalarField;
    location    "0.0440925";
    object      omega;
}
// * * * * * * * * * * * * * * * * * * * * * * * * * * * * * * * * * * * * * //

dimensions      [0 0 -1 0 0 0 0];

internalField   nonuniform List<scalar> 
3972
(
90.5818
46.3661
46.5272
48.5077
912.883
122.879
98.9317
48.0289
46.7762
67.3152
50.8864
48.8821
60.0663
48.2731
46.9508
44.9796
46.7206
49.3974
48.1408
56.6361
1144.75
234.652
102.878
48.936
1335
45.2066
47.8737
64.8671
104.098
47.078
665.907
179.314
48.6356
84.485
46.3756
46.1523
59.2337
57.9803
46.4181
63.4881
55.1623
48.8475
48.5865
102.872
56.9106
53.3492
64.3879
153.805
102.958
46.6078
58.4237
46.9972
59.9943
81.6538
57.2851
54.8828
131.012
46.8418
132.924
230.435
90.3835
120.542
52.7372
112.699
58.4221
88.5992
107.646
122.48
57.0194
152.967
121.476
50.8026
168.486
46.213
73.16
45.3645
54.8364
100.437
63.8192
91.6815
58.0595
48.389
44.6736
70.5059
46.9445
86.5808
71.7285
55.8687
107.242
99.2611
60.3444
53.5274
69.2148
54.8507
48.7484
45.3758
45.6654
53.7387
61.6422
48.0292
46.7192
46.7994
46.4942
49.234
97.5912
46.9809
49.2281
47.1841
78.2859
46.4524
56.7469
46.0996
44.9904
105.96
51.651
49.2082
47.6972
130.59
112.945
56.2622
105.698
126.56
98.8005
85.6316
53.3276
589.055
121.692
554.551
643.325
922.533
503.754
55.1108
333.595
338.3
106.483
102.008
122.903
117.047
134.864
79.1776
63.1188
46.7716
52.6616
82.4996
136.493
61.8351
66.458
45.5354
123.652
64.6859
65.6502
48.1035
47.7125
82.464
154.173
48.14
55.1446
63.4215
59.5813
106.501
44.8786
45.6723
50.8254
54.6374
45.8121
64.1501
55.4682
81.9419
48.1749
63.8997
72.0222
55.5421
44.8556
44.7247
49.4329
50.3965
64.5474
44.6174
45.0705
44.715
73.4139
114.389
51.7028
77.5087
46.1302
45.8839
49.0977
56.684
47.481
1136.61
46.9188
45.9565
90.4703
46.0051
50.8397
47.1235
46.8782
76.7885
120.969
49.0414
48.5634
95.5241
60.157
59.0393
45.9998
71.2388
47.4733
52.9013
82.276
104.383
145.192
72.4462
430.422
446.095
51.0724
76.5083
95.105
66.2164
56.1685
71.057
48.7333
66.1955
51.6788
50.1838
186.448
50.5328
1013.68
142.089
1217.43
116.791
1470.12
783.899
139.669
774.984
50.0938
53.4207
54.6152
44.9634
57.3891
52.14
49.0008
547.842
108.852
50.7443
54.1234
47.2457
46.3498
47.481
49.0634
143.69
48.0886
712.362
72.9957
160.279
46.1907
55.1688
165.633
104.886
48.3106
121.72
189.313
123.568
94.5317
47.175
112.727
55.6361
46.0173
64.5893
50.688
48.9076
49.291
83.3403
381.416
153.506
74.4835
114.891
53.902
134.757
45.9561
45.1408
95.9058
156.057
46.1132
257.213
1178.69
573.313
50.8782
72.1454
48.1541
63.6185
46.5167
47.2207
53.201
50.4004
165.194
75.6608
63.5515
198.963
46.2569
502.509
46.7424
61.6101
57.974
61.958
94.4191
101.979
52.1876
53.1724
67.3677
52.4859
50.8705
52.7756
105.321
95.072
1430.25
47.4503
51.0777
47.3424
75.246
46.9577
453.735
752.032
57.0459
45.7839
45.104
113.155
50.7209
45.6831
46.7474
140.806
55.3051
194.953
57.3632
45.397
45.4817
133.773
49.7151
64.3907
46.0221
84.8459
72.3989
45.5261
107.532
47.7585
50.9787
45.8489
47.8302
47.8627
58.3444
57.575
56.1051
122.072
72.5494
59.9945
1366.02
103.536
495.697
73.9197
46.0174
45.5261
45.4528
45.1493
47.5913
98.0723
52.7058
49.6475
76.8701
45.5234
67.592
51.8159
45.3073
45.2216
48.2271
45.3546
91.9935
55.9322
52.0813
107.522
73.8511
102.038
47.7802
94.6976
46.2938
82.6087
57.8765
83.1101
45.7116
66.6237
70.5536
52.3243
429.098
48.3625
309.079
47.9229
225.032
48.9467
900.307
1325.29
47.7811
47.5256
59.8911
47.2758
44.537
54.5183
55.8354
44.9026
85.9987
265.125
50.7646
48.8855
45.1127
72.6317
53.8167
50.2072
93.5322
1013.28
55.56
48.3535
47.977
48.2324
48.0453
131.583
45.2378
47.3961
69.4073
50.9739
48.015
45.7427
61.516
87.2596
48.7286
80.5826
92.3998
52.7963
50.2936
48.3964
47.6438
85.4807
51.8337
85.01
50.0269
101.206
51.3381
58.5937
48.4743
47.946
47.3867
49.9367
65.8998
50.7889
47.5336
57.2417
51.6503
54.5491
46.6529
102.738
286.439
278.602
143.067
56.6692
93.1451
57.4631
54.537
47.6497
54.3499
79.7928
45.3425
45.3358
46.2867
46.2762
106.731
46.9521
50.1664
51.801
45.3399
86.1412
99.5569
711.814
52.9197
52.711
79.2437
77.232
131.519
112.844
162.522
49.2826
60.815
105.421
62.5718
64.7089
91.1498
83.9974
471.353
65.1829
512.157
765.827
89.9272
68.8396
100.885
61.9512
63.2321
99.5704
49.885
58.0462
55.4564
55.849
46.2024
46.2862
47.4965
48.8181
113.744
83.9759
133.443
335.407
47.2619
47.025
48.8436
47.0712
118.217
118.416
85.4371
56.8445
85.4927
56.5394
257.808
48.0369
47.1684
64.519
100.575
46.1192
88.1647
138.939
47.4655
63.6692
73.8294
47.805
64.8439
66.9215
63.3776
71.7776
67.4993
48.3647
49.5552
137.537
51.8423
49.4449
80.823
46.6075
71.0098
46.5517
48.3167
48.2828
48.2428
50.4019
48.3853
46.4239
46.8555
59.0353
48.5507
45.6741
49.1354
48.0138
46.5938
156.597
45.9533
198.244
199.136
187.68
77.4047
406.749
45.1257
45.4349
273.109
55.1994
51.2101
47.0827
72.7184
75.8409
68.2665
45.0905
46.5677
46.6502
46.5627
78.6163
53.2413
57.6237
45.5604
45.5602
46.8593
46.1602
58.4197
106.632
629.332
469.387
73.5812
118.799
53.5818
57.4464
45.6511
46.1293
53.7468
106.04
71.7639
64.6452
291.406
115.633
187.392
49.745
874.657
54.8865
46.6147
45.1382
60.5521
49.5762
127.333
91.9395
77.8038
47.0882
48.8004
46.7314
49.9068
241.486
133.338
66.2973
96.7876
56.5924
106.094
45.4409
46.0066
48.258
45.9407
45.71
56.0516
58.1135
75.5258
58.0827
55.2705
44.9643
44.9627
45.0954
45.0773
60.9281
56.0795
46.6283
46.9691
105.124
78.7748
491.848
124.049
149.909
63.7294
53.047
533.264
637.341
52.3564
50.036
45.9135
48.1112
50.8215
89.9803
136.557
81.6982
45.9054
115.249
57.8252
50.4054
49.4883
47.3212
53.6421
51.3978
48.6416
45.3023
45.5431
45.9929
45.741
45.9939
45.9799
48.7486
92.7047
49.3852
52.5208
55.7184
53.2598
54.5301
51.8765
66.5766
53.1465
67.3571
44.9454
116.53
114.289
145.433
90.5958
48.0159
46.7831
58.3367
46.4618
76.8123
46.9556
62.9887
49.247
164.478
46.476
74.5929
63.8906
76.5886
127.896
46.5101
51.5626
63.2802
48.4915
46.2114
86.9751
85.9728
858.237
60.8512
68.0239
74.1488
91.0235
62.4101
122.182
48.1903
110.75
47.3451
57.6668
44.9886
53.5269
147.272
68.5404
68.6973
47.9426
47.0181
53.2231
56.6269
71.4937
72.7141
47.7866
55.4492
49.051
52.031
68.6342
48.3163
48.9838
47.1149
120.191
66.3913
50.322
46.1979
47.2872
50.8552
48.008
59.7801
51.52
50.6688
67.9371
63.7379
48.8662
69.9333
764.667
145.277
262.916
608.883
46.5994
48.1083
46.3569
49.5277
127.968
46.3114
45.32
54.5951
53.3818
47.0796
46.1775
84.7532
66.1197
91.9976
92.2241
97.2307
93.7195
112.363
57.1975
107.074
46.9157
50.6347
76.9853
75.3557
91.2969
69.065
48.5695
49.4422
49.9584
224.527
91.0067
51.7412
48.3555
46.1803
49.1805
117.956
66.8996
55.2113
51.5048
73.6361
104.074
53.5529
56.82
57.3602
357.48
56.3404
529.464
45.0525
46.6688
150.102
54.2222
53.8445
45.5031
48.7842
45.4516
45.0432
50.263
50.4423
45.8323
48.1867
46.9932
48.6106
81.6268
46.8258
47.6937
97.4824
62.4402
49.5616
46.0722
93.03
46.7757
46.2862
50.3025
103.64
61.2004
48.1276
161.496
173.316
907.116
1374.94
47.3996
47.1023
47.7419
48.9671
68.1129
1455.19
50.0286
184.499
138.209
127.026
55.2178
58.2327
47.2228
80.457
47.0588
193.454
71.4474
1082.32
44.8482
45.2952
47.5268
46.4123
52.6131
75.7496
47.2911
48.0268
49.9606
401.139
48.339
55.0757
46.3937
91.0971
97.3746
56.7896
359.882
54.1871
74.7418
46.6825
66.8154
59.151
119.049
75.2415
120.19
111.072
558.941
46.674
57.157
62.5853
105.016
72.4705
112.899
70.3523
77.2737
140.894
176.48
661.263
878.74
140.835
87.6478
61.7511
61.7359
57.592
58.8903
54.3549
59.4104
47.6709
65.5869
106.926
45.7213
48.7422
79.9679
56.8976
46.6243
48.4137
46.7705
71.1682
46.9992
45.4669
104.217
47.663
51.0424
47.8491
46.952
47.3591
58.696
46.337
48.983
153.327
65.7714
45.7327
44.5406
86.1046
83.6095
45.6074
47.6418
47.3968
111.05
64.7365
46.4192
52.1127
44.5213
128.808
114.793
161.922
851.606
45.8071
64.5602
115.272
47.7685
48.2407
47.4863
67.2991
49.68
50.7301
110.82
56.5808
56.3826
113.354
74.9873
89.4651
46.5463
84.0054
106.286
45.7421
59.757
110.12
48.8041
215.725
55.8381
561.483
65.7471
51.4618
950.427
51.3255
52.4137
46.8213
883.376
62.9883
46.5054
249.126
66.7154
50.38
53.7091
67.139
55.3443
65.4563
76.3589
45.8712
72.2357
939.347
55.2608
1311.02
702.552
848.709
60.8973
1372.42
104.833
415.928
1246.8
65.5452
48.7657
57.7048
49.2528
53.5756
86.1074
87.8877
504.091
1043.89
93.5758
47.2863
71.1828
478.572
54.7214
46.7605
44.9182
79.8317
78.5497
47.7193
1410.17
345.797
1213.46
1426.85
57.6456
75.1085
62.7674
83.6561
86.1969
84.8006
124.449
99.1993
54.7893
46.9482
50.0688
50.5907
96.1548
49.0365
55.3851
92.568
51.7115
47.0118
46.9072
48.611
47.3041
54.5844
46.5904
47.9177
54.9987
96.9466
54.7081
62.061
48.3311
74.1594
51.7502
47.2023
51.5092
45.4183
48.1191
47.3998
95.6525
47.8191
48.0761
47.0538
61.1347
74.822
60.5881
45.4275
83.9661
110.557
138.876
148.868
53.6226
54.256
56.1903
46.2355
48.0665
47.1506
46.457
47.695
71.2626
371.213
56.4487
48.4993
50.5956
48.4349
48.3262
48.1422
58.3114
47.1428
49.4424
110.461
47.328
48.2492
54.9457
51.9506
54.1037
54.9389
65.9451
55.3134
53.2326
49.3499
59.7233
114.937
1398.39
699.468
47.0748
99.305
96.2112
49.5243
47.9333
68.5825
259.698
46.493
143.298
51.9122
50.4757
52.0977
48.6949
53.6448
48.8709
48.4567
46.442
53.3031
46.5697
44.9635
44.7941
45.3399
44.7684
44.5365
45.1787
44.7847
49.2097
161.096
45.5352
388.046
319.233
73.9503
46.0083
46.2981
1041.14
52.913
89.1754
53.3988
45.009
48.1304
49.7744
52.3905
48.0282
336.393
49.1293
61.6871
47.3023
59.5636
46.6484
61.505
47.1658
62.1817
47.2793
45.0445
60.9461
45.2263
59.2297
45.2806
55.3779
90.8013
704.817
66.3409
47.9916
118.424
45.2319
62.3242
45.1328
54.3322
111.342
45.5023
51.8269
232.29
1061.59
53.9578
55.2505
60.0984
55.4206
60.5507
81.7016
52.315
55.595
46.928
46.1089
56.631
46.8574
45.4197
45.5842
62.6303
50.5556
1408.38
76.0571
810.452
46.6244
269.935
85.862
267.018
48.697
45.645
85.9547
440.31
48.9236
46.5197
725.795
54.7749
838.492
618.872
47.967
45.5107
49.1329
46.02
65.8477
85.901
49.369
48.1296
52.9373
60.3386
49.7691
50.3876
86.0234
46.3615
45.9399
45.4189
46.7792
47.6413
49.186
51.095
51.1725
51.0413
49.5385
46.6383
50.5749
50.0807
50.9411
59.2788
48.3973
45.4794
57.3106
56.4216
73.1643
48.6189
49.9557
46.4536
45.3743
109.725
53.6655
47.2207
44.8894
45.3143
46.8555
44.8338
44.7261
44.7504
44.6999
46.2641
45.9654
44.8343
44.7102
45.2853
45.0356
46.3237
45.116
46.5804
46.471
45.9372
45.8556
46.2138
46.3527
46.7182
98.4045
113.587
121.554
46.7737
293.004
131.877
46.2684
74.9482
56.5391
48.581
81.8241
150.647
1281.94
49.2612
47.181
86.6761
130.45
49.1847
48.6648
53.8537
69.4252
59.2422
55.4577
54.4847
52.2791
51.5304
97.7151
90.8027
103.13
56.8351
55.2136
58.7109
45.641
66.8676
47.1977
46.2317
77.6764
63.8381
47.0537
85.102
46.8526
48.7453
76.9521
101.625
46.41
72.8199
90.9047
135.543
45.5077
106.03
61.2793
73.327
45.411
53.8264
121.711
47.4547
68.1754
79.7826
51.156
46.1791
45.3209
47.2232
45.1718
45.7009
52.4528
127.971
111.827
58.7101
79.4887
101.418
109.768
97.3446
47.7543
96.9571
60.771
137.98
162.939
79.7528
57.0328
108.034
88.6461
53.3785
54.1453
51.1302
45.0742
48.9719
49.5405
86.5386
53.7049
46.3938
128.909
46.4146
46.9214
71.8675
50.0082
46.2168
155.931
95.2019
47.6263
47.1992
49.2086
46.771
99.5647
45.9096
46.8164
46.7177
244.715
73.2942
45.4791
45.8615
45.7533
45.5453
45.7412
227.051
45.4912
224.728
45.5004
643.428
353.118
46.6972
1570.03
1494.65
50.0475
569.651
63.796
46.3472
691.244
94.3113
954.362
946.052
1317.43
149.077
539.097
686.856
1377.84
65.3898
488.133
71.4917
95.5755
118.847
54.6219
83.5044
90.6243
46.5829
51.6216
225.512
155.18
87.8441
64.3351
140.109
1000.44
313.538
80.3995
53.1286
53.3459
49.7304
51.3325
105.864
45.3632
46.3441
46.2144
45.2803
44.8979
46.4137
47.7738
1151.19
89.6259
62.9116
106.867
86.6909
47.5885
50.1712
56.3448
45.5661
46.0559
44.9556
78.536
45.5781
48.203
105.357
58.1237
44.6275
45.0685
59.5149
48.0322
74.099
46.3542
106.604
46.7311
46.5427
46.933
47.0848
52.4164
47.2175
54.0554
172.353
78.9622
49.5854
51.1225
127.787
55.9009
48.1055
54.5077
47.0107
87.8786
46.9629
47.2349
46.8037
70.0079
70.8261
55.7041
68.4837
85.7887
46.048
51.2589
46.2128
1066.76
47.4942
45.6859
48.346
46.8993
78.4546
54.2988
48.0825
45.9161
51.9439
186.596
47.0249
63.5522
45.2967
81.4816
49.2697
48.4285
1145.2
77.5677
55.1745
103.958
50.6373
63.8506
62.1946
78.0822
47.2886
136.037
46.4952
49.1042
1284.26
48.5215
120.318
125.87
115.294
128.482
83.3456
83.8744
84.722
122.353
95.7743
87.6684
64.092
68.2734
114.719
50.6393
46.1261
47.4594
47.9822
111.054
48.2165
45.3529
45.0228
45.813
45.0574
46.6067
46.3046
45.5173
52.4183
50.9824
54.738
55.6941
50.2571
92.6889
85.3879
68.6858
72.7219
47.0951
75.1
50.4602
50.4004
80.5614
47.7354
51.4681
1242.44
69.3942
970.867
750.945
51.3774
61.5067
50.0528
55.2285
78.1234
47.2414
54.6625
105.769
1192.32
115.695
161.763
72.865
47.3902
98.0374
123.615
78.3463
377.089
50.2789
1248.53
130.852
477.345
1196.75
82.418
46.3153
74.8046
45.6924
83.3691
46.0969
48.8942
50.1026
60.9892
110.435
103.326
67.1691
54.7285
50.5719
224.392
48.8779
55.8657
51.1306
87.9937
101.294
54.7446
80.6962
52.8258
62.6803
123.34
68.17
98.4398
46.1815
48.8459
121.256
51.9337
52.3233
94.3377
53.2594
47.189
47.2756
83.0127
108.228
45.5094
769.457
223.622
48.3382
52.2127
934.559
160.959
1023.62
46.4062
117.772
104.182
48.2709
86.185
121.236
57.7117
47.2297
74.1457
48.836
70.5382
116.682
244.413
73.2598
95.8368
48.3465
45.9018
50.1905
47.6317
53.2492
53.1028
60.1199
102.453
46.5277
46.6844
73.4316
79.6628
58.9458
200.709
91.2494
84.3787
171.336
75.2026
55.9077
46.9566
54.2144
49.5221
45.4048
45.3999
63.6661
46.3011
56.7079
53.7071
578.368
49.4485
45.3796
253.093
55.2248
59.1373
150.289
138.255
102.63
96.1577
395.457
110.211
57.283
117.193
123.735
113.759
87.602
55.6279
126.747
46.7894
67.537
50.7229
50.1836
47.4074
48.5655
55.0007
49.4494
71.6779
48.1823
53.1525
54.1561
46.6444
59.0846
48.2121
130.729
48.4039
46.3787
48.2632
62.3589
55.9333
48.1886
68.0952
51.8487
96.8271
83.9119
117.921
73.3747
59.8369
69.554
53.4276
52.0682
46.5383
48.1829
66.4531
68.0824
149.173
80.7687
111.059
45.3682
46.1157
49.2689
52.5806
48.4822
48.3737
48.2031
45.1602
46.7556
46.059
91.2557
94.6996
65.623
63.766
59.0585
63.3069
46.0633
45.406
47.5809
54.3331
68.7528
55.2481
126.852
49.6353
48.7403
53.8528
46.8465
45.4855
45.6631
54.3963
48.1361
70.3199
46.6052
50.9632
45.4717
44.9206
45.7328
48.5434
47.8417
48.9143
62.1614
77.2807
48.8191
46.0554
48.2893
55.5878
56.6421
47.0825
47.3726
46.4208
46.853
65.5275
45.4843
46.2161
62.1777
104.346
45.7733
46.589
72.0505
45.3391
108.537
47.7792
46.8918
50.2912
71.0665
46.9905
50.2786
46.1333
46.294
47.8782
47.0159
52.4667
56.0112
1419.27
45.397
58.3788
650.651
84.4227
90.9552
315.539
222.344
74.8171
88.7767
83.0519
50.4067
47.6878
46.528
45.5694
55.2716
101.791
44.8494
51.0933
45.9541
58.9286
50.3375
80.0689
49.6526
70.663
57.8385
50.9998
44.7811
46.8536
46.3572
399.397
189.708
205.632
139.802
206.158
49.7896
44.7746
1424.34
64.3833
62.5988
63.7681
46.5575
71.3933
114.321
68.757
53.6906
46.0044
45.6054
105.654
48.0527
55.777
62.9246
55.5605
96.1511
47.1839
177.604
269.416
45.9415
63.0612
57.0894
216.511
46.1079
48.3992
52.4661
90.3722
48.0523
46.8992
52.5816
72.2525
45.729
45.4951
45.8476
45.452
50.4752
46.4242
44.9147
45.9084
46.508
88.6726
58.9416
58.2634
113.622
45.7633
45.1947
89.4592
71.9326
132.442
101.98
66.6063
153.568
56.2896
81.9093
48.4537
57.2128
52.5592
56.3668
59.2622
45.2783
48.9646
45.4369
67.3943
90.496
122.077
76.3844
113.173
55.3204
50.6247
120.79
64.2177
162.701
78.0958
90.194
48.6627
51.3311
55.948
88.926
803.839
50.1344
1057.63
1116.74
659.005
45.8997
47.0086
47.0918
1263.86
45.8967
47.5566
62.2409
51.2163
47.5802
55.4002
52.5911
49.4007
48.2874
50.2893
49.7716
47.6365
56.2341
251.091
210.402
47.6535
155.412
56.23
73.4154
69.113
71.8848
50.8206
1022.28
1066.84
990.943
306.476
185.799
1068.85
68.6421
59.5888
69.2972
1532.51
72.364
1049.15
58.5166
62.4314
46.3498
46.2023
46.3513
46.1475
46.0886
45.8049
46.6987
52.0373
61.1576
47.7834
45.5856
47.1065
51.9829
51.3231
45.1699
45.4383
45.5751
45.3137
57.7614
45.2101
45.6127
127.567
45.5274
45.4916
46.4326
45.1029
49.0026
82.1541
90.691
79.0613
48.5847
60.8395
46.3809
125.86
77.0453
54.1727
51.1801
96.2723
45.9292
63.1303
46.4465
51.0293
45.4017
59.0979
46.6751
56.9261
62.0809
52.3479
95.5429
47.3325
50.2521
46.9855
85.7454
68.5573
51.624
46.2833
47.7095
50.8017
51.8047
52.8802
57.8293
53.5634
52.7035
62.2488
68.1246
324.202
51.8726
49.9549
44.8792
52.673
48.3952
46.8901
46.5106
53.1345
48.0343
45.4926
45.2703
55.9737
47.3075
144.28
51.659
57.3499
46.6419
45.3343
47.5808
52.9819
45.2488
69.1252
45.3202
105.513
82.9214
49.6298
45.6544
75.1925
70.341
51.19
45.26
52.9724
53.4298
45.1716
45.9998
70.8625
69.4372
80.6301
113.057
77.6351
46.1273
126.663
46.7381
47.1842
84.4509
48.4445
130.355
45.5095
45.591
46.226
46.7114
44.9608
50.0445
60.3896
56.4034
56.6312
45.9546
56.641
83.3609
46.6496
47.0913
59.152
45.3501
49.4232
92.8481
46.0489
44.9488
45.7292
44.8949
46.4297
46.9404
51.7959
90.7399
52.7363
60.1137
58.1548
61.9861
52.1486
45.5058
51.6848
45.0001
44.9289
98.6945
48.5412
47.7568
51.8865
46.5122
47.0609
48.6206
75.4293
156.852
63.8068
157.554
687.749
1225
48.5455
44.8992
45.5573
45.1402
50.7655
85.4628
68.5693
51.9874
72.1319
132.389
97.7038
45.0429
58.0769
933.794
525.906
46.4268
419.072
60.3293
57.9613
49.5433
1116.42
1225.17
1018.35
44.7032
51.252
1249.86
1232.8
44.6367
44.8244
49.5675
68.4341
57.2349
47.632
47.8441
67.1676
56.1874
45.3055
67.6372
586.421
46.5951
58.7337
46.675
49.1977
45.8274
46.7074
46.9438
45.5199
49.7691
101.279
48.1161
120.25
64.8346
55.8486
54.2351
46.9088
49.1667
45.9007
48.5556
48.9689
87.0895
79.2013
46.1167
59.0239
64.074
144.799
49.97
56.2149
54.1934
1143.44
47.1121
78.103
62.6733
55.2446
81.5808
74.5276
45.8658
52.1914
65.7731
48.9147
60.8365
47.6138
83.8248
63.7768
68.9247
243.749
51.1506
80.1535
91.6006
46.3152
47.8056
46.6027
53.6145
261.737
92.3623
48.3274
48.7725
75.7845
141.179
78.2443
47.5635
46.7504
50.0471
45.6393
62.5574
52.3055
62.6013
77.4227
51.0293
62.6399
56.8848
63.0941
52.9562
65.2518
113.833
453.491
54.9989
62.7668
58.484
46.885
47.2608
57.2124
135.501
75.0617
50.2425
48.7783
58.1954
51.0554
50.6513
59.6334
46.8562
47.1964
50.3392
50.1522
60.9843
162.367
57.4359
54.7386
50.9807
51.4407
47.9288
49.5634
46.5686
47.5512
47.2554
46.6138
46.5309
46.7867
51.1614
47.6139
47.0723
49.7925
47.5938
47.1679
79.6968
936.233
48.5854
47.0616
57.9149
48.1907
47.1735
926.364
56.0716
914.041
46.9175
47.679
66.423
71.1044
55.0717
84.3296
77.1418
68.2902
54.1819
65.6318
47.45
46.9711
104.392
66.6665
50.9766
48.7483
71.9613
46.4981
47.3093
106.633
47.9174
45.8961
46.8986
47.2024
47.683
47.044
46.9626
46.66
54.1629
47.0317
46.422
46.4496
45.4294
46.0518
44.9049
46.1513
46.1417
50.1275
54.947
79.0874
57.1049
56.2513
72.3426
47.2649
45.028
71.3286
45.742
45.9457
57.458
48.4596
377.202
55.237
54.9309
53.8553
49.4052
177.075
202.204
136.647
92.802
53.4365
113.226
50.4204
46.8414
93.8539
48.3091
246.639
47.1494
47.7028
106.257
54.4607
47.349
71.4171
45.4587
50.839
100.793
52.7777
52.2918
49.1575
45.4102
45.9703
375.983
52.7157
51.7476
45.1965
51.6991
45.4989
110.791
49.969
45.6588
50.6361
46.7367
183.998
68.0118
57.7255
58.6127
1404.17
229.463
47.4693
51.7873
57.079
45.8791
61.1275
64.6128
53.5378
45.7367
47.4786
54.0831
57.6035
58.6848
72.5601
51.1611
48.6531
54.8285
54.4069
46.1084
66.4364
73.3331
83.5776
46.1391
45.4468
89.5765
45.8477
47.0534
47.9206
176.196
1437.3
47.1274
57.3993
44.7051
59.1091
50.5392
52.163
46.4563
173.708
60.52
100.204
1354.21
61.9341
81.5413
656.617
1310.59
255.98
201.785
78.6669
402.621
45.6753
50.3474
44.863
46.9869
45.5674
202.793
45.6774
50.5906
51.7204
49.7415
48.7879
46.4619
46.5631
57.4999
46.237
46.0905
63.9836
48.4628
525.742
73.6151
535.204
72.0533
156.899
56.0096
84.5098
62.3014
1146.85
59.6012
82.8702
215.744
794.63
258.69
410.459
315.709
59.3765
266.528
54.2897
919.018
161.039
65.3956
64.5935
57.4135
66.6385
116.113
54.4011
401.718
51.8059
65.4282
59.3389
133.451
81.2724
228.701
83.173
889.668
563.131
178.227
84.4624
53.1334
55.3216
97.273
55.0424
50.7711
47.1144
52.6058
59.4171
46.4834
87.1309
145.203
92.7057
49.6931
76.1023
47.7462
53.9918
46.9098
54.4914
47.8812
52.9202
127.489
510.84
235.065
79.2905
101.109
277.645
86.0012
188.69
47.6591
57.6985
47.167
100.874
92.5434
47.4328
45.8739
48.8075
45.955
51.3861
74.3213
50.8364
53.5003
57.451
44.9436
62.8881
46.8639
52.4795
49.7423
67.1662
139.046
74.349
122.409
46.8835
121.688
103.235
78.0966
58.3159
46.0416
47.0339
81.4254
61.5016
52.4198
48.6941
50.0937
137.459
116.72
93.6054
124.528
157.945
128.491
81.6844
70.3695
46.748
46.1997
53.4551
55.4514
76.8798
48.0826
46.0719
77.3207
64.8437
122.277
54.4494
104.848
72.0627
79.8885
123.917
118.579
50.7715
49.8199
77.4114
99.3081
75.1806
73.2705
62.1006
61.2066
78.4058
71.725
45.9262
53.1088
50.1328
48.9557
46.9982
62.4541
87.5731
65.3095
96.3016
45.6321
53.5263
67.7236
64.5565
57.9944
56.4533
91.1108
57.7471
56.5391
50.938
58.5599
51.485
50.0386
47.4378
1041.62
377.985
930.225
933.641
46.1417
100.295
96.8912
56.3621
101.345
96.0774
98.7405
72.7619
52.181
51.7425
51.8437
86.1372
51.0377
103.843
56.085
48.5727
56.9875
61.4653
100.342
58.7701
49.0578
88.2356
53.805
52.1448
56.0016
62.7066
47.309
46.9962
138.58
47.0864
46.3598
68.4094
177.808
84.322
100.989
600.292
48.1414
75.0893
232.841
801.839
218.069
206.068
200.253
1418.94
327.564
487.412
91.0395
59.0116
47.2392
47.5172
47.9144
1060.56
45.8799
47.1819
1163.7
46.0002
1245.92
82.3928
48.634
45.1293
45.4363
47.6472
47.4841
45.7035
45.0664
45.2972
45.1761
46.9173
45.2817
45.0913
54.1291
49.5835
50.7513
57.1755
57.7355
58.6893
44.9811
49.7443
46.46
87.5747
99.2478
47.7778
45.9816
47.1593
46.8077
49.9924
46.2295
135.834
45.994
45.0042
45.0696
55.0958
92.0145
46.9079
77.7346
117.052
76.7836
51.8253
49.663
44.9832
45.1973
45.3143
48.3755
48.4557
45.9239
48.3199
48.332
45.575
45.4748
46.3527
46.1354
46.5985
47.8698
47.4111
53.5961
49.5103
48.9227
45.6823
50.9812
46.9259
47.5484
45.1782
52.1613
128.134
44.5548
47.4577
56.5368
630.522
101.713
57.4714
116.161
51.5322
74.3486
45.0428
56.6081
46.1091
47.2156
45.9675
45.5624
56.6455
46.9926
45.9901
129.517
49.9485
55.5895
47.1332
46.5902
46.558
49.2587
48.6988
97.1544
96.817
88.6792
122.171
51.3625
45.7043
55.4513
615.908
125.731
48.7657
46.9863
48.0434
105.551
91.4125
46.1941
1098.68
71.1628
46.502
47.5175
45.736
46.6592
46.0664
48.3495
49.2289
100.034
1158.62
46.2007
884.853
56.4042
46.2104
57.2203
71.1144
46.8461
55.5167
82.4669
53.5269
45.8402
1295.78
46.7574
46.7956
47.4605
71.9749
50.5452
80.8704
1254.4
553.796
940.549
215.146
264.19
1114.06
150.973
48.5132
46.108
606.92
46.0599
91.3435
72.2557
62.5679
100.27
98.9673
63.2204
46.6577
46.4187
46.1709
52.3272
76.3182
89.6042
52.0405
53.3052
46.369
47.9314
95.5619
48.7386
46.4881
129.64
61.2004
75.5767
45.8465
49.25
47.0832
51.8364
46.3214
47.0577
49.1868
86.9868
56.9901
46.3307
46.4195
57.1765
114.615
95.7245
97.5481
48.3748
45.8152
47.1328
57.382
45.2722
45.2898
54.7932
48.6851
45.2762
914.611
56.6232
45.7499
58.1831
70.1239
77.6268
58.3448
50.7517
47.0776
50.2056
48.9753
48.0031
60.3312
54.3534
46.3071
55.2729
76.5017
119.794
442.785
56.9837
52.8861
51.6776
63.21
48.1696
51.3512
47.2966
79.4817
47.2234
154.281
51.6749
49.8273
121.822
107.708
1274.2
1237.1
425.795
46.5946
84.9326
62.311
53.4963
49.8397
50.5203
48.4905
59.6601
62.5735
91.5588
57.3601
53.2113
97.9111
72.9219
51.4345
73.5953
61.7386
117.385
1475.19
60.6325
49.2139
49.7417
64.5489
269.461
54.4696
56.5783
87.0923
59.8556
56.9124
51.054
348.002
48.2788
47.9975
47.7882
46.6848
46.8372
49.2737
45.959
97.2115
48.8299
98.5258
63.7451
81.3383
356.052
75.6451
48.9324
51.5437
48.8641
53.4569
46.6959
48.2736
51.9032
47.048
47.5969
56.4259
45.616
97.1487
46.0502
46.191
47.4116
47.9816
45.4539
46.681
51.0016
61.1471
50.2143
48
46.2187
45.5807
45.9549
45.89
45.8596
47.7545
46.6546
46.0345
49.6954
52.0984
45.1743
46.0138
79.4159
45.5629
48.865
48.9541
119.07
47.4271
49.1231
46.7793
45.1534
69.7588
70.3419
46.5149
63.8845
53.0448
46.7015
46.2134
48.8386
48.6401
46.593
48.7073
105.441
46.7739
58.6719
46.1705
48.822
47.6602
48.3376
62.8906
309.234
47.8378
58.2623
46.3878
52.7002
55.655
61.4183
45.3747
45.5481
52.4085
46.9331
46.9616
45.0527
47.4175
74.8099
1143.91
45.6728
51.9418
44.8134
44.9604
45.0608
45.9381
44.8492
45.0523
44.8874
101.84
53.8015
47.7899
46.5623
46.2583
47.1269
48.4699
48.0561
100.534
57.7541
52.5122
53.7566
49.2301
61.8698
46.906
46.5845
51.9044
45.7653
46.7619
60.5644
53.2351
47.4695
44.8146
1315.69
48.3655
47.3751
1472.6
47.6824
55.5292
49.9363
297.52
49.3826
46.1571
100.103
104.863
162.485
52.5782
761.675
1040.62
45.0136
49.9893
57.262
45.0194
47.2386
190.071
51.9448
50.167
64.7133
59.5448
987.229
61.6878
76.6168
50.9803
50.551
249.403
177.952
152.234
47.7848
1186.26
313.156
273.539
332.16
185.793
151.36
48.0256
47.2585
48.449
50.391
46.4333
46.1624
46.0381
45.8866
360.368
46.372
55.8905
46.707
46.2642
46.401
49.1913
47.4139
47.0061
46.3968
48.373
45.3709
50.6907
45.7371
45.933
46.1115
45.6
45.4631
45.5633
44.7995
46.5917
50.3693
85.8406
44.6357
52.0654
68.9047
100.423
47.8591
109.782
89.2588
79.4107
90.2137
47.6205
47.9493
47.2402
55.6791
63.2167
145.949
85.6389
48.65
62.034
197.106
582.557
559.623
438.013
57.3683
48.4996
51.3972
48.3862
47.4667
47.3157
1248.28
234.818
46.9866
47.5468
924.301
47.2428
72.4569
47.3164
46.4354
46.6843
46.8381
48.0321
63.7283
55.9514
58.5462
66.0901
59.9486
48.1963
47.9938
58.8422
47.5356
47.5132
49.2049
54.0994
305.386
69.7586
261.211
48.876
51.0569
47.4318
47.9643
48.0282
47.3241
46.3163
45.8722
46.266
46.6379
46.4725
45.6261
44.7101
44.9162
47.6919
46.549
46.5606
48.1474
45.8905
45.5981
56.151
87.1221
96.8042
50.848
78.0177
133.127
161.092
163.641
98.9882
89.32
125.068
119.185
79.1496
46.6139
54.6412
98.4971
91.9564
64.5699
57.5344
54.8515
54.5647
58.733
61.1096
62.1155
61.0323
103.297
59.8406
54.4607
56.7922
45.3119
121.606
48.373
68.4963
135.208
58.4573
64.7956
58.5561
107.106
55.9806
54.6561
87.2649
57.5351
52.576
56.0523
55.1338
54.9967
127.711
120.576
49.483
48.8578
59.6977
56.2659
54.4569
992.433
730.768
377.368
762.492
761.68
54.7589
56.8821
57.0176
639.021
51.4161
55.7618
46.0968
50.9203
45.6994
45.4158
63.5903
52.1391
47.4451
62.9045
48.4688
52.5017
49.2079
79.205
45.6091
67.0904
105.962
95.4402
63.1545
46.4062
50.5861
91.9659
85.56
60.8103
60.9049
47.2261
45.4444
48.4068
55.9865
45.1789
64.4161
66.4896
45.8013
54.7283
53.819
113.885
76.7191
110.833
58.4795
46.7236
45.8921
45.2614
49.4501
49.0939
46.7243
49.0427
61.9305
54.2488
49.691
102.934
50.7504
72.5414
55.3752
1055.72
71.9176
66.5715
45.6329
57.2741
45.2666
44.9487
45.1575
63.0305
45.4712
1335.45
49.5096
51.7592
45.7923
50.3164
98.4702
45.3326
50.1643
50.8697
46.412
49.6722
92.4475
106.939
128.754
91.0666
53.581
47.3423
48.2966
47.1641
52.8936
50.0129
49.5238
73.9371
70.9254
53.2047
52.1422
47.2782
51.5548
47.2952
45.9687
56.1627
48.3498
45.6914
48.5134
47.1682
45.8167
45.845
45.8941
45.7198
45.9674
47.734
47.3346
48.1515
49.7047
48.0561
44.5489
47.0633
55.8431
85.0911
172.1
50.5729
50.3116
46.5691
47.9885
47.5758
46.0781
51.2453
50.7199
47.9128
46.8159
50.6566
115.848
58.5803
51.0095
50.33
51.4346
49.9059
44.9797
45.0797
50.9468
47.2573
45.4213
46.3605
55.9256
99.1525
554.355
52.1419
1379.81
80.3502
46.1806
54.036
46.7269
47.4086
45.7156
46.3287
47.3093
51.7626
56.3287
67.6912
68.427
55.4801
54.3372
45.3035
47.5579
46.1158
123.335
104.202
45.3701
50.1645
46.756
45.5128
45.7137
47.5854
50.5287
80.8772
55.8306
61.4446
56.8491
1412.29
50.9686
91.5715
84.4904
864.77
65.5861
680.067
47.7558
46.2374
45.078
48.6152
62.8167
54.6615
47.7344
47.4321
47.5859
55.2387
47.1925
168.222
101.164
54.7643
49.0077
892.752
52.1095
761.625
68.4104
58.7081
104.739
86.0911
50.5581
47.6551
47.3279
46.4839
63.7907
71.2091
608.681
86.8108
72.1607
59.6185
49.9205
86.4716
65.2036
60.1317
95.4714
60.3393
50.7757
53.0024
47.1905
51.687
48.9032
49.7701
124.692
63.9132
47.5275
50.1876
49.6878
55.0455
47.0626
94.2714
51.05
46.9775
58.7517
56.4107
49.0803
64.3273
68.4743
45.9656
54.9027
55.9648
53.861
52.825
46.2364
46.8883
73.506
48.2676
69.3088
73.5574
45.5401
46.1113
46.2735
46.7676
46.5996
46.3021
48.1665
48.2477
101.261
55.8896
53.1932
51.0468
47.0783
97.9793
93.6883
51.8908
132.358
106.406
113.366
46.9712
112.514
63.4237
168.338
67.8499
50.8601
80.5761
103.601
76.1274
67.1365
130.949
119.491
117.989
46.1537
47.299
62.0176
44.9435
58.9261
60.8554
50.8221
60.0345
45.7544
46.9549
49.555
47.1143
49.7779
46.471
46.7243
46.261
45.6296
45.1694
49.6517
49.9121
44.562
46.7956
48.9462
923.363
45.4309
48.9435
45.2344
45.2795
46.1963
46.466
45.6375
48.4888
52.046
46.3875
50.7056
46.5885
55.3182
185.708
56.1295
50.8742
93.5964
45.9806
45.066
45.5141
52.0102
45.8991
46.7962
46.8099
46.0491
45.1812
45.298
55.9199
48.0258
63.6782
50.8688
50.1401
47.061
48.0367
46.8665
48.1972
51.1319
50.218
54.4605
50.1877
51.677
60.5448
111.121
66.0712
61.2906
50.4387
124.804
44.9069
44.5657
74.2876
45.0558
45.6459
78.0411
52.1799
49.4041
54.9134
54.6931
178.242
218.387
51.399
95.7038
57.3348
60.1734
46.5213
47.1862
46.1413
64.0298
48.6713
240.703
993.768
937.976
48.6548
165.811
48.0088
48.0071
49.8781
48.0946
55.334
60.8357
53.9358
52.4977
50.8314
60.4588
51.4568
47.2863
46.7294
45.0499
47.2653
51.2442
47.4218
47.21
46.4981
45.8159
44.8652
45.2625
48.4509
44.9454
44.6549
44.6347
52.5907
86.5647
48.8243
151.804
80.3911
53.4106
46.8146
1201.51
979.893
181.854
1103.59
83.6546
1302.01
140.958