/*--------------------------------*- C++ -*----------------------------------*\
| =========                 |                                                 |
| \\      /  F ield         | OpenFOAM: The Open Source CFD Toolbox           |
|  \\    /   O peration     | Version:  2506                                  |
|   \\  /    A nd           | Website:  www.openfoam.com                      |
|    \\/     M anipulation  |                                                 |
\*---------------------------------------------------------------------------*/
FoamFile
{
    version     2.0;
    format      ascii;
    arch        "LSB;label=32;scalar=64";
    class       surfaceScalarField;
    location    "0.0440925";
    object      phi;
}
// * * * * * * * * * * * * * * * * * * * * * * * * * * * * * * * * * * * * * //

dimensions      [0 3 -1 0 0 0 0];

oriented        oriented;

internalField   nonuniform List<scalar> 
7516
(
0.00202026
-0.0658984
0.0638781
0.00417736
-0.00923372
0.00516991
-0.00011355
-0.0150426
-0.00466856
0.010388
0.00932314
-0.0285939
-0.00331416
0.0103204
0.0215877
0.000355012
-0.000683735
-0.00054828
0.000877003
0.0408533
-0.0434082
0.00255486
0.0258295
-0.00754929
0.0175012
-0.0357815
0.00548451
-0.0101391
0.00870158
-0.004047
0.000422116
0.000641675
0.00949549
-0.0105593
0.00236527
-0.00164154
-0.00118474
0.000461008
0.0053177
-0.00159319
-0.00478284
0.00105832
-0.000358744
-0.00441146
0.0102547
-0.0050316
-0.00344772
0.0175577
-0.0506943
0.0255639
0.0742401
-0.0491097
-0.0151405
-0.013539
0.013726
0.0149535
-0.0135522
0.000289175
0.0265933
-0.0133302
-0.0168654
0.00759486
0.0244043
-0.0151337
-0.000529904
0.00302547
0.00356287
-0.00605843
0.0484597
-0.03404
-0.00108502
-0.0133346
0.029747
-0.0156732
0.0239068
-0.0379807
-0.00161388
0.000176656
0.00172643
-0.000289203
-0.00160558
-0.00165946
-0.000914414
0.0586012
-0.000688393
-0.0579128
-0.0358077
-0.000180002
-0.00808921
-0.00144811
0.0017373
-0.000161159
-0.000128026
0.00103866
-0.00858369
0.0109537
-0.00340871
-0.00363319
0.0200762
-0.0315835
0.0291023
-0.0607896
-0.0176453
0.0493326
-0.00144226
-0.000572031
0.000411899
0.00160239
0.0088441
-0.0311007
0.0141553
-0.000431489
0.000781766
0.00109554
-0.00144582
-2.78689e-05
0.000104308
0.00127541
-0.00135185
-0.034242
-0.00490523
0.0384124
0.000734768
-0.000461125
0.00172832
-0.00316768
0.00190049
0.022169
-0.0220708
-0.0107458
-0.00318321
0.00484997
0.00907909
0.000164342
-0.00361339
0.00288232
0.000566726
-0.00867449
0.0172599
-0.0126582
0.00407278
0.00297121
-0.00345623
0.00686118
-0.00637615
-0.00341673
0.0027944
0.000786674
0.000303036
-0.00736452
0.000682267
0.00637922
-0.000519404
0.00719839
-0.00693935
0.00026037
-0.00097468
0.000181712
0.00679974
-0.00600678
-0.00182951
0.00204258
-0.00181864
-0.0431803
0.00345722
-0.00674288
0.046466
-0.0384028
0.0219548
0.0128149
-0.0919192
-0.00650424
0.0984235
0.00273302
-0.00175329
-0.00110463
-0.00176429
0.0362149
-0.0452653
0.0108147
0.00222351
0.00212952
-0.00813021
0.00377718
0.0357228
-0.00414988
-0.0132856
-0.0182872
-0.000499474
-0.00493245
-0.00235361
0.00478322
-0.00537749
0.00262221
-0.00202793
0.0765368
0.094027
-0.0670191
-0.00405855
-0.000861581
0.00473624
0.000183893
-0.0193744
-0.0111669
0.0331073
-0.00256601
0.0510855
-0.0511007
1.51889e-05
0.00337888
-0.0006207
-0.00506195
0.00230377
0.0473661
1.9905e-05
0.00225813
0.000241263
0.000693671
-0.00319307
0.0103668
-0.044514
0.00671583
0.0274314
-7.9533e-05
0.0570295
-0.05695
0.0343671
0.0146776
-0.00799712
-0.0410475
0.0360869
-0.0382619
0.00124613
0.000928814
0.00966842
-0.0217371
0.0108217
0.00124696
0.000135193
-0.00281632
0.00123887
-0.00227794
0.00141682
0.00141018
-0.000549052
0.000169411
0.0491142
-0.0492836
0.00137022
0.00374768
0.000170033
-0.00528794
0.000507812
5.79431e-05
-0.00481332
0.0573776
-0.00765462
-0.0497229
0.00270646
-0.00650207
0.0032657
0.00188135
0.00270798
-0.00300134
0.000181948
0.00935784
-0.0119933
0.00245348
-0.00571819
0.00306378
0.00279826
-0.000143853
0.0080131
-0.0214146
0.0162805
-0.00287896
0.00314829
-0.00334401
-0.00391596
0.00411167
0.0354569
-0.00514391
0.00580573
-0.0361187
-0.00330236
0.00325903
-0.0151138
0.0151571
-0.00361851
0.00169701
-0.000356439
9.84195e-05
-0.00107207
0.00412194
-0.00876405
-0.000916962
0.0100003
-0.000319291
0.00608561
0.00623495
-0.0269959
0.0146754
0.00521828
-0.0127411
0.00350231
-0.00632222
0.00134189
0.00208729
0.00289304
-0.0727731
0.0723084
0.000464671
-0.00306139
-0.0868901
0.0171784
-0.000260618
0.0007682
-0.00385159
0.058327
-0.0584991
0.000172088
0.000556134
-0.027969
0.0857398
0.000904553
-0.00360524
-0.000346993
0.00304768
-0.00309536
0.00306078
0.00274104
-0.000535915
0.00122101
0.00168018
-0.0021663
0.00404429
0.000497882
-0.00237587
-0.00930898
-0.00379249
0.00858692
-0.00355967
0.0110707
0.0033981
-0.0109091
-0.0341567
0.0666422
-0.0492833
0.0167978
-0.0145665
-0.00105718
0.00821918
-0.0573193
0.0170788
0.0452888
-0.00504825
0.0208961
-0.08972
0.0456576
0.0231663
-0.00104226
0.00900803
-0.00758222
-0.000383547
-0.00414436
0.0112057
0.0135115
-0.0205729
-0.00627672
0.00122923
0.00749959
-0.00245209
-0.0210752
-0.000266594
0.0120328
-0.00238515
0.0402571
-0.002415
-0.00501252
0.00945419
-0.000454135
-0.00398753
-0.00544169
0.00534734
-0.000880327
0.00656519
-0.00460379
-0.000266885
-0.00169452
8.43911e-05
0.00174382
-0.00157963
-0.00259862
0.011264
-0.00816937
-0.000496032
-0.00195516
-0.00120559
0.00244535
0.000715393
-0.0133227
-0.00889445
0.0104834
0.0117337
0.00130548
-0.0183115
0.00313695
0.0138691
0.00263017
-0.000284285
-0.000684068
-0.00166182
0.00195939
-0.000557641
0.0125994
-0.00388455
-0.00725832
0.0172158
-0.00945393
-0.0218766
0.0543355
-0.0544027
6.71553e-05
-0.0257832
0.0957239
-0.0156051
-0.00218851
0.00268725
0.000405813
-0.000300386
0.00212311
-0.0019441
0.000121375
-0.0516123
0.0512943
0.000318024
-0.0461953
0.0602471
0.0150505
-0.0744989
0.0106828
0.0122038
0.0638813
-0.0289821
0.013977
-0.0488762
-0.00164268
-0.000264331
-5.51909e-05
0.0019622
0.0508476
-0.00165491
-0.0491927
-0.00022908
0.000720567
-0.00213417
0.00154553
0.000540414
-0.00231502
0.00173394
-0.00168773
-0.00060602
0.000559811
-0.00259233
0.00252706
0.00162629
-0.00156102
0.00195571
-0.0034675
-0.000443368
0.00134815
-0.00204877
-0.00189171
-0.00280278
0.00166542
-0.0013412
0.00247857
0.0616526
-0.0617594
0.000106884
-0.0063585
-0.0094688
0.0774799
-0.0090647
-0.0477908
-0.00396626
0.0608217
-0.0554776
0.0567797
-0.000424631
0.086393
0.0186325
-0.0714443
-0.0335812
0.00149797
-0.00126143
-0.00166707
0.00143053
0.0484078
-0.0678525
-0.00844545
0.0278902
1.61777e-05
-0.00740483
-0.00330374
0.00116602
-0.0014808
-0.0520063
0.00019618
0.0518101
0.0514038
-0.0495243
0.00222001
-0.0018522
0.0419208
-0.0093017
0.0962236
-0.128843
0.00465233
0.000925221
0.000163609
0.00184704
-0.00293587
0.03176
-0.0660694
-0.0264803
0.00207777
0.00421341
-0.00399798
-0.0022932
-0.0138786
0.00212136
0.0103205
0.0014367
0.0437415
0.0129172
-0.0800922
0.0234335
0.000211155
0.0435304
-0.00180317
0.00585348
0.00333079
-0.00738109
0.0164794
-0.020837
-0.0150167
-0.00173418
0.000394314
0.00287848
-0.00153861
-0.00130318
0.00183754
-0.00226854
0.00255859
0.000643575
-0.0015914
-0.00161076
-0.0124545
0.00935837
0.0100889
-0.00699281
0.0147653
-0.00173042
-0.0119387
-0.00109619
0.0077337
0.000875357
-0.00849248
-0.000116575
0.00408373
-0.00480915
0.00416805
-0.00344263
0.0078816
3.37935e-05
0.0068499
-0.000714593
0.00299125
-0.00176056
-0.000357209
-0.00100242
-0.00389577
-0.00155335
2.97312e-05
0.00541939
0.00460453
0.000412023
-0.00105305
-0.00396351
0.00164255
0.000837475
0.00237106
-0.00485108
-0.00424362
0.00199041
-0.015656
0.00577355
-0.0242161
0.0340986
0.0329458
-0.038933
-0.0181051
0.0240923
-0.0194154
0.0132708
-0.00697082
0.0131154
-0.0183579
0.0100232
-0.00732127
-0.00805902
-0.00059257
-0.00970634
-0.0391589
0.0575457
-0.00733819
-0.0110486
-0.0384924
0.0194207
-0.000343708
-0.0245939
-0.00889948
0.0125071
0.0209863
0.0132956
-0.0188422
0.0528106
0.0266705
0.00101947
0.0527311
0.00495617
0.006834
-0.00405648
0.00179498
0.00152846
-0.00318825
0.0125367
-0.00594758
-0.000586372
-0.0060028
0.0304178
0.00719055
0.0101191
-0.0477275
0.0411545
-0.0247758
0.0201937
-0.0365724
0.0300638
-0.0495204
-0.0197023
-0.0111437
-0.0291256
-0.00296578
0.043235
0.000979067
-0.000113976
-0.000865091
-0.0303047
0.00111876
0.00713897
0.022047
0.0179417
0.0213811
-0.0177545
-0.0215684
0.00138171
0.00161972
-0.00346255
-0.0103366
0.0296107
-0.00812953
-0.00589747
0.00498884
0.000708397
-0.00973253
-0.0212806
-0.00275595
-0.00252323
0.0147017
-0.00942254
-0.0677212
0.0780005
-0.0166378
0.000244678
0.00448005
-0.00421692
-0.00249955
0.0184202
-0.00253645
-0.0133842
-0.00843156
0.00522672
0.00155134
0.0016535
-0.0496056
0.0558341
0.0240534
-0.0302819
0.00238796
0.00395704
-0.00279465
-0.00355034
-0.0188103
-0.0496759
-0.0208569
-0.00489521
0.0293608
-0.0497049
0.041467
0.00309392
-0.0300191
0.00498784
0.00141808
0.000142337
-0.00365767
0.00209725
0.00532135
-0.00445746
-0.00061921
0.0457736
-0.0620554
0.0081939
0.00808788
-3.3445e-06
-9.33008e-05
-0.0134956
-0.0116205
0.0252094
-0.00374442
0.00325152
0.00186742
-0.00137452
0.00132902
-0.00103662
-0.00403682
-0.00499766
-0.00171804
-0.0076555
0.0143712
-0.0718943
0.0566445
-0.0764347
0.0916844
0.000721894
-0.00111077
0.00253612
-0.00214725
-0.00229395
0.0231736
-0.0102968
-0.000733322
-0.00270115
0.00483213
-0.00139766
0.00469828
0.013118
-0.0169192
0.0345897
-0.0454711
0.00938098
0.00150041
-0.00169762
0.00239303
-0.000860325
0.000164916
0.00293415
0.00291989
0.00232418
-0.00817823
-0.00295566
-0.00878717
0.000374777
0.011368
-8.46409e-05
-0.00216405
0.00180226
0.00044643
-0.011305
-0.00347892
0.00689541
0.00788855
5.56015e-05
5.94043e-05
-0.00137191
0.0012569
0.00016779
-0.0022984
0.000720319
0.00141029
-0.000298128
0.0017128
-0.000230975
-0.0011837
0.00315995
-0.00100496
0.000403604
0.00151119
-0.00175371
0.000790455
-0.00167678
0.000454839
-0.000771406
0.0011318
-0.00138451
0.00102411
0.000664025
-0.00116816
0.00050413
0.0019645
-0.00908103
-0.00183745
0.00895398
0.0069748
0.0131407
-0.0169624
-0.00315313
0.00126176
-0.00890092
0.00794219
0.00782765
5.12378e-05
0.000775807
-0.0086547
0.000616265
0.00116581
0.00189917
-0.00368124
0.00454551
6.7701e-05
-0.00677951
0.000947983
0.000429467
-0.00322298
0.00184553
-0.00169526
0.000609256
-0.000236092
0.0017789
-0.00212349
4.42058e-05
-0.00833511
0.00613674
-0.00177299
0.00481638
-0.00192027
-0.00219694
-0.0263135
0.00689718
-0.0151223
0.0345386
-0.00546729
-0.00543467
0.00376063
0.00714133
-0.0243016
0.0243303
-0.00514759
0.00511886
-0.00203901
0.0150896
-0.000451165
-0.0109139
0.0188665
-0.00527386
0.00558984
-0.0126762
0.00769552
-0.000609205
-0.00154372
0.00227651
-0.000498747
-0.000614835
0.00404162
-0.00292804
-0.0440645
0.0442757
-0.00270835
-0.0157639
0.0188035
-0.000331274
-0.00583895
1.66588e-05
-0.00154222
-0.00201038
0.00144929
0.000968149
0.00071855
-0.00197486
0.00197708
-0.0106406
0.00710873
-0.0438405
-0.00214974
-0.0545748
-0.00186228
0.000789062
0.00253139
-0.00145817
0.00249519
0.00205177
-0.0721887
0.0701369
0.00606332
-0.0229901
0.00362744
0.0132994
-0.00143539
0.0046002
-0.00214096
-0.00232791
0.00473512
-0.00165486
-0.000752354
0.011977
0.0071646
-0.0325523
0.0134107
-0.000869371
0.00172399
-0.00156921
-0.00311714
-0.000913111
0.00220526
0.00182499
-0.0030581
-0.0353915
0.0121423
-0.00633014
-0.00527883
0.00423685
0.00737212
0.0022381
0.00198899
-0.0029085
-0.00131859
-0.000678144
0.00130708
0.00076698
-0.00139592
0.00226865
-0.00274923
-0.00159055
0.00375553
-0.000103749
-0.00206123
-0.00173113
0.000212339
0.00149092
-0.00493441
-0.000200591
-0.0472762
0.00667775
0.040799
-0.00283815
0.00847585
-0.00422496
-0.00141274
0.00461631
-0.0159394
0.0696351
0.0102819
-0.0498532
8.79901e-06
0.000201309
0.0021339
-0.00234401
-0.00218732
0.00487487
0.00540384
-0.00809138
-0.000135092
-0.00024992
0.00130508
0.000254764
-0.000235451
0.000260049
-0.000279362
0.00105458
-0.00065322
-0.00163769
0.00123633
-0.0129961
0.00976679
0.00308489
0.000144425
-0.0511889
0.0597352
-0.003533
-0.00501332
-0.00488334
0.0101686
-0.00889463
0.0036094
0.0181225
-0.00400771
0.0107109
0.00189446
-0.0143213
0.00171596
-0.014687
-0.00188272
0.00248339
-4.91738e-05
0.0407466
0.00744313
0.000946389
-0.0491361
0.00155555
-0.00219985
0.000932516
-0.000288211
0.00112325
0.00110347
0.00044301
-0.00266972
-0.00878684
-0.00110035
0.00282265
-0.000113242
-0.00206691
0.00198846
0.000191696
0.000462311
-0.00561536
0.0027977
0.00235535
-0.000482729
0.000997166
-0.000376409
-0.000138028
0.00771724
-0.0112404
-0.0445839
0.048107
0.00852706
-0.000327672
-0.00932166
0.00112228
-0.00348091
0.000936836
-0.00149699
0.00404106
-0.00451992
-0.00187584
-0.00186874
0.0482547
-0.0352108
0.00105978
-0.0141037
0.0117822
0.0166588
0.008324
-0.036765
0.00131727
-0.00118049
0.00218944
-0.00232622
0.000197451
0.000716336
0.00253407
-0.00344785
0.066759
-0.0331286
-0.0594136
-0.00492334
0.00387361
0.00124718
0.00380044
0.00125348
-0.00433759
-7.15213e-05
-0.039013
0.0392175
-0.000132926
0.00221343
0.0015235
-0.00116144
-0.0025755
-0.0161963
0.00808368
-0.000835752
9.86454e-05
0.000860125
-0.000123018
-0.0114179
0.00195916
0.00566629
-0.0161775
0.00702337
-0.00384202
-0.0207479
-0.0130929
-0.00446464
-0.00484173
0.00148685
-0.00904814
-0.00110832
-0.00716194
0.00276748
0.00550278
-0.00236611
0.00284671
0.000153318
-0.000633921
-0.000761
0.000130391
0.000218631
0.000411977
-0.00252094
-0.000946393
0.00585528
0.00040015
-0.00834351
0.00605325
0.00189011
0.0086087
0.00254314
-0.0107517
0.0246477
0.0341765
-0.03361
-0.0252142
-0.0015993
0.00725643
-0.0196061
0.0139489
-0.0106723
-0.00185979
0.0108017
0.0119546
0.00398025
-0.0168771
0.000942241
-0.0462871
0.046441
-0.000153851
0.00558986
-0.0358602
-0.00275
0.0330203
-0.00109691
0.00177862
-0.00193033
0.00124862
0.0032224
0.000561268
0.00123279
0.0165419
-0.00137699
-0.0163977
0.0074031
-0.00154555
-0.0112176
0.00536004
-0.047967
0.0475424
-0.00886329
-0.00503702
-0.00804265
0.021943
-0.000770966
0.00335498
0.000917969
-0.00350199
0.00747937
0.00723535
-0.024756
-0.000721513
0.0041661
-0.00100247
-0.00244212
0.00310215
-0.000543626
0.00060213
-0.00316066
-0.00297895
0.00636745
0.0040146
-0.00467129
-0.00180473
0.0032598
0.00321622
-0.00599524
0.015446
-0.0301986
-0.0131126
0.000389506
0.0135985
-0.0104907
-0.0090599
0.011207
-0.00841768
0.00267491
0.00694868
-0.00418038
0.00693444
-0.00311281
0.00933521
-0.0134685
0.0063208
-0.00218753
0.00223603
0.00212571
-0.00352426
0.0133958
0.00291417
-0.00660849
0.0426954
-0.0134611
-0.0298053
-0.00643842
-0.0396206
0.0432383
-0.000335539
-0.000177728
0.000192707
0.000320561
-0.000603833
0.00146171
0.000966266
-0.00182414
0.000231187
-0.00118215
0.000189964
-0.0620087
0.060376
-0.0083992
0.0100319
-0.00884188
-0.00151182
0.0048864
0.00486132
-0.00727238
-0.00643082
0.00520151
-0.00111122
0.00408062
-0.00817092
0.00174045
-0.00109743
-0.00868496
0.00804193
-0.00591107
0.0135017
-0.00574897
-0.00184169
-0.00254141
0.000915994
0.0034204
0.00691215
0.00134707
-0.015547
0.00728774
0.0131119
-0.0120667
0.00586695
-0.00556376
-0.0456296
-0.0102448
-0.000990293
0.00767542
0.0159721
0.0125403
0.0222095
-0.0507219
0.0249421
-0.0518156
0.00290569
0.0239678
0.00342089
0.00958971
0.00237392
-0.0153845
0.00187431
-0.00376666
0.0113769
-0.00948457
0.0192195
-0.015036
0.0135662
0.00234825
-0.000878459
-0.0326473
-0.00468297
0.00980221
0.0241242
-0.00525505
-0.0286714
0.0426853
-0.0019781
-0.0422877
0.00158053
-0.00297762
-0.0588231
0.0618007
-0.0122939
0.00400074
0.0520225
-0.0437294
-0.0453296
-0.00277455
0.0451265
-0.00253061
0.02125
-0.0022318
-0.0164876
0.00346553
-0.0193978
-0.016715
-0.00361258
0.0216594
-0.0205774
0.0036008
-0.00213188
-0.00082535
0.00577666
-0.0052587
0.0107994
-0.0113173
-0.00299086
0.00309733
-0.00163356
0.00887499
-9.28216e-05
-0.0071486
-0.00101508
0.00185687
0.000227046
-0.00106884
-0.0377634
0.00657688
0.0979455
-0.0118474
0.00634918
0.00507239
0.000425834
-0.000911418
-0.00319409
0.00290918
0.00119632
-0.0132425
0.00125663
0.00110489
0.010881
-0.00142315
-0.00219018
0.00896876
0.00639832
-0.00509751
-0.0102696
0.000977418
0.0014485
0.00577712
-0.0051831
0.00373866
-0.00433267
9.72375e-05
6.63419e-05
-0.000163579
-0.00213974
-0.000584818
0.000928901
0.00179566
-0.0072347
0.00209593
-0.00873978
-0.00102412
0.00359101
0.0175093
-0.000396181
0.000771854
-0.00201721
0.0110604
-0.000662482
-0.0062588
-0.0041391
0.0129327
-0.0161451
0.00929795
0.00522761
-0.00786957
-0.003197
0.0025968
0.00276064
-0.00451381
-0.000843623
0.0342406
-0.0480967
-0.0259248
0.039781
-0.00540669
-0.0213129
0.00722529
0.0194943
-0.00128328
-3.52521e-05
-0.00118041
0.00249894
-0.0131434
0.0113141
-0.00114319
0.00472863
-0.00691296
-0.00097023
0.00315456
-0.00987562
-0.000832436
-0.003417
0.0141251
-0.00300523
0.00305329
0.00010997
0.0111121
-0.0116445
-0.0039785
0.000957571
-0.0106551
0.00451823
0.00517934
-0.0535811
0.09546
-0.000125891
0.000331975
0.000527855
-0.000733939
-0.0163671
-0.00304164
0.0164531
-0.00940719
0.000758503
-0.00459384
0.0116798
-0.00845903
-0.00334776
0.00012704
-0.0175923
0.00347194
-0.000408789
0.0145292
-0.00155699
0.00719275
-0.0105191
-0.000732456
0.0040098
0.00119858
0.00335525
-0.00856362
0.0329112
-0.014073
-0.033534
0.0146958
-0.0107518
-0.0150971
-0.00550523
-0.00448448
0.00294788
0.0113034
0.000759115
-0.000938421
-0.00237052
0.00254983
-0.00262554
0.000489858
-0.0135838
0.0157194
0.00274813
-0.00120179
-0.00104846
-0.00219051
0.00348622
-0.0111268
-0.00176656
-0.0214695
-0.0312212
-0.057474
0.00123504
0.056239
0.0110375
-0.0110707
-0.00496448
0.0328483
0.00251765
0.00677471
-0.0421407
-0.0052864
0.00300081
-0.00315609
-0.00045991
0.00160864
0.00405945
-0.00520818
0.0425521
0.0104539
-0.00471772
-0.0482883
0.057946
-0.0986027
0.0158808
0.0285835
-0.0226701
-0.0644277
0.0585142
0.00206083
-0.00507976
0.00964477
-0.00662584
0.0378589
0.0439931
-0.0561077
-0.0257444
-0.0291927
0.0280672
0.0260677
-0.00541143
-0.0022804
0.00695989
0.00907108
-0.0118544
-0.00417653
0.00652331
0.00450956
-0.0100753
-0.00188025
-0.00498533
0.00158094
-0.0228345
0.00680542
0.00212647
0.0139026
0.0215402
-0.0515762
0.00856648
-0.00394947
0.0109875
-0.02029
-0.00872846
-0.00245042
0.00237525
0.000931736
-0.00444671
-0.00274224
0.00519308
-0.00489844
-0.00457194
0.000788202
0.000688383
-0.00820839
0.0066644
-0.00105463
0.00608158
-0.063423
0.00166254
-5.07843e-06
-0.00034536
0.000334358
1.60811e-05
-0.00156708
0.00146388
-1.00426e-05
0.00310266
-0.000573187
-0.000260815
-0.00599269
0.0024969
0.00586684
-0.0019346
0.00119404
0.000428565
0.000311996
-0.00120495
-0.000956458
-0.000783735
0.00294515
0.011944
-0.0195569
0.00714213
0.000470726
-0.000417405
0.000229374
-0.00551407
0.00579975
-0.0031248
0.00138379
-0.00405874
0.0007402
0.00179672
-0.00156714
-0.000969784
-0.0057092
0.0114959
-0.00770587
0.00191918
0.0124354
-0.0082596
-0.00313719
-0.02238
0.0217783
-0.0132759
0.0138776
0.00382559
-0.00568526
0.00334331
-0.00148365
5.07886e-05
-0.0588739
0.00668999
0.00328933
-0.00509817
-0.00488115
0.00173683
-0.00239784
-0.000474911
0.00113592
0.0028511
-0.00481203
-0.00296241
-0.0114765
-0.00168525
-0.000353975
-0.00150126
0.00108059
0.000774648
-0.0039125
0.0029394
0.00269605
-0.00172294
0.000874672
-0.000399985
-0.00059842
0.000123733
-0.0142003
0.00790084
0.00596382
0.000335663
-0.00166275
-0.00945052
-0.00308706
0.00367055
-0.00089726
-0.00149605
-0.00233319
-0.000628214
-0.00227232
-0.00138581
-0.00227182
0.000870539
-0.000871047
-0.00310537
0.000296405
-0.0358666
0.00864975
-0.02639
0.0536068
-0.0849543
0.0441209
-0.0385435
0.079377
-0.00291268
-0.000546697
-0.000453122
-0.0853302
0.00239618
-0.00653962
0.00366655
-0.0176987
0.0205718
0.00433819
-0.0505944
0.0397166
-0.0556927
0.0514361
0.00859475
-0.00282341
0.0017167
-0.0012594
-0.00378182
0.000429534
0.0011262
0.00222609
-6.61236e-05
-0.000695438
0.00154333
-0.00154082
0.0017495
0.000549068
-0.000757746
-0.00195819
0.00192165
0.00178036
0.0410614
-0.0132987
-0.112442
0.0846796
-0.0814552
-0.0581984
0.0659384
0.0737152
-0.0835002
0.00611636
0.00722688
0.070157
0.0118709
-0.0543097
-0.000532365
6.97495e-05
-0.00149558
0.0152573
-0.00232882
0.0278182
-0.000647611
-0.00294912
-0.00621413
-0.00119584
-0.000183362
-0.00265741
-0.000183312
0.00157518
0.00126555
-0.00421811
0.007018
-0.0100321
0.00723222
0.00348753
-0.00989297
0.00496556
0.00933659
-0.0058371
-0.00846504
-0.00203524
-0.000333043
0.00733384
-0.00274455
0.00217936
0.00374611
-0.00318092
0.0126424
-0.0879813
-0.00538345
0.00353921
-0.00251383
0.00435808
-0.00305515
0.00305631
-0.00210082
0.00106693
-0.00202243
-0.00753119
0.00016804
0.00917061
-0.0113902
0.00915384
-0.00693423
-0.00318936
-0.0191341
0.0179973
0.00432623
0.00151862
-0.00334584
0.00147078
0.00111304
0.00162578
-0.0012202
0.00252954
0.00057843
-0.00218275
0.00239037
0.00331543
0.00925729
0.0314533
0.00342086
-0.0441315
0.00201102
-0.00638865
0.000896714
0.000559449
-0.00188645
0.00163002
0.000839354
0.0118554
-0.0158841
-0.00076604
0.00763001
-0.00668226
0.000605546
0.00270385
0.000671707
-0.00068312
0.00183588
-0.00182446
-0.000117573
-0.00888782
9.34836e-05
-0.000410191
-0.00246024
-0.00148327
0.0110403
0.0015033
0.00110741
-0.00487656
0.00315288
0.000616268
-0.00327815
0.00294128
0.00304939
0.00958237
0.00895036
0.00931265
-0.0139111
-0.00435194
0.00604384
0.00735925
-0.00445273
0.00686018
-0.00601115
0.00846362
0.0132976
-0.000393568
-0.00230628
0.00422212
0.00571416
0.00137633
0.0516254
-0.00099968
-0.0506258
-0.0137935
-0.00862942
-0.00481892
0.0272418
-0.0115894
0.0140867
-0.0162907
0.00187764
0.000161498
-0.00179321
-0.000245931
-0.00788885
-0.000894228
0.0568362
-0.0617317
-0.014576
0.0194715
-0.0170481
0.0181738
-0.0107714
0.00964577
-0.0140153
0.000942593
-0.00908795
-0.00676745
0.000162284
0.000275028
0.00462236
-0.00784344
0.000478836
-0.00640827
0.0125613
-0.0152409
-0.0102579
0.0051346
-0.00378868
0.00891196
-0.0119031
0.0167491
-0.00724037
0.00239439
-0.00483505
-1.55291e-05
0.00248606
0.00236452
0.0120951
0.025948
-0.0271648
-0.0108782
0.00661412
-0.00359122
0.000388631
-0.00341153
0.00409099
-0.00350924
0.00414688
0.00569745
-0.00778219
0.0076219
0.00368204
-0.0124123
-0.000169561
0.00237022
-0.00435688
0.00960055
0.00273801
-0.00798168
-0.00278735
0.0022076
-0.00177634
-0.00276431
0.000834391
0.00209353
-0.0114176
-0.0106388
0.0107449
3.73693e-05
0.000907604
-0.000891249
-5.37243e-05
0.00522422
0.00660463
-0.00560335
-0.00622549
0.00487649
0.000992383
0.00520178
-0.000508946
0.000838855
9.42931e-06
-0.000339338
-0.0151923
0.0158585
0.0112778
-0.00258177
-0.00985889
0.00912031
0.00332034
-0.00846918
-0.00312759
0.00416626
0.00743051
-0.0547831
0.0298472
-0.0535532
0.0784891
0.00504044
-0.00283705
-0.0110166
0.00881318
0.0092938
-0.0134112
-0.00515527
0.00927268
-0.00190222
-0.0105873
0.00872288
0.013501
-0.0128689
0.0100787
0.00165132
0.0119523
-0.000102537
0.00247418
-0.00783767
-0.00389265
0.00925614
0.0119026
-0.0033966
0.00445589
-0.000115889
-0.0132522
0.00563358
-0.0137933
-0.0091907
-0.00369857
0.0101459
0.00274333
-0.00512319
0.00935105
-0.0134186
-0.00872885
-0.00459443
0.00142015
-0.0158313
0.00832772
0.0036687
0.00383489
0.00158035
-0.00274808
0.000152646
-0.00207495
0.00281108
-0.00145764
-0.00283958
0.00175839
-0.00043436
0.00151555
0.00249036
0.00107692
-0.000205888
0.00111523
-0.00135309
0.000443751
0.00209575
0.000381076
-0.00288908
0.0367518
-0.00314875
-0.030714
0.0406175
-0.0379167
0.00871173
-0.0095207
0.00323287
-0.0024239
-0.014188
0.0130457
-0.0144311
0.0155734
0.00700701
-0.0070676
0.00163262
-0.031041
-0.00660984
0.00366145
0.0920624
-0.0380618
0.0008254
-1.3973e-05
0.000343433
-0.00115486
-0.00138568
2.93146e-05
0.000584957
-0.000330268
0.000148108
0.00131396
0.00934122
-0.00732513
-0.00719785
0.00518176
-0.00065457
0.00481867
-0.0212907
0.00233353
-0.00222516
0.0111556
-0.000213744
0.00603231
-0.00772079
-0.00299861
0.00339162
0.00198225
0.0170294
0.0303885
-0.0355283
-0.0118896
-0.0519172
0.00194272
0.0499744
0.0241975
-0.0686037
-0.00751099
-0.0363645
-0.00144671
-0.0636423
0.0772976
0.0282655
0.0148004
-0.0660898
-0.012353
0.0451043
-0.00196349
0.0733716
-0.0689618
0.0103907
-0.000459771
-0.00169548
0.0027147
0.00205929
0.00302263
0.000229733
-0.00264682
0.00404739
0.0289279
-0.0278889
0.00733344
0.0193256
-0.0383293
0.0119812
-0.0238348
0.0142428
-0.00238918
-0.0189182
-0.00151955
0.0101799
0.0131523
-0.0106247
-0.00297682
0.000449128
-0.00887825
0.0152936
-0.00403282
-0.00238254
-0.00994149
-0.0225397
-0.00392068
0.0418777
-0.0154174
0.00302007
-0.00467733
-0.00317779
0.000535213
-0.00242357
-0.000841935
0.00297716
-0.00463739
0.000847994
0.00653708
-0.0072764
0.0198378
-0.0190985
-0.00551313
0.00570717
-0.0114201
0.011226
0.0160968
-0.00154666
0.00903815
-0.000884496
0.000557294
0.00190755
6.88401e-05
-0.00292612
0.00197279
0.00324654
0.00766953
-0.00869257
0.000669102
0.00894766
-0.0109494
0.00133265
-0.00130364
-0.00281777
0.00175445
0.000664125
-0.00311913
0.00186758
0.000587432
0.001303
-0.00140548
-0.000911915
0.0010144
-0.00307947
-0.000260677
0.00185255
0.00063351
-0.000966827
-0.00151924
-0.00275049
0.00305333
-0.00111995
0.000817111
0.0030044
-0.0056017
-0.00263651
-0.0011844
0.00177311
-0.00346997
0.0011302
-0.00461119
0.0019698
0.00405947
-0.00161487
0.00260902
0.00697452
-0.00796867
-0.00156658
0.00169947
0.00648124
-0.00164181
-0.00617645
0.00251048
0.00530778
0.000944292
0.000555751
-0.00611123
-0.000167562
-0.00194459
0.000177556
-0.00144888
0.0015005
-0.000219187
0.000729698
-0.00214428
-0.000530014
-0.00285205
0.0251624
-0.0446903
-6.29795e-07
0.00633875
0.0455965
-0.0494543
-0.00248095
-0.00305504
0.00593116
-0.00700839
0.00413226
-3.52317e-05
-0.000122841
0.00593519
-0.000380889
-0.00499256
-0.00334079
0.00871425
0.00540475
-0.000933157
-0.00144613
0.00426006
-3.02725e-05
-0.00426502
0.0380567
-0.0504769
0.0126179
-0.000197691
0.00727543
-0.0243368
0.00788927
0.00917212
0.00940238
-0.0078747
0.00574775
-0.00168419
0.00161463
-0.00785357
0.00792314
-0.00023138
-0.00752937
0.00607656
0.00339835
-0.01287
-0.00944659
0.0164871
-0.00368641
0.0020628
0.00087697
-0.000861998
-0.0593607
0.0671308
-0.0463009
0.0385307
0.00387858
-0.00217542
0.000359642
-0.000366696
0.00145119
-0.00208497
0.00100048
-0.0010769
0.00229575
0.000736853
-0.0048667
0.00313407
-0.00160379
-0.00285488
-0.00040803
-0.0118594
-0.00150018
-0.000551462
0.00399992
0.0454903
-0.00710962
0.00259969
-0.00734949
-0.00791158
0.0071352
0.00316942
-0.00239304
0.00210073
-0.0499486
0.0478479
-0.0383354
0.0404361
0.00194183
0.00125458
-0.00107958
-0.00211683
-0.0563216
0.0647519
-0.0467656
-0.0390604
0.0455572
0.0102028
0.0274892
-0.0400566
-0.00828951
0.00373392
-0.00161359
0.0026148
-0.0163148
0.0110445
0.0274392
0.015163
-0.0515182
0.00883039
0.0275248
0.00581322
-0.047961
0.025833
-0.00515306
-0.0226639
0.000684429
-0.0789462
0.0776355
0.0705939
0.00391124
0.00175559
-0.0346857
0.00337852
-0.00602552
-0.0134914
0.0161384
-0.0738649
-0.06237
0.0699368
0.0662982
-0.0503319
0.0391778
0.0143412
-0.00318712
0.000333433
0.00265113
-0.0524798
-0.00571852
0.0195585
-0.0314572
-0.0101721
0.0285083
-0.00316475
0.00902351
0.0355302
-0.16064
0.0397794
0.00184007
0.0048746
-0.0101008
0.00338616
0.0067941
-0.02177
0.00586921
0.00910673
0.0148874
-0.0104644
0.00498642
-0.00940948
0.0284064
0.0735021
-0.0729027
-0.0290058
0.000119659
-8.26784e-05
0.000753474
-0.0480914
0.0113186
-0.00284782
-0.00243218
-0.0327061
0.0637218
-0.0762605
0.0448595
-0.023382
0.0329713
-0.0573662
-0.0195792
0.0439741
0.0201411
-0.0205521
-0.0476805
0.0010896
0.0559399
0.0254774
-0.00919795
0.0217317
-0.0380111
0.0413315
-0.0275127
-0.0489957
0.0351769
-0.0242865
0.0152331
-0.0368072
-0.0555455
0.0491724
-0.00122537
0.0167625
-0.0149723
-0.000564799
0.0034041
-0.0044915
0.000618772
0.000468629
-0.0386504
0.0496031
-0.0109528
0.0135057
-0.0128691
-0.00213683
0.0118124
-0.0275819
0.00685843
0.00908325
0.0142449
-0.0301865
0.00911003
0.0103988
-0.0126504
-0.0165438
0.0106529
0.0149742
0.0344718
-0.0181673
0.0726219
-0.0801357
-0.0288507
0.0105908
0.0938483
-0.0318172
-0.0372733
0.0203013
0.00906827
0.00790366
-0.0228907
-0.00348282
0.0369643
0.0584011
0.0245683
0.0212528
-0.0197677
-0.0260533
0.00288614
-0.0373366
0.04002
-0.00556953
-0.00965675
0.00890838
0.0121751
-0.0114267
0.00805333
-0.00704344
-0.00348371
-0.00238502
0.0101356
-0.0030851
-0.00466544
0.00630945
-0.0551037
0.0487942
0.00129068
-0.0328938
-0.0254026
0.0562608
0.00203556
0.00990574
-0.000791012
-0.0119529
0.104862
-0.154242
0.040079
-0.00715906
-0.0107725
-0.0242965
0.036507
0.0099219
0.0435215
-0.0460003
0.0405114
0.0319444
-0.0967523
-0.00204802
0.00200557
-0.00329177
0.00171208
-0.00231415
-0.114247
0.107743
0.00353517
-0.00688525
0.000123143
-0.00259828
-0.00324305
-0.000417764
-0.0018564
0.0019901
0.000284064
0.000366906
5.61642e-05
0.00125206
-0.00152553
0.000217304
-0.00311224
0.000180593
-0.000538326
0.00293779
-0.00546113
0.00298565
0.00241574
-0.00117632
-0.00615022
0.00986812
0.00411301
-0.0147596
0.000778466
-0.00377592
0.000392168
-0.00189508
-0.00140779
0.0527021
0.0105453
-0.00881639
-0.00184652
-0.0280546
0.0394229
-0.00365106
0.00102193
0.00226182
0.0492678
-0.0390205
0.000554352
-0.0108017
0.0137175
-0.00100102
-0.00136792
-0.0113486
-0.0303262
0.00367455
0.0283186
-0.00166702
0.0525513
-0.0502702
-0.0579738
-0.00311534
0.00422981
0.0564312
-0.0426065
-0.069219
0.073626
-0.004407
-0.00272086
0.0434659
-0.0521704
-0.00326799
4.70687e-05
0.000723824
0.0024971
0.00283271
-0.036149
0.00608102
0.0272353
-0.0231645
-0.0569119
-0.00682677
0.00230291
-0.0146103
0.00283034
-0.00642587
-0.00703859
-0.00157904
0.00384026
0.000802574
0.00436781
-0.00239133
-0.00185333
0.0103605
-0.0663395
0.0529176
-0.00357864
0.00106164
0.0014391
0.00107789
-0.0071099
-0.00553331
0.0111165
0.0015267
-0.0124392
0.00550169
0.0105146
-0.0298492
-0.00312755
0.0224622
0.00321291
-0.0010757
0.0633566
0.00237986
-0.0657365
0.0259177
-0.0161127
0.000709612
0.0287952
0.00540179
0.00385964
-0.0105996
0.00264102
-0.00285762