/*--------------------------------*- C++ -*----------------------------------*\
| =========                 |                                                 |
| \\      /  F ield         | OpenFOAM: The Open Source CFD Toolbox           |
|  \\    /   O peration     | Version:  2506                                  |
|   \\  /    A nd           | Website:  www.openfoam.com                      |
|    \\/     M anipulation  |                                                 |
\*---------------------------------------------------------------------------*/
FoamFile
{
    version     2.0;
    format      ascii;
    arch        "LSB;label=32;scalar=64";
    class       volScalarField;
    location    "0.0689058";
    object      omega;
}
// * * * * * * * * * * * * * * * * * * * * * * * * * * * * * * * * * * * * * //

dimensions      [0 0 -1 0 0 0 0];

internalField   nonuniform List<scalar> 
3989
(
49.394
43.8533
44.7644
45.5095
43.3427
44.6229
47.7434
44.3395
67.5603
65.5954
144.994
77.6008
122.904
49.3523
61.4192
44.2659
49.4036
64.9855
46.925
44.1775
77.9244
60.1196
52.1254
49.8214
44.402
62.022
77.5772
48.5448
58.1086
49.1901
70.9437
70.3341
51.6634
49.3287
149.763
72.3642
48.7558
46.3718
73.8608
48.4012
56.5683
47.9246
77.0217
61.8688
86.6745
48.4399
47.2064
92.9823
49.3224
91.9918
44.4712
49.4524
60.6026
49.2833
45.5894
48.3484
47.209
78.5129
134.767
81.7464
79.7547
178.566
182.987
626.352
43.7815
50.3438
65.2238
44.1459
60.1076
77.8734
129.126
49.8799
45.2794
45.6851
52.3985
46.7931
46.2882
62.1844
47.1389
47.3187
48.1474
93.4007
66.706
44.1324
43.2618
200.232
43.2896
72.5502
44.5639
63.5008
44.0585
73.7849
82.8573
52.4687
48.7487
46.4314
48.2537
61.7025
46.182
79.802
65.5409
83.9818
75.8095
132.705
69.3256
49.3502
59.5176
66.6393
63.5363
118.961
61.6512
46.3452
46.9639
47.0742
47.3014
49.2239
47.708
71.8372
76.9256
100.902
52.729
49.3451
46.5824
48.4579
48.3348
43.7341
46.6004
44.0809
85.3091
66.5997
97.1448
132.906
92.573
113.729
112.841
109.499
47.4199
58.2095
63.4993
65.0585
75.5035
58.2766
87.2744
49.2336
48.6641
140.21
45.9346
90.7762
65.9297
59.1551
44.2289
70.8476
70.6474
72.182
168.011
164.463
43.4718
54.4351
61.134
127.943
49.4171
44.8185
67.1529
96.5894
96.4891
44.6614
44.6615
83.7014
45.1253
85.8488
50.9693
47.818
100.482
52.9589
75.9375
51.0803
47.2953
46.5432
137.924
53.2274
81.717
43.6775
72.5992
43.6657
99.1629
79.7263
52.0589
81.3708
65.6719
49.5561
48.4941
51.1581
90.0858
198.131
43.7349
202.356
764.98
44.3575
51.5929
43.2483
89.4215
76.0316
150.101
83.8679
148.415
62.3949
47.656
64.2453
56.7703
58.7203
56.2589
70.9976
66.3579
55.8754
57.2699
581.572
65.4363
92.5445
85.0833
46.8201
45.811
47.5376
48.106
49.6735
96.9021
66.7997
53.1994
47.7036
81.5387
44.8539
89.4188
119.619
73.6969
55.5016
48.5681
203.932
104.436
68.9095
46.7651
53.2477
44.7297
48.613
63.4574
134.642
133.155
43.5532
131.227
106.053
62.1874
65.0105
131.226
43.6347
80.2633
58.4315
85.6804
47.8093
95.2425
79.4432
45.9544
43.5294
53.8572
46.5235
71.1997
47.0413
80.0564
108.768
43.968
58.1037
91.1847
99.4968
100.993
105.892
106.079
50.1074
104.798
80.8017
110.583
99.4557
53.3277
202.479
63.5266
60.0023
143.394
60.1656
48.2444
50.8179
60.9797
135.979
170.567
179.264
107.579
107.394
108.852
57.596
79.1269
46.478
44.9228
74.5565
107.21
67.5157
54.0533
158.583
156.246
51.0936
156.803
55.6501
50.8735
81.1274
55.6352
49.1071
45.3193
42.7078
64.4073
89.2883
61.7975
107.57
42.9808
72.4033
47.6374
50.3094
104.785
55.4489
62.5294
46.0414
71.7454
55.3424
82.482
76.0871
122.73
51.0492
43.5583
44.7253
45.2163
47.9288
43.0562
52.3313
59.9408
53.9364
99.8161
67.1174
63.5562
84.809
75.2213
79.5458
42.7495
48.5914
186.243
49.8489
45.7019
53.0186
103.28
50.8191
50.3684
53.9581
48.1659
81.0775
104.121
84.9218
721.262
59.8889
64.9446
105.244
44.7687
265.127
73.069
80.2159
72.5124
93.2719
46.4523
63.975
89.1019
54.7801
128.258
43.5561
62.6095
43.5512
54.6507
43.5918
83.7748
58.6702
112.831
63.6801
57.4087
91.614
136.884
125.28
84.415
169.996
71.4168
102.286
45.4244
142.688
48.2483
103.561
98.4673
44.8296
48.1618
127.983
49.9544
58.1757
51.9114
67.8959
68.3199
112.119
59.3148
51.9329
46.2318
110.391
75.0279
53.0943
47.0333
67.8677
44.1536
554.953
84.0915
87.0396
45.1577
43.3185
50.6418
94.4376
410.985
87.5167
88.2289
833.276
45.6002
46.1404
45.5337
106.063
54.603
45.7393
56.2901
90.7384
45.6629
47.303
182.687
46.8974
49.0445
91.5375
45.5004
44.7518
48.392
45.1128
46.2495
104.677
48.5083
43.8794
60.9069
60.0961
171.477
48.3929
55.1764
74.0536
81.3037
46.7139
50.2699
53.7282
123.23
93.6678
43.4796
44.7507
61.0334
59.7943
152.996
100.198
152.802
73.7496
87.3292
90.6288
184.326
57.3928
119.109
182.268
65.8889
148.443
55.4283
80.9258
86.379
122.845
121.226
107.866
160.407
73.4581
60.0822
85.8412
43.5587
49.4743
100.245
160.565
84.4289
44.9729
110.494
44.0883
67.1085
44.7531
46.1366
59.1573
57.4888
52.4731
44.2452
66.6885
43.6779
62.4946
57.3769
56.8909
64.2062
105.385
103.101
63.7705
74.1035
71.0198
47.2497
109.063
103.359
55.2712
90.8648
100.083
81.2506
49.3746
84.9068
50.0742
52.9492
69.9745
87.6778
44.2379
124.446
44.8682
43.0775
77.2383
52.7492
43.0014
48.3888
49.2334
103.155
45.4944
55.0101
93.6146
48.2109
70.8276
103.355
60.286
46.9968
61.1022
77.1432
1431.37
982.838
45.8509
44.2591
45.9361
70.3051
43.622
45.2284
51.5576
104.781
127.897
87.041
66.0734
74.0516
81.1536
44.412
47.8367
107.253
135.196
60.4535
44.541
49.0722
44.0989
45.3419
51.9166
74.0321
48.8845
50.451
43.0166
44.6785
80.2392
43.6742
71.3066
43.195
51.2548
43.9931
45.4596
51.9744
61.988
48.6891
51.9805
43.9114
44.7728
67.4229
54.5027
43.3576
44.5895
54.6735
43.7583
46.6542
934.111
440.25
110.292
49.3154
69.8873
79.4586
84.1722
46.2974
43.2521
55.7067
59.0313
46.8148
47.9612
48.4496
45.8499
65.7122
49.3138
77.4807
96.7005
49.0192
42.653
58.6927
47.5181
78.5227
82.7191
47.9288
110.656
74.3988
46.96
62.795
67.74
43.7234
100.677
45.6149
45.3242
50.28
91.7947
44.1189
47.1757
47.7454
45.9596
49.3073
47.5551
49.1878
65.4409
48.2124
49.8157
68.338
49.6042
54.4925
45.3115
44.9499
53.1003
48.102
48.4178
106.804
45.4654
68.9324
53.4874
62.802
47.2001
92.885
48.0865
49.3508
43.8721
79.063
65.5502
76.5274
95.6913
57.1347
43.3891
49.6077
58.7204
73.6388
51.2056
132.942
46.8747
44.1653
45.3046
129.858
63.4047
46.1987
59.122
107.405
77.8418
139.342
55.9024
70.096
43.2786
43.5395
43.7895
43.7189
44.1081
48.0665
82.5566
44.0654
43.7522
43.4112
45.0452
43.8136
88.2922
60.3254
46.1838
73.5861
47.3772
66.0318
52.237
151.993
43.2869
149.044
42.804
65.7974
83.459
53.3254
108.362
49.2383
88.7733
48.5332
110.011
44.2169
43.3794
46.662
138.061
48.1862
54.2641
139.386
46.1622
108.776
56.9298
84.5725
78.7261
67.5662
80.3848
48.3906
43.2231
43.9067
45.7838
110.284
45.3485
45.1127
46.1589
43.3781
43.8059
69.5461
85.0835
43.5995
49.9727
43.783
45.2266
95.165
44.2041
164.493
45.2989
68.4544
133.599
63.8448
44.5185
94.0957
78.0081
62.0213
59.9966
200.555
500.091
792.598
60.6757
45.1009
48.0257
43.4182
43.7705
47.5357
48.5613
48.0735
49.3511
53.3461
71.1071
107.073
48.9338
46.6067
74.71
55.931
97.1379
52.8433
146.76
43.944
48.9655
96.2985
49.9829
44.673
65.1864
47.3669
54.2323
80.5582
43.6525
54.7132
63.5148
56.7583
46.3738
50.6328
48.8332
62.8936
44.326
43.4627
43.1937
63.5605
43.4546
109.098
44.0373
78.5674
80.4063
77.3716
76.2812
47.6515
44.1325
43.9824
44.8275
65.1811
64.7494
53.0407
53.1776
42.915
47.5601
79.5561
55.8213
59.1613
54.8234
59.7287
43.8272
47.5302
75.2392
65.9555
47.1637
123.727
52.5574
87.5963
43.9234
54.6363
77.1374
50.8619
108.577
46.9213
51.0967
61.4741
43.6727
59.6426
51.191
43.1993
57.4378
44.0113
45.6621
87.7902
57.0627
43.6884
45.6279
58.7334
105.253
60.9505
48.3601
47.3295
46.5176
53.7502
54.1203
81.2583
55.4374
42.7913
47.9
51.7636
44.747
65.159
51.5459
44.4513
42.8912
80.3386
54.793
43.4822
275.334
98.4531
43.6212
44.0561
89.7385
91.2689
67.2028
92.0423
43.6429
85.6914
51.2662
57.8299
44.2615
45.4255
375.535
44.991
46.1373
120.172
55.5014
45.3832
64.729
68.0513
55.4466
56.0314
52.844
55.2325
54.3761
89.6349
86.9878
45.7284
49.0469
81.0832
54.9868
101.525
45.2919
73.5031
51.7814
49.9108
59.6207
558.908
159.118
465.429
693.028
198.367
51.4227
46.4675
48.3711
945.608
456.068
44.2346
54.6852
48.593
736.777
61.4357
71.7012
43.9456
65.7592
44.4557
69.8022
45.1029
50.1774
52.8527
43.7661
95.1837
51.7116
52.9059
43.9989
46.5219
70.6243
51.4266
57.0641
46.9634
49.4295
960.469
370.617
117.423
53.5289
47.8191
93.4929
52.7345
54.6757
44.7876
49.4468
99.4861
57.5549
43.6356
45.4867
58.4269
45.3821
82.9086
79.199
72.1745
56.1289
45.7142
53.6652
82.0325
44.7694
43.076
45.0216
46.166
65.5566
105.185
49.2735
52.1264
65.8886
47.0356
48.2086
49.2012
62.5579
45.4465
49.3868
49.7608
53.5574
52.1381
43.1994
48.9946
52.7064
66.9872
94.2879
67.7287
49.2274
49.9185
52.7052
45.3785
61.2302
45.4127
43.6822
52.0809
46.3084
53.2035
51.3926
49.3134
50.58
44.1456
47.2405
43.0467
54.3132
94.2095
49.771
48.6586
67.4721
43.3528
54.9335
47.6482
43.5445
48.698
45.2306
58.0299
71.9634
71.3725
56.8951
98.1618
51.4039
54.1298
70.2371
58.0057
53.6327
53.0889
47.0454
61.365
43.273
44.3869
44.1879
44.1015
60.7754
44.4449
52.9364
48.5187
45.5968
54.0003
54.6994
61.8738
56.9243
53.8043
43.9422
44.3146
44.5459
44.5268
48.3671
48.3984
49.7115
47.8304
44.8994
46.6914
44.8763
48.3866
43.2905
49.5386
49.2292
54.1098
56.1255
59.1522
63.8513
139.258
136.721
46.6088
46.3429
43.7167
97.0208
44.2212
43.9148
50.2274
50.5052
43.779
43.7925
45.4509
54.2251
58.8159
47.1593
50.0125
51.1258
110.704
119.711
86.8955
80.5391
129.546
54.1369
44.3902
43.9756
43.5131
45.9407
55.1915
53.1404
54.2331
51.5273
63.1045
88.6817
87.9064
84.8908
44.3801
44.3133
44.1083
57.122
47.6073
58.8109
64.1061
930.642
51.3519
43.7432
47.0248
46.4084
52.7208
44.2606
52.7374
79.4601
97.0972
52.6611
65.5126
43.3427
45.3502
66.9535
51.9918
51.669
53.5061
103.44
117.673
52.7995
48.8328
63.0058
43.6916
87.3634
108.672
100.354
53.4583
46.4044
57.7743
47.8545
96.1981
76.7968
77.8204
45.407
44.866
49.5348
50.9082
92.9092
47.6901
104.123
105.668
43.7128
44.9684
48.4531
54.2311
44.6305
48.251
43.6596
68.0631
44.6172
48.1212
43.8748
47.4313
43.1672
51.246
45.4723
53.1656
48.96
47.1015
51.9186
75.219
44.4329
45.3757
52.0747
68.7829
54.6071
44.7939
61.3392
57.9438
62.2124
46.0431
43.9613
43.8412
47.7555
48.1593
62.5164
67.0767
52.8429
61.9383
45.538
46.0329
74.0182
63.2148
44.5693
47.9538
57.8388
73.7139
45.6577
63.6621
47.8076
50.1569
51.7568
47.7471
47.3713
61.9333
65.9104
49.2169
52.6883
59.2926
45.352
67.7799
94.6047
54.95
45.2784
88.3522
49.1984
70.4694
76.4997
55.8893
48.7163
48.184
62.7872
61.531
48.0917
46.5869
71.1661
43.605
43.8981
46.226
43.9644
45.9213
45.2665
55.6091
46.4636
57.2982
78.1041
46.3745
57.5144
52.4645
51.4876
55.2368
44.1034
51.649
47.5268
46.4486
47.207
47.2342
48.9262
48.2684
70.8369
44.5384
114.046
74.308
70.1057
52.5881
91.3939
109.554
47.8394
49.1977
101.494
96.0698
77.2344
46.1376
49.2119
114.561
111.148
109.633
69.8229
95.268
67.7655
97.5714
55.7562
48.7851
80.212
46.78
66.8364
46.0998
44.7326
88.0985
105.705
50.3577
55.7229
49.2815
48.2928
70.3973
43.8864
65.4873
49.318
69.6272
66.7469
77.9947
86.8409
82.8404
69.3147
64.8948
50.2285
104.002
43.847
49.1962
44.4333
48.5233
49.2971
77.0189
44.3693
48.1956
60.1983
45.1602
47.9322
105.825
58.9939
44.3488
80.0596
81.0255
92.0152
51.6732
44.2295
61.5583
55.3932
61.6519
71.0309
48.4877
43.797
49.226
46.1016
76.7978
51.0977
66.8165
97.9117
64.5247
47.6575
44.9064
48.5572
108.649
96.5296
101.189
79.7059
48.3953
75.5546
105.054
89.6586
75.9931
44.1458
52.9961
72.3658
46.4046
49.4852
51.72
54.8495
55.023
109.807
104.176
336.354
87.1202
111.276
676.779
49.0216
55.8863
60.4634
49.3559
62.8782
44.1402
63.895
45.4997
52.5424
52.4099
105.708
50.0575
46.182
45.5699
45.8875
97.7166
68.4129
46.7817
49.6011
47.3081
48.556
49.3436
45.0126
139.591
44.5269
46.9908
43.8533
50.134
51.193
49.8746
48.766
60.2769
48.8035
43.399
43.375
43.7233
49.5583
75.0346
71.0483
67.3215
46.0652
54.9856
59.9532
50.0394
51.6892
70.7741
43.5598
43.8899
43.7372
56.6453
43.8599
49.2203
43.4723
49.2068
48.8411
45.5769
44.8
43.8615
47.2099
47.8415
44.665
43.7933
75.3058
50.1034
53.4425
44.3409
43.6194
43.9611
49.3177
44.7493
43.8501
72.9666
85.3594
70.2021
44.6217
79.5338
45.1027
73.7983
53.7702
68.5952
58.5281
43.7015
43.6585
759.667
602.193
753.387
572.753
967.042
168.053
45.9031
58.5194
71.034
44.3519
43.207
49.1358
55.1438
49.129
71.6304
113.564
64.8547
97.8751
51.7887
46.9124
54.7312
50.4119
175.922
48.3109
73.953
102.439
44.7456
50.8303
43.2878
44.5117
42.847
103.541
82.0655
73.2744
58.4953
43.2787
55.9119
69.0543
63.5284
51.8676
83.1217
113.828
58.7005
57.3353
43.717
72.0223
102.144
68.3592
86.9956
100.056
57.7939
49.2655
80.1601
48.7098
234.428
45.5952
42.8374
65.0086
72.8899
52.0403
94.5252
45.1656
54.0573
45.8727
44.2823
123.464
60.4176
46.0488
83.3357
95.3711
83.9664
43.6535
136.594
52.779
98.921
52.0347
50.4381
148.859
46.8233
279.995
277.029
44.9616
48.9429
44.2445
43.1969
43.8054
59.4171
46.6728
52.6768
64.2187
108.162
48.9882
49.8729
50.1111
61.145
66.6209
52.5684
63.6932
152.776
43.4324
54.2072
101.243
98.697
74.4279
75.3853
85.4378
65.2534
88.0625
43.7719
78.2227
53.0205
103.686
51.1465
63.3875
129.565
89.9102
52.1823
92.1425
47.2146
47.863
84.8365
80.8938
71.8908
52.4429
53.0313
53.1457
78.2162
66.7351
44.3474
52.2895
55.8753
60.8584
85.766
243.956
903.592
45.4522
58.5493
924.09
99.2572
59.2543
46.8028
55.8473
43.5636
74.2167
114.239
54.7252
92.3961
43.8494
98.0882
53.9004
59.9652
51.8676
82.5963
43.678
93.6841
104.071
46.806
61.8504
88.855
48.7724
47.2396
46.1909
71.7516
78.3578
94.2811
73.0047
132.39
200.907
97.2319
52.2641
64.4596
59.725
104.819
86.1075
151.341
186.456
190.352
48.1284
50.3165
46.9059
73.5074
46.7428
44.2016
48.2838
49.3442
47.8201
131.496
259.033
72.6269
85.3788
52.5999
44.6349
45.2221
44.7771
109.844
45.2641
43.5327
45.3583
45.3933
540.764
46.4285
121.567
91.2343
43.9004
45.544
46.8418
49.3126
55.3772
63.2617
65.2449
44.0914
72.2585
69.1928
76.5715
45.6021
80.5449
56.1578
62.9351
64.8708
46.8899
69.2146
63.4278
62.6544
54.1781
48.7327
48.8222
89.3047
65.4453
48.5307
80.5171
70.534
105.136
83.5549
83.9581
83.3367
84.6981
43.4897
44.9852
44.4313
46.0019
92.8886
52.9819
114.959
66.857
68.068
146.521
44.0651
45.2982
48.3298
48.5184
44.4962
43.5976
59.2749
87.1144
72.5714
62.3829
69.4489
55.074
62.8544
64.9971
59.3846
112.828
111.516
66.2717
80.5465
43.9513
106.647
71.9033
107.365
77.7732
62.0088
59.3176
55.7546
107.939
92.0164
83.05
82.4469
48.1578
45.7408
46.2956
63.9782
49.3912
49.3999
49.4035
48.5362
48.9606
48.6901
49.3479
48.6333
49.3007
49.4688
49.3354
49.3256
73.201
122.702
120.529
76.8286
79.4648
151.648
61.6249
43.1585
54.1584
45.827
95.4903
98.6559
47.7495
55.6216
51.123
47.5785
49.7187
49.458
49.7394
45.1857
44.878
47.7826
54.31
82.9025
49.2002
51.4224
49.171
46.295
51.9285
48.5347
48.0003
45.6424
45.133
44.8305
80.8675
53.6522
51.0649
45.5383
78.2463
49.6117
63.9928
63.2024
59.8008
68.6348
78.9123
43.9867
60.1504
47.7326
48.5891
51.1934
50.9095
49.9212
43.6822
48.9635
51.9093
47.89
45.909
66.8261
125.715
58.8869
43.6779
50.0569
52.1154
76.4457
52.1252
46.1364
45.6985
44.4124
43.9294
46.1516
44.2539
47.1216
63.0638
45.1956
68.7447
46.8116
50.4314
48.0873
71.0454
44.657
68.6471
48.4889
47.4561
47.0049
48.615
47.9889
46.2864
45.4028
46.2038
45.2754
47.7016
45.6284
45.9167
45.3514
45.8819
95.4029
112.953
52.4601
64.1024
52.1496
84.9908
47.2467
44.3824
46.0706
44.3357
59.6772
46.836
46.0423
47.7027
99.3243
43.1713
43.1514
43.429
62.1913
83.9798
128.618
45.952
43.2059
43.5854
72.259
52.1717
79.0404
44.115
53.9556
83.9253
47.35
44.0052
99.3777
47.6416
46.0796
56.7292
45.4143
65.2968
64.3649
91.3533
69.5264
90.6747
63.4414
68.5777
93.5883
47.0749
43.6264
63.3871
45.5236
45.4303
44.9049
45.0347
48.7633
49.1947
47.1456
61.4732
48.5604
47.9141
48.4049
44.1592
44.9705
46.1813
45.4966
54.3163
68.6159
55.6535
44.1205
66.957
97.5478
89.6452
110.759
74.5343
56.8331
45.7584
51.2565
46.8289
47.901
46.1971
49.1409
43.4718
55.1817
55.9529
105.974
115.296
104.791
55.9022
75.8189
81.5314
68.9561
151.597
42.5437
42.6675
43.0532
112.267
48.2123
65.7493
117.277
103.606
138.068
139.723
48.846
133.717
137.754
104.12
128.29
82.7773
609.887
88.6812
79.3185
74.21
57.8066
57.1892
112.067
75.4254
47.41
49.7253
48.8934
49.3311
123.125
49.7016
62.4072
63.6835
128.232
146.599
91.455
86.8268
52.4594
45.1861
46.0499
69.8333
167.351
123.313
124.255
46.3928
49.7246
81.8086
47.2064
53.3116
73.869
61.525
62.9893
80.3663
44.1466
53.6463
71.8199
53.2068
43.6091
53.1662
70.2528
52.2746
44.4857
46.8653
68.8146
43.8856
134.111
75.9569
92.7771
56.8765
57.5385
93.5695
48.2809
43.8801
67.4185
59.7799
108.914
78.983
111.347
107.334
63.1892
93.8651
132.772
850.252
53.1447
75.6101
111.798
112.442
44.1703
153.544
110.117
61.0644
48.7089
83.3351
79.2585
97.1521
82.4748
51.6169
117.114
58.6798
116.495
83.4823
97.6817
103.274
88.7647
133.277
120.622
43.4786
42.9639
43.7095
43.5687
49.4671
45.4285
113.912
76.4719
44.1256
64.6687
44.0507
44.999
65.7073
43.361
43.7008
43.7893
49.3513
145.076
44.6613
46.1012
47.3151
44.9549
51.7648
44.8392
61.895
55.6704
72.7034
109.948
44.1184
97.6967
54.3804
59.9365
152.419
63.7538
486.284
97.0483
44.0272
97.2057
83.2312
44.3927
75.112
46.6644
48.6242
61.3515
46.4319
52.3968
43.5989
44.363
47.1707
106.532
46.3666
69.1486
58.9461
52.8458
49.2386
119.751
48.7136
48.4062
47.9282
99.7681
45.8402
69.862
44.5138
46.1952
46.437
94.1483
44.8919
43.2835
43.1033
43.0938
43.5886
49.7075
47.3952
43.4254
62.872
53.1767
81.4988
93.3191
43.9714
47.0659
55.9798
43.479
45.8476
51.0711
43.5171
70.8178
43.3614
44.7614
45.4386
57.7444
86.0238
43.5091
67.5966
45.4663
44.4957
49.3534
44.1032
50.3087
43.1206
51.223
46.8527
43.534
43.4099
45.7879
45.1401
50.2206
56.6648
49.9343
47.7512
48.198
89.9429
57.721
45.2224
85.1908
88.2529
67.5226
43.4619
44.2766
178.721
46.8727
590.937
47.2721
54.7004
53.9417
43.8937
48.7052
49.5507
52.6786
66.2426
116.57
61.1663
46.7952
53.8721
74.9341
44.1813
43.1513
46.33
127.763
49.821
52.0785
55.2102
43.9119
42.896
46.2655
67.1131
48.9376
43.9762
43.8359
44.3758
59.3541
46.4361
43.9261
79.7581
50.6589
77.8237
48.7718
51.0031
43.3986
52.0269
43.8959
43.4111
65.5572
45.3608
87.5588
45.3642
44.5065
43.9823
48.1126
100.149
122.333
45.151
43.6902
50.5336
49.927
44.4528
66.1132
79.1318
47.9459
45.1174
44.0256
44.0941
47.6032
44.124
45.4305
46.7123
47.9081
43.8534
128.745
42.9062
43.1892
64.3288
46.1867
59.3927
43.1508
46.7503
46.5483
48.8681
66.3784
56.2269
45.9561
69.4578
62.1344
61.5031
931.876
739.067
48.7527
44.2837
48.8152
44.4111
44.709
45.7781
43.658
54.4518
44.4207
44.311
44.1053
62.8445
44.3432
43.3641
46.0106
46.4667
85.3918
45.4805
222.231
929.826
45.461
79.421
67.1335
45.225
852.816
67.5245
472.604
43.2619
47.1183
43.5683
45.1874
108.386
61.5483
83.974
63.2716
92.2943
56.1195
52.0283
48.1164
44.3851
128.635
57.9288
53.1565
112.378
110.26
43.5438
43.4066
53.4866
45.2324
50.8225
54.7411
48.0205
43.6276
43.7703
43.7926
54.8146
43.3126
47.3495
49.5859
77.5242
43.6403
45.6392
54.0544
95.4772
70.3681
44.8442
43.7002
44.1348
68.0313
43.6416
87.5796
102.789
43.6035
43.3243
53.8229
46.3759
52.1065
43.9299
43.4125
46.3735
76.9607
48.8085
45.9071
47.9439
43.7334
44.3164
64.7329
43.5163
43.5937
46.4358
47.2322
44.8279
44.9351
46.8312
47.5976
44.7083
44.8795
45.0992
82.5678
44.9917
46.55
45.6767
81.0977
92.1744
106.754
60.0801
45.9575
45.5949
49.4534
42.6299
59.4043
43.8543
50.2611
51.4167
51.2215
44.7236
51.1749
52.7943
55.6406
45.0908
51.4972
787.854
703.108
48.1066
79.8586
245.079
66.226
45.4138
51.358
47.3635
77.9129
55.1019
46.5593
87.2104
138.802
43.2412
48.238
44.9239
61.5574
45.3831
46.5059
48.1412
45.9979
44.4366
85.5119
43.252
47.0263
52.0537
70.4189
52.3032
44.3092
45.0859
97.1571
47.3449
47.7607
47.0106
77.5623
63.1847
48.6746
44.6596
46.8995
63.9827
58.4055
87.8216
69.7158
51.4465
43.9427
43.1287
62.0507
62.7654
45.2725
113.443
49.2364
49.6471
48.4685
101.851
88.2856
65.0278
60.3313
46.6105
44.727
58.0462
49.2735
48.5375
63.106
44.2397
88.8528
45.859
46.6092
69.1259
69.4464
46.2007
44.4009
92.9288
47.9644
43.8659
44.5162
54.419
83.8088
46.206
46.6667
48.257
51.2368
46.9913
62.7996
60.5654
45.1686
48.6101
49.2494
48.3949
47.1554
46.6247
48.3453
49.2667
49.6735
99.7483
137.354
100.476
71.6634
44.5777
44.8017
45.1859
48.4187
63.8002
104.385
47.7182
49.021
49.3503
49.2856
49.6671
95.432
49.4302
200.053
49.4215
43.0778
42.954
42.9988
56.8175
61.8977
77.8888
49.3577
75.7834
117.913
48.7521
46.2782
47.2078
59.0633
44.152
93.4761
43.6882
47.0849
66.4956
44.9064
48.5469
93.4386
44.6503
56.2063
44.2215
64.0366
44.9913
43.9656
45.8778
44.9125
45.7695
46.3933
49.7914
45.0162
44.6568
46.0346
43.9393
44.2953
111.852
43.0738
60.4722
65.246
69.3253
44.6993
141.438
67.1591
62.2659
53.2507
82.2653
140.879
53.2162
46.499
45.1629
67.7322
119.002
59.1023
48.28
79.5728
122.319
104.401
56.5084
54.9805
54.5231
93.5427
68.8985
80.9565
71.5342
43.2029
62.882
119.091
44.0146
63.5087
50.6179
50.4774
83.4799
62.0674
52.6201
45.1196
45.5824
81.9971
96.8747
48.594
104.039
105.272
52.1193
85.8819
93.5786
44.5379
110.783
43.7032
47.858
507.997
73.5249
59.5243
43.2256
52.3283
52.8698
52.5662
52.9417
981.506
66.3206
100.51
67.0467
94.4548
97.5515
94.4223
94.7497
46.0301
49.8265
44.563
47.7355
59.4693
48.66
44.9365
43.5011
64.0727
46.3427
57.1075
61.4586
46.4175
48.4798
49.3436
47.1207
48.3417
53.9289
48.4321
66.1755
50.9728
54.0042
43.8661
45.4974
86.1139
48.368
132.616
47.3463
148.647
81.6107
60.0505
191.406
131.296
64.8801
45.2538
58.6761
45.4532
114.487
61.8916
48.4557
45.5222
43.7444
68.0428
55.669
54.3529
97.2931
70.8755
43.894
45.036
43.4235
88.8348
49.9664
44.9777
66.507
58.08
45.6938
44.0263
121.448
43.7252
43.3283
43.5646
44.0468
47.3656
44.0921
46.1946
44.5605
47.5222
48.2402
44.6862
44.7566
51.4591
93.101
56.875
57.5824
45.5673
43.6277
47.4456
46.0457
44.6106
43.7839
55.0096
47.2617
43.9367
46.8532
43.9385
74.9981
47.1705
49.3671
53.0617
55.7191
43.4424
42.7868
43.7865
74.7351
49.2738
43.3304
43.345
43.7645
52.5211
48.6417
45.621
48.0307
47.237
47.9378
45.2205
46.6329
43.8152
46.7835
46.5727
44.089
52.2054
66.4864
46.7343
46.4039
84.044
54.3516
53.4146
48.1843
42.9731
46.2658
45.798
43.954
50.773
43.3566
44.9099
48.913
47.0238
44.1325
44.8223
43.2591
51.6801
50.1116
67.5515
45.7914
47.7349
49.309
45.6269
46.8855
46.1775
46.4101
45.5231
58.1728
86.6065
56.7043
59.0917
46.3625
43.9191
77.42
73.7812
44.8644
101.446
60.6842
59.8893
43.9325
43.5426
43.865
43.3697
43.4286
43.7851
82.0906
44.2836
130.746
87.2341
47.8478
343.394
101.45
42.7526
57.7683
54.2256
42.9306
44.6363
43.6096
137.047
908.504
68.4642
51.7756
85.0849
220.071
43.6158
74.789
44.7471
50.8604
204.782
141.948
62.9418
46.8735
61.7503
46.3855
46.2085
45.6781
48.8155
43.251
45.3391
51.8299
74.3468
46.2573
78.8818
44.3145
67.0201
54.97
51.2731
215.977
70.8649
86.1951
969.378
970.432
44.3435
44.2351
123.33
55.8584
44.2743
56.4907
98.4313
59.7458
51.1807
44.811
52.9893
127.059
53.1812
79.107
52.4334
53.8137
68.9261
54.0376
44.1388
43.2356
70.8893
43.621
44.5461
122.656
120.845
44.0225
45.8018
58.9704
44.6377
43.9091
67.2822
79.265
68.3345
83.8878
44.0614
70.7365
76.1415
643.754
49.2294
92.2643
65.382
70.9119
79.5834
53.4831
60.6485
54.642
50.162
45.8976
45.8455
50.0699
55.388
44.0582
54.9799
48.79
47.7247
47.8211
43.1175
44.4141
56.7544
119.527
53.2415
44.0473
63.011
60.8111
45.2535
90.2182
43.3801
47.8404
106.613
64.3982
53.932
50.4471
63.1833
70.9508
56.339
64.9447
65.5007
45.8527
43.9182
44.7727
43.8933
44.3155
44.6306
45.8578
45.0844
44.9956
44.5076
45.1055
43.8543
55.6564
46.0706
45.5959
46.3729
47.6646
44.4709
44.6705
43.9325
43.9829
43.8142
44.7269
53.8813
45.1326
44.2699
44.9218
46.4692
57.8803
58.6571
54.8387
44.3493
45.4261
43.6306
66.8688
63.8613
43.8533
87.9702
73.6052
45.8632
48.5737
44.6955
63.7433
98.6814
44.3337
46.3696
46.8729
46.9569
47.8283
46.6353
44.189
45.4663
45.5109
44.6702
53.5908
74.8225
43.3897
49.2942
47.1483
45.5923
46.5124
47.6462
45.5001
45.2054
45.2665
44.6908
43.9448
46.0432
47.557
43.2013
55.0796
43.5994
47.3752
44.3923
43.5755
50.9197
45.3509
53.3085
44.796
978.199
45.1004
52.669
54.9915
57.0758
60.3606
80.4577
43.7588
88.5248
54.7469
61.7962
98.1041
66.6143
50.4666
44.1296
54.8504
46.5771
137.234
46.2114
121.159
62.8544
44.2703
60.3867
49.4368
47.7731
44.5908
43.6669
49.1595
45.4525
52.0716
43.3642
49.9051
44.423
46.7626
43.8318
81.1072
46.3546
69.7351
841.823
74.3297
51.1827
551.724
44.17
73.2452
48.133
43.8129
76.4683
98.4062
59.644
43.7513
59.5443
43.3933
59.8905
86.5139
43.686
43.6731
93.1975
101.924
78.0944
43.396
43.4287
43.9344
43.9761
78.7091
46.6987
43.8952
64.1539
44.4405
46.6608
43.9138
45.0642
43.4284
42.5209
44.5171
43.1844
42.7614
43.451
45.4672
64.1983
50.641
58.4382
66.4315
43.0232
55.305
43.5213
70.9098
44.0206
64.1729
69.4251
48.2325
49.4585
64.8393
48.381
44.3555
45.7056
44.9648
43.5352
86.0003
48.6875
49.3512
48.6859
61.7836
57.3145
70.6445
97.7909
45.8819
50.372
46.0604
85.9117
45.1329
47.0973
43.7915
75.4459
97.6867
105.993
43.6573
80.9619
54.6706
104.65
53.6534
61.7355
51.5691
57.386
60.8853
93.4788
74.8235
101.126
122.844
56.3694
44.9569
43.4148
48.3521
45.1203
44.8806
43.4444
166.359
59.0579
43.3217
44.9023
46.0196
43.3436
44.9827
43.8333
43.9515
53.5952
74.1246
44.5192
46.2484
60.3589
66.7142
69.7411
52.2859
46.8077
78.057
86.0091
48.2972
49.2454
49.272
48.5786
91.2691
68.6682
46.3782
49.3236
49.6742
49.3196
52.1336
47.6175
85.5547
49.0042
50.8567
48.3701
92.3371
44.5476
65.7854
49.2587
44.0584
44.3502
80.6407
72.7902
108.952
44.1855
57.6631
49.5932
115.759
44.1288
45.8598
106.237
45.6745
49.3236
49.7375
46.4183
46.507
78.6637
44.8577
45.5975
76.1987
82.014
47.0004
47.0838
73.3421
79.9439
104.481
46.6494
46.7055
43.8161
54.8162
64.7175
65.3543
45.7932
64.4887
56.1492
56.2412
44.8278
45.0582
71.311
71.2399
58.6059
48.9037
69.7608
62.1543
45.4679
51.668
55.5075
48.0761
64.2832
90.2801
86.5828
53.5804
46.5504
46.9589
49.5097
50.1199
80.0908
53.6378
51.1291
47.5981
49.3035
50.8908
45.1112
47.6864
102.537
50.6403
102.897
59.2341
66.3939
60.8315
50.0819
54.2619
44.5683
44.1643
44.9274
91.6657
45.0816
46.8768
45.3623
114.082
65.5684
45.3592
43.2502
51.5814
67.1432
43.7643
44.0459
44.15
44.2504
46.4102
51.6077
83.5556
55.9347
44.4132
44.3697
44.1989
43.4648
43.666
94.553
44.8546
49.716
59.2757
81.8338
82.317
45.9105
989.467
167.495
46.2989
51.8652
67.8166
43.1099
43.234
43.5279
43.4635
47.4693
46.8323
57.7195
56.9329
51.0901
49.9661
53.3645
64.6913
70.5161
698.602
56.9349
52.4541
57.9815
43.9291
61.4675
57.5948
72.0799
61.0069
48.0654
49.0711
45.8791
83.9788
45.6641
57.2316
46.5187
53.3628
60.3665
48.096
46.3028
51.62
93.3084
44.2932
92.7766
46.8169
48.0011
77.9252
44.5575
47.0127
43.3473
44.7318
86.9225
44.3261
44.9996
96.8012
50.481
121.735
49.4026
49.4058
48.3391
49.3559
45.2836
48.5706
49.343
47.8597
47.1896
47.7756
85.6154
67.2088
52.5968
56.416
57.0112
52.9685
54.433
43.7383
42.7797
43.1949
52.7976
44.1343
52.3134
48.0447
79.9338
66.5993
51.0555
60.9848
76.1399
46.9372
58.7387
95.6652
48.103
67.9688
61.4788
64.8626
46.9887
71.6673
87.3336
103.636
147.043
44.5672
43.4725
48.8657
44.8767
44.53
43.5808
46.1176
84.2826
73.8808
48.0619
45.0424
51.9744
49.6361
55.9787
119.003
46.6106
52.1839
47.3519
45.4864
43.8329
53.5723
85.3608
91.1029
46.6843
46.9634
49.8813
67.263
47.884
44.141
45.5673
44.5632
50.0165
59.4983
44.3265
55.0851
49.0958
72.7898
44.814
43.3757
53.2698
82.3417
55.1513
56.865
43.5767
43.5432
42.7129
108.912
48.4819
44.4982
48.1935
45.4034
51.4467
56.5481
44.0462
50.6115
106.736
48.5517
74.743
52.521
83.5364
84.4537
57.311
60.0774
52.347
53.3688
53.9357
43.8237
42.8396
48.0036
50.1479
50.8557
52.161
46.808
45.4447
45.2106
45.1234
50.37
55.4768
62.4397
44.0467
60.0514
44.579
44.4399
71.0699
45.9672
44.2445
44.6264
43.5438
43.9956
43.9129
55.7597
73.286
43.8717
48.1238
53.9823
88.5146
43.6585
44.059
52.6412
59.2029
51.1579
89.1319
67.1747
45.9401
44.0274
72.0908
155.24
43.7009
43.2509
46.1393
44.8762
86.2753
105.42
45.679
44.2924
47.2772
46.6804
53.4522
43.8213
44.4488
45.8633
44.1547
560.744
143.824
167.029
46.1282
45.7267
58.9582
52.5549
45.0766
81.9502
95.316
48.5655
46.2129
47.8803
60.3019
48.4316
47.9214
55.4271
108.7
50.5159
50.2523
43.8654
44.7089
43.7099
50.1668
72.8594
102.244
213.743
47.1836
57.3648
101.427
101.861
48.2213
42.9364
43.2856
111.445
46.5188
51.5926
44.7261
43.7732
50.5699
70.7326
56.6518
44.1142
46.354
47.1585
57.7192
46.3469
46.5257
43.8805
45.5947
58.1709
58.8789
88.7956
96.9661
55.0324
54.525
51.495
43.7949
65.5151
49.2802
49.9161
67.5708
69.6336
56.0833
87.2607
44.6755
135.784
61.3197
83.6236
88.6261
75.1964
152.011
104.692
103.406
56.7115
43.4239
100.058
85.0154
44.6564
99.7242
48.7227
83.7387
47.7461
70.5897
54.2988
119.783
87.1025
99.8007
98.8918
136.63
53.5565
54.9595
112.704
80.0486
152.183
47.1411
59.9916
114.864
83.9066
115.345
63.8439
44.5782
43.7773
51.0222
115.143
44.8327
49.842
45.1541
51.8302
46.0615
48.8682
61.9209
48.5685
109.169
44.9112
43.4001
44.2926
137.322
51.2439
52.5184
44.8689
199.334
49.2613
48.9032
46.8607
48.8948
48.7524
192.621
110.652
994.099
47.694
47.4086
49.2275
53.6644
51.4784
47.9982
43.2744
44.2064
43.851
108.381
43.7998
54.0211
50.4487
45.0191
49.374
54.7573
47.2611
47.4535
50.1026
49.2367
49.1891
85.0146
134.127
69.1136
85.1928
48.8909
60.2309
50.7708
49.9066
49.5107
78.3494
127.76
61.0909
125.563
85.5901
108.509
49.019
49.7193
83.9698
47.1376
46.6554
43.383
43.3259
44.0507
43.9759
44.1461
47.576
44.2559
68.6933
47.6008
62.9505
92.5983
45.4782
50.5312
92.1139
71.4938
76.7735
44.9971
67.1135
49.083
46.5476
47.8743
76.02
76.6408
49.1759
94.2551
100.956
121.981
66.359
68.4825
51.4423
60.8572
45.8442
48.1331
60.608
75.5984
44.4296
44.9857
60.9069
145.008
104.718
107.757
62.2213
46.375
104.551
46.6069
94.06
43.4325
64.8072
51.3881
44.2732
46.2517
44.8595
46.3887
45.9334
45.1495
46.4348
44.3555
46.7041
122.287
45.127
44.2
54.2747
46.4391
44.3541
47.0367
60.9808
44.6037
47.816
49.2
47.3303
48.4946
68.4422
46.6661
44.9073
45.4031
45.3842
92.288
60.6587
70.3658
67.8077
60.5484
62.1414
57.3547
43.1043
44.4599
64.5185
97.0873
77.421
59.4878
51.2082
49.2098
50.8037
47.5398