/*--------------------------------*- C++ -*----------------------------------*\
| =========                 |                                                 |
| \\      /  F ield         | OpenFOAM: The Open Source CFD Toolbox           |
|  \\    /   O peration     | Version:  2506                                  |
|   \\  /    A nd           | Website:  www.openfoam.com                      |
|    \\/     M anipulation  |                                                 |
\*---------------------------------------------------------------------------*/
FoamFile
{
    version     2.0;
    format      ascii;
    arch        "LSB;label=32;scalar=64";
    class       volScalarField;
    location    "0.0689058";
    object      p;
}
// * * * * * * * * * * * * * * * * * * * * * * * * * * * * * * * * * * * * * //

dimensions      [0 2 -2 0 0 0 0];

internalField   nonuniform List<scalar> 
3989
(
11.3865
11.8573
14.0149
12.7808
13.9621
10.7523
12.038
14.733
11.8028
5.1135
11.7262
11.6274
6.89705
11.2306
12.12
21.2997
11.0663
8.75499
10.9458
13.2598
9.90497
10.8316
7.60962
7.63851
12.107
11.7341
6.42093
12.058
11.6017
11.1242
12.0956
4.37367
9.57196
11.1869
4.38219
11.9976
11.4294
9.26171
11.178
10.8124
8.60451
11.9584
12.1679
12.1459
10.6999
11.0708
11.1485
11.9609
11.7855
10.8791
6.57325
11.077
10.9701
12.1222
13.3232
11.0031
11.6656
8.2414
8.15181
8.22613
8.73031
8.84684
30.4109
53.436
18.1559
11.2586
11.4969
10.4103
10.0519
10.3001
11.9893
11.7073
10.3462
10.1084
11.9742
14.4314
10.623
10.7458
11.5966
11.049
11.3986
11.3579
11.6905
8.33762
9.45331
11.2012
9.28741
11.0692
14.3382
10.9891
9.23954
11.5459
11.5794
8.64744
12.0291
6.08135
5.27646
12.0279
6.09915
2.89622
11.8873
11.8543
12.1161
12.1351
5.69232
12.0435
9.27115
11.9209
12.0344
6.78642
10.0243
12.0751
11.6362
10.0769
11.3962
7.96854
10.2224
10.0692
11.16
11.1601
11.4049
11.6139
10.725
12.0316
18.3781
12.714
11.9829
10.4293
12.0224
5.42237
7.07124
12.0374
9.6848
12.1331
12.2037
10.4811
12.1042
12.1139
12.1743
12.0994
12.0395
12.5026
8.56817
11.9685
12.0624
4.84983
11.9399
1.07695
10.8709
14.0746
17.0153
5.52329
4.75109
6.02866
4.86373
6.07976
15.152
5.24007
11.6811
12.2054
12.1761
14.8849
11.7386
11.9278
11.793
16.4771
6.19887
11.8598
14.4194
8.78706
16.2004
11.4263
9.97625
8.86078
12.3487
12.5587
12.0685
9.58227
3.11534
6.18073
9.2724
8.63766
10.6997
7.94523
9.44416
8.88548
11.4633
9.25171
12.0346
12.0043
12.8987
9.87164
9.28239
9.45105
12.4126
8.98822
44.3305
21.5387
13.898
10.0151
6.34672
11.5075
11.3607
11.233
11.5153
11.3979
11.7858
11.8666
22.4782
19.8912
11.7598
14.1901
25.1859
14.8331
6.45311
-47.7779
23.8897
11.9863
12.1468
11.7502
12.6024
11.001
11.1024
11.8555
11.8567
12.7763
12.2714
13.6725
11.5999
9.78117
8.67478
8.39309
8.64785
7.92383
11.6755
11.0215
10.7398
10.918
11.0432
6.08746
18.3941
11.0479
11.0973
11.0268
11.1714
15.2628
11.4825
11.4629
11.2985
11.3204
11.4969
13.5873
11.3628
11.9692
12.0765
11.6261
11.0105
10.9133
13.6174
12.5638
13.8267
8.12923
11.3495
7.27293
11.3364
11.2428
14.8693
28.5352
9.26704
9.56993
8.67207
12.1859
12.2329
6.57543
10.2642
10.5559
10.4416
10.1993
13.0044
4.80226
11.9115
8.02339
8.24389
7.41059
10.3028
10.0831
7.84173
7.83648
8.09909
8.61641
12.0423
11.9015
9.45238
14.5429
10.3704
11.3152
10.3254
12.0962
32.1633
26.3691
13.9246
11.3737
11.7339
13.8186
11.584
32.9854
7.86875
11.4727
11.6254
11.7251
16.5443
7.00264
36.1213
37.995
12.1177
12.1238
8.81082
10.0569
6.22901
12.8448
3.19654
10.8241
10.2589
10.929
7.15611
7.68016
10.0341
10.0329
8.88021
8.13787
8.67438
11.9739
28.1157
10.8308
10.6248
6.89541
11.9364
9.33242
11.047
10.9796
30.8492
12.8422
8.30774
12.6544
7.00803
15.444
6.36081
12.2282
5.35451
12.1226
8.40262
13.6625
13.9654
9.94553
13.3118
11.4834
13.0741
11.8912
0.0625552
11.619
3.66876
13.3296
10.9062
3.86279
1.81752
12.1885
12.5625
10.3559
10.3034
11.3218
13.2419
10.7582
3.8967
11.7019
13.4743
11.0377
4.28431
12.4424
5.45227
6.52611
12.1079
11.9895
11.9594
10.6613
10.3219
10.1014
10.3774
10.3677
10.6518
9.98538
11.5433
10.198
11.3093
10.8803
10.2745
14.8926
12.069
12.1432
15.4498
10.8948
11.5009
11.4979
11.0123
11.0754
10.9352
12.8215
15.2301
-20.1427
15.1561
15.6292
7.80584
-4.24848
21.6525
50.2823
8.87521
19.2415
15.9908
12.5586
13.089
10.1167
42.9503
12.0167
11.9635
37.0084
15.1147
10.9749
13.8811
36.2243
11.5278
18.135
13.8457
13.5863
10.1236
6.4151
-1.05105
14.622
11.7599
11.9134
13.224
13.5486
16.2146
20.6202
17.6753
11.8421
11.8995
10.8127
11.7978
11.1975
11.9897
11.9051
8.40905
13.0256
13.1276
16.2457
29.939
12.9855
11.169
11.0548
16.1963
14.5081
14.375
12.1125
12.1225
12.0907
12.2023
12.1231
5.42818
5.78587
11.0569
10.9946
10.9774
11.2007
11.1215
11.3184
11.9225
11.2139
7.50244
7.22195
7.85924
6.92096
11.2937
10.3549
11.1168
11.7325
17.1624
11.1669
11.1948
11.2626
13.1012
15.6899
4.57177
14.9197
11.7592
12.0182
12.1173
12.3863
14.8716
12.6974
12.1172
11.6639
12.4831
12.2777
12.8097
13.7963
13.6958
11.7043
10.6469
12.168
12.059
10.4685
14.9504
9.68208
9.69249
12.2782
13.0223
10.6053
10.5795
4.87277
4.11307
4.90111
5.50758
4.08633
11.9811
7.5085
3.09713
3.74424
8.67601
10.8448
9.33623
6.77446
8.76654
8.78289
6.31006
13.4967
11.9213
4.9321
15.3886
4.94518
5.26924
10.9839
11.8017
10.5267
10.0863
-109.871
-66.7457
11.9323
14.292
14.1936
11.4133
13.6072
17.5899
12.0825
13.508
10.865
11.2817
12.3425
14.1939
11.7502
12.69
10.9413
3.3712
5.86208
4.83542
15.2709
11.2303
7.90679
17.9005
7.91861
9.57556
7.57964
6.25703
6.73399
22.4906
31.03
9.8102
4.04083
4.50594
11.8348
11.7546
25.8262
14.0469
15.7283
5.48687
23.9949
18.6889
11.9802
4.19984
5.77255
16.3996
11.9016
12.8051
7.48897
9.88547
53.4529
42.5783
7.44619
11.7939
11.7039
11.8274
12.1731
11.3637
12.2887
10.5507
10.7429
7.57466
11.7455
13.591
11.9576
10.1046
11.8614
10.9509
12.3183
11.3633
5.89047
12.3087
3.76841
11.5345
10.7
11.6063
10.7862
10.4995
5.82389
5.30972
10.9065
15.5375
9.45858
11.9488
12.2375
11.2437
11.8356
11.5296
11.7212
11.396
10.8489
11.8994
11.8274
11.1016
11.353
11.6436
11.1094
10.6043
11.3313
13.6724
12.0197
11.7943
12.0597
11.957
12.0558
12.9748
11.8511
12.1933
12.5606
11.8962
11.6626
11.7912
12.0501
11.7573
10.2705
10.397
11.9236
11.2986
8.40126
13.381
12.0162
12.1928
11.8447
12.8863
11.7731
6.77216
11.0419
10.3034
10.8703
3.73593
10.3698
10.3938
13.8463
6.64949
11.739
9.80911
12.1618
12.0874
8.68044
10.1684
11.0777
12.0517
10.9583
8.36747
11.7842
9.95265
9.3985
7.12459
13.4604
9.1909
12.1163
9.95884
5.89935
12.994
10.9864
9.72207
7.10446
2.88856
6.99234
10.4277
5.30342
9.1276
7.04645
11.8946
12.2703
12.4033
9.45861
12.0529
12.4223
14.2487
14.013
11.0402
10.4
11.0524
12.5194
7.98408
9.49942
12.158
12.7626
12.179
10.3706
10.5711
10.3591
14.6384
17.9901
11.3517
12.5276
12.1786
13.4502
13.8206
13.4646
14.5958
9.89234
0.558944
7.79399
14.3472
12.9084
13.239
13.866
11.0396
18.6492
17.4258
11.2484
5.47134
40.0965
6.59518
25.8034
12.8757
12.6873
9.53649
9.54968
9.20655
17.4471
12.4944
9.78946
13.9284
14.2467
14.0365
13.2843
13.9935
12.0027
11.648
11.9238
12.4124
11.2042
10.871
11.9952
11.7676
10.583
11.527
11.0611
10.0625
11.7096
11.3873
12.3383
11.9514
11.1971
8.11032
10.743
11.9574
6.09728
3.73032
12.9142
13.6083
13.6202
16.3193
10.5378
8.37922
6.18546
8.67173
23.1587
15.8257
16.5398
9.43889
15.0418
10.8799
13.1445
6.05158
6.21841
6.03026
5.59919
14.2559
14.07
13.4491
13.6797
14.0183
13.9879
14.5023
14.4747
16.4129
11.1533
11.0208
19.4211
28.7131
30.4786
24.5239
15.9493
10.1845
10.2314
10.691
12.6909
11.2743
26.0852
10.5883
11.2488
11.3951
8.96358
6.09109
8.31978
8.675
7.63652
6.40586
8.37068
4.11845
8.01774
10.5966
12.1207
10.1639
12.9517
40.409
23.8014
10.4188
11.5533
6.11011
12.3513
8.50764
17.1177
9.52187
7.14804
10.8526
11.4968
8.36671
4.8851
6.81073
9.01806
3.80221
22.2751
9.41495
11.6212
16.4006
7.99576
4.59877
9.46458
6.29075
22.0078
0.473562
5.34991
12.2123
-6.85331
12.3856
-8.17775
1.14823
7.57489
7.25925
9.69977
3.71592
21.3607
11.4605
-19.0146
6.12783
10.2467
-7.85705
9.12884
6.39711
6.79924
6.68064
8.21736
5.7693
12.0687
12.8804
12.0373
12.4188
12.5926
11.7609
29.4523
13.6074
13.8002
-7.17663
15.3912
-3.15558
12.8347
13.8301
34.7839
-19.7712
-1.97313
-41.7701
-47.4546
-32.0099
12.6953
18.3137
8.46641
-67.6977
49.5128
11.0596
23.6414
20.196
38.669
9.05016
14.8324
15.0318
12.3684
17.5746
11.3551
15.7161
16.3435
8.49001
16.8289
10.2642
6.94874
6.6019
11.9416
13.2793
8.86925
9.11501
2.64336
11.5355
17.9531
57.6823
56.6343
10.2519
10.2025
15.0678
37.3872
10.4246
12.2264
24.1388
17.1731
14.6435
15.8586
13.4112
25.652
23.2255
13.2288
1.67216
3.05571
1.10401
8.14601
14.3733
13.0783
5.50561
9.89442
9.51979
13.1026
12.0049
12.4232
12.2891
12.0563
13.2342
13.7881
17.8832
11.9627
12.0377
21.8011
11.6451
12.1654
12.2399
14.4859
14.3429
16.2963
12.1705
14.0095
13.7006
12.4656
12.5346
12.6768
11.1872
13.3866
14.1251
14.8658
13.0113
13.3541
13.8211
28.1547
13.6865
13.9293
11.7241
11.2806
13.7896
13.1926
15.7246
13.1195
11.858
11.1737
11.3955
13.6945
14.3322
13.7088
15.3047
13.8362
14.5176
24.0751
7.21279
5.5033
4.5626
5.67944
12.88
9.63638
9.5205
9.4372
6.11885
7.68089
8.3549
6.07129
6.87607
13.8193
12.5243
12.9453
13.7328
12.8044
11.8152
13.1203
12.0542
23.8579
13.8162
14.5652
14.7692
15.3444
13.3285
13.3178
11.4507
11.1234
11.3461
11.2812
12.9117
12.8135
14.4331
4.8218
20.3834
16.9535
9.51763
9.07222
11.5529
13.5025
13.782
13.0061
12.8673
12.0725
4.26298
4.51817
13.5519
14.2977
14.3419
6.62737
9.11695
9.75811
8.13323
5.13941
11.4686
11.9522
13.2217
11.5793
10.2373
10.1927
6.69075
6.37334
11.0202
6.55607
37.2023
19.7529
14.2867
13.0876
15.1989
15.7594
15.3103
13.0774
7.61236
10.0561
8.73167
10.2532
6.126
7.44314
5.79491
6.44261
12.8385
14.3103
14.469
9.0811
9.40446
9.35371
9.38696
-73.6089
9.55151
13.0012
15.6268
10.2033
6.25379
5.76677
4.77842
9.37262
5.48631
7.97877
4.05631
7.77955
6.12968
3.34439
10.3264
3.83954
9.4926
7.17051
-1.59423
22.2889
9.62771
10.6776
13.7102
9.57447
14.7666
38.587
31.2784
25.9762
31.0786
14.2473
11.9528
12.8122
11.0406
13.3491
22.9107
15.2057
13.7669
11.8828
14.6574
2.82194
5.81272
8.30537
7.0739
9.32761
8.41175
16.8271
21.8585
7.10748
7.96135
11.8038
9.72373
12.6001
6.20831
7.43733
16.8268
11.3525
6.90815
11.5586
11.6751
8.56505
4.5417
19.4256
19.4645
11.6843
1.25504
14.4101
11.7705
11.7556
11.8554
11.912
14.3721
11.8663
15.6249
15.7839
16.7357
11.541
4.57168
11.7718
11.0778
7.91641
7.20645
9.8656
11.6481
11.4809
11.4814
12.1188
12.79
11.8411
12.0601
11.6393
12.2399
13.8405
12.4594
12.0662
10.9051
11.7355
11.1082
9.84601
6.57452
11.4879
11.3172
11.1407
10.1993
11.2349
10.7275
11.0432
10.7685
10.1376
10.9039
10.979
10.7951
10.7659
8.50587
12.6276
12.6611
12.7553
12.8528
12.4217
12.4235
12.4754
12.6601
11.9141
11.4528
10.7211
11.6596
10.911
10.6991
10.5462
9.96209
9.31719
10.4512
10.7983
9.53812
4.65615
5.54823
4.47697
5.23306
5.43402
11.0122
6.9836
11.0852
9.67343
12.9813
3.89404
9.49083
10.8738
10.6103
10.9655
11.3392
9.59245
8.33392
9.82076
11.6138
11.4618
11.9668
13.1718
11.5725
10.9803
10.9156
12.1246
11.7536
11.5602
11.4919
13.373
11.6926
12.279
12.0432
11.6021
12.049
11.2371
30.105
31.9078
12.0873
10.1244
9.36251
10.7352
11.7623
12.0733
12.1219
12.9598
12.1792
12.0432
14.1607
13.7372
13.2403
13.3122
12.7099
12.6722
11.7969
12.118
11.7963
11.8022
12.1485
25.4671
11.9606
12.1961
12.0592
14.264
12.1552
11.9016
12.0669
12.6495
10.6496
11.5524
11.7054
6.13725
11.5415
9.17226
8.74127
11.5276
11.372
12.2382
12.34
12.3568
11.6985
11.543
11.8202
11.6287
7.80497
10.6555
9.3658
11.2745
5.51368
8.68483
10.2443
9.24198
11.3262
11.8585
10.6179
6.23941
6.11835
11.4998
12.4659
12.5946
16.7519
11.9366
9.69925
12.742
28.5556
2.83263
3.92951
-13.1547
9.09705
4.5978
45.2786
11.2883
14.1144
11.9392
13.9283
12.8317
12.1976
12.237
11.3443
13.7871
10.935
11.4491
11.5468
10.7128
11.0079
11.5461
7.55311
10.011
11.1831
12.1459
11.8894
11.8384
12.0198
12.4802
6.2403
13.0746
14.4754
15.0993
12.044
12.9866
11.7498
11.4997
10.7543
11.0144
14.05
12.8077
12.289
11.5494
9.86964
7.4814
10.4241
10.4324
9.10679
12.1908
11.7601
9.27756
8.71886
12.4324
11.7425
11.3413
5.61282
14.8749
11.5822
14.6788
11.1636
11.2206
9.83362
6.44924
10.3894
9.11938
5.53596
5.7036
14.6593
10.0362
16.4531
13.4355
9.64639
17.1717
20.2158
25.651
13.7334
14.0059
6.69651
2.76711
3.08585
14.723
12.5759
11.148
13.3361
12.3694
6.78456
10.78
12.2612
14.6119
-81.1669
-40.6956
-41.1884
-25.509
-154.091
15.9367
8.48976
8.18478
10.6686
11.3851
12.1716
11.0212
9.76675
10.749
10.1479
9.93793
9.60784
-6.72163
23.102
25.9379
6.48909
6.58587
30.36
10.5664
11.6387
13.0437
4.11464
7.66062
10.7032
14.9929
7.89438
12.628
12.6717
9.96449
5.23063
8.30635
11.9513
11.7326
10.2897
16.1039
3.42788
40.3514
12.8284
19.7042
13.3589
11.5151
11.8777
11.6823
6.51293
4.70997
11.5865
7.49981
36.5346
12.274
41.461
9.10425
7.19076
12.2369
5.10809
14.7974
12.3008
11.6182
9.81646
12.7053
10.822
11.232
12.1571
12.0681
11.9478
12.4379
9.80571
13.0152
10.4255
9.89644
11.9316
9.79069
11.3637
38.9456
10.9305
48.8958
46.3193
11.937
10.5616
17.4165
10.1476
10.4604
11.1052
11.6357
11.9899
3.47968
11.7666
11.8485
8.17475
5.37043
11.4116
9.30599
9.00321
8.41801
11.1676
6.57327
5.57629
7.85763
10.9104
10.8178
11.4984
11.1274
11.7896
11.7961
15.4459
14.9973
13.8971
13.0356
12.3033
11.4343
-16.7084
8.98607
9.80185
8.86437
9.76567
14.2854
5.05007
8.01771
10.9564
11.1683
9.12074
11.7565
11.0657
10.6271
11.0185
8.64541
10.313
7.82586
1.45088
48.3694
-64.6447
11.1584
11.5847
-101.219
10.0489
10.8642
10.298
10.3818
11.8918
10.2834
8.43391
5.55258
10.8576
15.3298
11.6348
12.6083
11.9269
11.7507
10.6638
15.7189
10.7419
13.4132
21.2419
2.18739
10.5172
14.4568
11.8604
11.7317
21.7667
7.15139
22.1561
6.24207
31.0419
24.3741
7.9868
13.491
7.63142
5.29075
5.43823
4.80576
9.0205
8.83771
8.41554
12.0748
13.5493
13.7938
9.63863
12.0439
19.8437
16.1437
12.025
12.0542
8.06515
-0.991873
8.68429
7.43051
13.1952
12.1159
13.5045
14.1187
11.7564
13.1928
14.969
25.3107
20.5337
9.54004
12.0601
12.8691
11.8097
16.0959
12.0771
12.8712
12.0586
9.00405
12.8772
13.2681
15.2166
14.2462
13.2273
13.0333
12.1163
12.9549
14.1472
13.9078
13.4111
12.0696
12.458
13.7044
13.8101
13.9163
12.1303
11.9816
14.8291
13.3109
12.0964
11.3998
12.013
11.3201
11.1988
4.75302
12.7179
12.5675
12.7612
12.1958
14.9728
13.3371
13.6539
14.2745
11.5966
11.0638
11.4147
11.5658
15.6557
24.4845
25.5198
11.8593
13.8598
14.2744
12.1323
26.0661
25.1979
28.6204
29.6694
11.4989
11.3061
13.4118
12.7099
10.1058
10.2134
10.2346
10.2354
13.0503
12.092
12.1318
12.0473
12.1528
12.0043
12.0474
12.1861
10.7163
10.7895
12.3388
12.367
11.3998
11.5463
11.4274
11.6494
10.9966
11.0201
12.0431
12.0318
11.9758
12.0606
12.1453
12.0771
12.0837
11.099
12.0936
11.884
6.39552
6.19119
6.81149
11.0301
11.2446
11.12
11.1519
7.67718
4.31655
12.108
8.50539
5.8196
8.73494
8.44756
5.22826
6.12332
12.1177
12.1164
12.2218
12.1371
12.052
12.042
6.98991
1.88338
12.0017
14.526
14.3424
14.9665
12.2498
11.9206
10.1018
11.1408
11.3421
10.3379
8.72397
12.7481
5.6319
7.56434
10.4186
15.6053
9.41086
9.09301
6.61183
8.14966
8.15014
13.6023
15.6213
20.4054
19.2467
20.3817
15.027
7.81763
13.5921
11.4537
12.1856
14.4353
13.0407
8.12375
8.54477
11.664
12.364
12.8378
12.5084
12.1191
12.6185
10.678
11.2956
11.4301
10.5197
11.1572
10.6128
10.8796
11.2423
11.6107
11.7386
11.9365
11.6596
12.1074
11.9019
12.1065
12.0577
12.041
12.0349
22.3241
11.6888
11.6707
20.1688
11.7545
11.7555
11.9608
12.046
12.0929
12.2724
19.3108
19.4309
3.50507
4.25806
4.98593
5.00533
4.44329
12.8669
16.181
16.5198
13.588
9.81482
2.98278
7.06128
7.64208
6.38226
7.31429
7.61738
10.3822
8.40539
31.9117
17.7447
19.1088
15.0986
5.97982
8.66406
7.69511
4.11503
8.12406
8.03491
3.70212
37.1783
22.4414
19.4977
12.3567
13.465
14.9829
16.4457
12.1433
13.3951
13.682
12.4509
12.7696
13.9206
11.5995
12.096
11.75
11.5628
11.6668
11.8333
13.1555
13.1075
12.0267
12.1934
11.5365
11.7248
11.7209
12.1243
11.866
11.9088
11.6651
12.0435
12.0937
13.111
13.0559
11.6568
12.4301
12.6522
12.2829
12.2055
10.6765
12.2138
12.7189
12.7212
15.3672
14.6898
15.7392
26.1319
11.5151
12.4572
11.2115
10.1764
10.0391
10.021
10.1538
10.3503
10.2955
10.3012
12.7286
11.0371
7.82908
10.1326
5.07384
4.82225
4.25231
10.1246
12.7707
13.8281
6.85597
6.7993
7.33857
7.17296
11.056
7.50442
7.51604
10.6316
10.1279
8.99023
-47.2463
11.873
11.8101
10.7497
11.7367
11.0421
10.9994
11.9367
11.876
11.9275
11.3457
11.6937
11.0858
12.1601
12.0735
12.0703
11.9828
11.5966
11.7558
11.6936
12.7994
11.2466
11.0412
10.4948
10.5348
10.6945
10.6828
9.83407
5.81118
8.93315
10.5653
12.3636
12.3577
12.3132
12.0752
12.0845
9.51632
8.29639
6.30549
6.61344
12.0739
11.5342
10.4592
10.1982
11.7616
11.8868
10.9619
8.37166
10.8074
12.1117
12.0924
12.3928
12.1447
12.0217
11.1324
12.2555
13.8935
13.9191
12.5003
12.8131
12.5069
13.4178
10.6072
10.1845
11.6522
-33.3951
8.78458
4.61508
4.30678
12.4586
9.17455
10.9858
13.4557
10.9342
10.9905
13.4665
13.4451
13.3111
12.0151
10.48
12.2128
10.4766
12.5086
12.9714
13.0744
12.9737
11.5278
12.0781
11.489
9.32013
8.67373
15.4266
15.1756
28.6163
27.9652
12.1238
13.4012
13.2666
10.2384
14.4165
22.1872
6.98668
7.53078
12.1409
10.2869
11.7902
11.7658
11.0371
11.9519
11.9544
11.8992
29.56
12.1867
33.662
10.2255
10.1792
10.4165
12.4924
8.21713
13.3546
7.37234
11.9214
30.3916
57.3561
11.6785
12.2351
11.8157
12.396
11.604
11.9127
11.8997
11.8979
12.1008
11.3802
11.6792
11.5376
7.94421
10.3117
10.2696
12.6755
11.7905
13.1484
12.4535
14.2942
10.9444
11.0288
11.0392
10.7575
10.1254
14.1613
12.0261
12.577
13.8226
13.4644
11.151
12.2886
11.841
11.22
11.9788
20.8582
12.0432
11.9239
20.5916
3.27234
11.6356
28.1963
5.07078
11.13
9.84364
10.3542
8.72597
12.305
6.35788
11.3972
11.3337
7.63443
16.3105
11.2834
11.332
11.8538
17.7125
14.3162
9.60285
12.4751
11.9612
6.97462
11.6748
8.97138
12.7349
10.2761
12.7989
10.8912
10.9186
21.6442
16.1318
25.0395
20.1512
15.5694
15.0604
14.012
15.1738
13.7751
13.2636
12.8712
11.2447
13.8578
7.67506
44.4029
8.58084
54.5794
17.5142
23.5371
18.9623
5.35101
7.29006
13.8496
5.90473
33.6873
30.623
28.4975
11.0742
13.3267
10.3563
12.7683
12.8516
12.1991
8.0292
21.0117
13.8092
13.3525
15.8396
16.8321
18.3077
18.361
18.199
10.7106
13.848
13.413
11.5414
6.83808
7.17774
5.90758
7.19306
8.17339
12.3737
10.5583
7.20591
31.4546
19.4656
12.5451
14.0059
17.5698
10.8554
19.5283
20.3071
11.4493
15.1048
15.8358
2.9303
12.0753
11.6324
9.33105
11.0148
11.9414
10.6977
10.9577
10.7611
10.9051
11.1866
9.88214
5.01436
21.4433
11.773
5.97326
8.75221
12.691
5.58195
4.4271
8.51814
-4.80553
13.431
0.066291
6.19958
7.89994
11.634
10.7595
7.43236
19.9713
16.9751
3.31063
6.1676
20.3526
-103.837
28.6338
13.8952
13.734
13.3607
9.85606
13.023
14.1891
15.2774
13.3204
15.4319
13.9554
13.7405
18.9036
19.9544
18.4031
15.0891
12.2019
8.33372
8.08042
43.0791
-36.9333
13.3362
22.0316
12.1804
13.3332
9.93998
18.1031
-44.739
17.0282
25.289
16.4153
18.1067
36.6133
22.779
14.0022
7.0048
5.0128
3.59319
11.8589
13.7944
15.4435
10.6924
11.8049
5.4222
7.41474
9.10431
10.6354
15.1174
9.85277
15.2817
12.6866
13.0925
14.8009
15.6935
15.9806
15.166
13.4381
15.7133
14.3015
13.062
13.2578
13.4182
11.9381
13.2909
10.8401
11.872
13.7845
12.9529
11.9566
5.34087
10.2673
12.2782
12.2761
11.3053
9.03865
13.01
11.3489
8.14128
11.0873
13.4754
15.3286
8.58562
12.0605
15.5715
13.6526
12.7149
17.8973
10.5856
9.34404
12.1013
12.0754
12.0652
6.66967
13.7983
12.0399
11.8843
11.8638
11.9771
11.9628
9.35774
11.8807
11.9116
11.8219
11.4037
11.3655
11.4523
11.8247
6.87578
10.2326
7.87628
6.59887
10.9536
8.30339
8.54946
10.7415
16.8423
14.7352
7.00781
12.9715
15.1963
13.8545
14.2556
-142.014
-89.3327
17.9986
13.2771
47.729
19.7093
13.9175
15.7952
16.1861
13.463
15.1141
14.0291
13.4014
13.4785
6.77302
12.1216
11.5267
10.3298
14.3644
11.7041
13.1493
8.96078
10.6891
12.9629
10.0172
26.004
10.5365
12.0543
12.1385
12.0584
12.1657
11.7214
11.9061
11.8456
12.8705
11.9224
11.5282
12.0066
12.5637
12.9821
12.5166
12.4779
11.9198
11.9754
12.2202
11.411
12.0446
11.9256
11.7591
11.3253
12.3145
11.0935
11.1227
11.0218
10.3206
10.538
11.9859
12.1042
11.9574
11.59
11.6606
11.6203
11.5919
9.65435
12.2649
11.3713
12.0991
12.115
12.1583
12.1194
12.1069
12.1513
12.4878
11.7406
11.9064
11.8358
11.4842
8.48788
10.9298
10.6737
10.3867
12.0892
12.2412
12.0591
11.8648
12.0645
11.0223
11.0163
10.993
10.8639
10.8577
10.9945
11.0132
11.0948
11.0564
5.42625
10.9987
11.4942
15.616
15.2089
16.3089
11.2243
11.3197
10.2844
10.9536
11.0226
11.0962
11.0186
11.3735
9.59589
11.8588
11.0163
11.0478
8.71828
5.79814
6.23059
5.79197
5.52649
11.2728
12.0149
5.46469
4.69941
5.83587
8.29765
12.0224
12.0636
11.5039
12.4933
12.1149
12.0517
12.6922
12.07
12.2345
10.9883
11.9499
12.0934
11.6256
13.7266
18.2526
8.90091
8.51455
6.89155
4.30058
5.1562
4.5331
5.34639
5.1835
4.66526
9.26692
9.21103
9.89212
17.9067
15.5679
9.42488
15.0659
10.7324
7.25036
10.9797
3.12091
3.35773
3.21191
4.26896
9.30758
13.0536
13.3501
14.7209
15.0556
11.074
11.142
14.51
11.0228
9.5729
5.32304
14.4168
12.5789
12.2444
12.4851
11.6627
10.3068
15.1396
12.4007
9.73527
10.9505
10.0806
13.3618
7.31788
11.3913
11.2432
9.88025
11.1717
10.9578
9.78002
5.99656
12.8702
13.2854
5.36987
13.5583
13.4639
13.4768
16.5319
13.2838
4.72257
7.83322
27.0648
9.56439
10.3398
15.229
5.50226
6.82176
6.3039
7.14373
-123.424
34.2623
11.8635
12.9152
12.4706
12.0636
12.1485
11.977
12.0651
12.2777
14.506
12.2231
12.2926
12.1003
11.0651
16.1353
9.77115
9.83165
8.02623
10.6427
11.2663
11.0038
11.9
11.3862
11.5575
14.005
11.1362
13.7676
12.765
13.5654
13.0965
14.0653
12.9807
13.2989
51.6297
11.7113
50.3339
14.7698
15.2566
52.7134
7.83041
14.3114
11.282
10.9289
10.4924
15.2586
11.761
13.6032
21.5718
18.2397
10.8661
11.6755
12.6852
4.02832
12.6148
14.2856
12.649
16.6832
10.8865
17.3115
13.6609
12.97
12.8468
12.9108
12.44
13.9787
14.9065
13.2991
14.664
14.1157
13.0407
13.5006
16.7612
17.3618
15.333
15.0384
14.0674
14.5299
14.6863
12.0244
15.6693
16.4072
12.7209
14.1945
12.1018
13.4179
12.8384
14.3183
9.60931
10.7882
13.4367
14.9233
17.9049
10.2657
3.27614
3.56208
5.34749
2.99991
5.7034
6.30925
18.532
7.57291
6.23278
10.8639
10.1735
9.35638
28.2574
8.47851
16.1534
17.957
26.0511
24.6713
15.3354
12.7744
13.2216
12.0038
26.9678
15.1821
7.98599
40.0281
13.3976
14.9994
9.34023
11.858
12.0561
4.74743
7.81344
6.65202
5.80715
12.2553
11.2048
9.72421
11.1843
11.1144
13.3625
13.6563
7.84808
9.69669
10.7146
14.3304
3.1883
12.6817
12.4477
12.0576
11.9717
11.9424
11.8383
15.239
13.8305
6.10043
23.4843
11.3213
2.44375
13.268
6.81121
9.58835
9.78838
16.8197
7.07229
7.79855
7.20875
20.2084
12.2608
18.6926
18.3877
18.6137
18.4822
12.7129
8.77407
9.20171
14.1868
15.742
56.7032
9.42799
6.4794
10.4994
10.6504
6.132
7.26703
4.78918
5.05699
-93.5055
4.89695
5.27373
23.9291
21.2096
8.66239
11.3148
6.28928
14.2713
0.707837
28.5478
3.65216
10.787
6.27487
13.9771
19.4511
13.2956
23.1965
11.3291
15.289
7.82622
25.4461
21.4898
22.135
15.9256
1.70641
28.1284
13.2892
53.0352
19.0351
3.78347
-82.7596
-151.134
11.9818
14.8558
12.9587
14.2315
20.1137
11.0468
9.85012
35.359
12.8963
12.5118
11.6051
-24.7818
11.7746
28.6945
9.9932
22.2318
10.9379
10.5465
15.1604
17.318
13.0643
15.4701
14.704
-9.42536
9.20323
21.448
25.1116
15.8226
9.11619
11.1137
13.5558
13.0065
13.3425
14.4983
15.0597
11.8861
2.65252
-48.3492
19.2074
7.28891
4.51112
9.16467
4.57634
11.4882
0.638143
12.1809
14.7112
16.7571
17.2901
15.3597
11.3504
16.8458
14.171
11.9473
12.3504
14.9326
16.0865
15.3184
12.9806
10.5656
13.1486
18.0728
14.0526
14.1425
14.3415
13.0239
14.7368
14.0821
-15.0039
12.0876
4.73902
4.81627
5.84711
5.82427
5.27056
2.77035
3.32991
11.0231
12.1054
13.4638
6.49928
6.46385
9.47063
6.878
7.13013
5.15969
3.95449
5.51557
8.95407
10.3733
12.43
10.6614
19.4166
25.0056
19.0189
18.741
15.4291
14.0495
14.6092
22.3988
11.939
19.0126
17.5894
11.1538
10.0821
11.0667
11.3018
10.2102
15.8187
12.8483
15.148
3.72472
6.85533
5.59496
10.2507
10.2362
15.6843
12.4075
12.4176
14.6506
12.9085
5.82619
11.7349
5.80034
16.373
5.33608
6.87178
14.2881
13.919
23.1805
14.2873
12.3695
41.4216
15.9542
3.72753
28.6862
4.33852
19.7861
22.1269
12.675
13.1021
14.153
13.2598
10.8638
11.4043
11.415
6.48169
13.3704
12.6706
5.78896
12.0571
12.5844
12.1158
12.3508
33.2134
12.3621
-135.819
13.1375
4.36634
3.51947
4.32958
3.75867
6.96626
10.6247
10.4943
9.29208
5.5471
3.76961
5.39172
9.48296
6.1119
9.78887
8.14893
8.46107
6.74203
9.1864
4.62251
8.53565
3.41743
13.8928
16.9235
4.57874
6.35316
4.25051
5.53705
10.598
5.24207
13.5457
14.3373
11.7563
13.884
11.4947
20.3567
6.5402
31.1595
22.8432
22.4145
30.5162
11.6037
12.2561
14.5899
13.0513
23.2859
41.9575
20.2475
13.4268
12.885
13.0559
3.33324
4.46799
13.1927
12.1434
28.7716
21.7318
6.52837
14.9513
14.812
15.4523
11.4516
6.58258
9.83728
19.401
11.5687
9.34691
6.57455
7.80192
10.3223
4.54973
4.64028
5.5589
6.99672
5.19175
12.7613
16.8923
12.1619
14.6745
31.6775
14.0596
8.226
13.8695
15.8765
12.9589
15.5913
11.8206
11.7451
11.8177
12.125
11.9346
12.0472
12.731
14.7571
14.6263
13.6939
11.9976
12.0576
11.9844
11.9344
11.9201
11.6674
11.4361
11.7767
11.6944
12.3965
11.9014
11.8694
11.5451
11.4355
12.4611
12.6462
12.0144
11.5417
12.1191
12.4795
12.364
12.8587
10.2276
1.59625
13.0119
7.31451
11.1323
10.7883
10.8636
10.7821
10.893
9.55512
16.8048
16.5014
11.3839
17.2495
17.6003
15.5289
9.34064
5.36213
16.359
17.9543
19.5791
19.3505
19.0921
16.5196
17.755
9.51604
10.156
12.9575
9.05114
15.6614
12.557
11.7471
11.7829
12.0985
11.032
13.2275
11.8268
12.0327
12.0578
11.9303
11.9292
12.0785
4.81942
11.946
11.9252
11.869
32.595
27.48
12.0903
12.1193
29.507
28.9966
12.0058
5.40908
10.4682
11.6875
10.2853
11.383
10.6502
10.7763
10.5373
10.3052
10.61
11.0934
5.53292
10.822
9.80827
12.3597
12.0667
12.0932
11.1852
11.4712
11.6675
7.64781
10.0011
10.187
8.04768
8.47704
3.98623
4.10319
11.3167
11.1202
11.12
9.6761
3.5474
12.5757
11.7123
11.8841
11.839
12.3079
11.9867
12.0711
12.2614
9.27327
12.3786
13.4148
12.4318
12.1076
12.2396
12.3092
12.2416
12.3507
12.5644
16.7889
10.891
11.1678
5.84239
6.65827
31.795
16.2372
17.6366
15.3825
13.8959
10.7719
17.8097
14.2358
10.9904
11.0584
12.2722
12.1455
11.6727
3.43033
3.49826
8.93626
9.6357
10.2257
10.1899
9.37854
8.61279
10.4354
24.4276
8.95629
10.8001
10.4794
7.78619
9.02687
7.88529
10.8341
25.367
8.26629
6.02612
10.8915
14.5464
14.7789
14.9941
15.4637
10.0101
8.34906
5.939
8.86128
11.2724
11.637
11.5542
15.5653
16.9075
9.94445
11.3192
12.4261
12.0783
12.7939
12.4962
14.7352
-74.7872
23.6425
11.3129
11.2367
11.1367
12.1165
11.5066
9.55455
10.0961
8.8891
9.29902
4.11015
3.56016
3.59181
4.21085
4.00775
7.50065
8.76252
17.5091
8.98893
9.91266
7.87264
12.4106
11.8279
10.3092
10.9074
10.4146
10.8385
11.0455
12.0669
12.1042
11.8932
11.9268
11.6508
7.79065
7.90375
11.7541
11.6789
11.9985
11.951
11.8102
11.4312
12.0484
10.9443
11.2325
14.0508
11.0339
11.5726
10.9881
11.0146
11.8317
14.4237
11.9771
11.2716
11.0429
11.061
11.1071
11.1062
12.0604
14.09
11.9756
11.9639
11.7198
11.9549
12.0532
7.44501
6.00615
13.2452
13.4713
13.2779
13.165
12.8989
12.9723
5.88057
6.61101
8.31204
9.91856
7.61826
7.11415
9.39997
8.08135
6.00062
11.7771
12.4602
11.6667
10.6202
12.003
12.1501
5.558
10.9669
10.7424
10.1354
4.4878
5.37133
10.8358
11.8683
9.71339
9.83233
9.92759
9.80753
10.6223
14.4355
7.88491
6.18283
5.74824
25.617
24.6352
5.78434
4.501
5.76605
4.48597
4.95427
13.8865
15.7476
11.185
8.24929
14.7097
12.3501
12.6769
16.0429
11.6542
12.4337
12.1569
11.5247
18.6824
14.8932
12.7886
15.3514
12.8522
22.4596
13.1411
11.6302
12.1027
13.7837
18.0985
12.4831
1.30213
10.0296
2.91155
6.18765
7.44352
5.19368
6.08049
5.67237
12.1903
12.2785
13.0277
12.7912
10.3437
4.81753
3.24948
3.95157
6.72522
12.4401
8.37926
12.4158
8.03943
11.7002
11.4357
11.7003
5.39366
7.43431
7.52381
6.37115
13.8804
6.58657
8.23659
8.56252
10.8867
14.0713
7.72787
6.15278
17.3975
12.0249
4.2778
19.8988
10.8613
14.2718
13.3313
11.8391
11.8388
12.5432
19.3075
12.2922
13.3804
13.3146
11.7077
12.9675
11.2296
12.2375
11.3894
9.04675
6.83713
6.85526
5.97358
5.63696
9.04313
9.67305
7.09747
14.766
14.6218
5.80761
2.22729
6.49648
7.60797
15.9391
12.3433
13.0873
12.8899
14.9252
9.61164
8.51004
7.73553
10.4455
12.2483
14.0351
14.1236
14.9386
35.2125
28.2621
15.2547
23.1799
20.7307
10.5315
12.9159
13.008
13.5344
9.28348
23.0756
16.1658
15.525
6.10044
17.0699
13.0686
2.96459
10.742
13.7196
23.6631
24.0435
23.9192
21.7514
13.9544
15.0495
13.0651
4.12539
15.4019
14.7888
12.6394
12.7384
12.4041
12.2732
15.6211
12.2887
15.4924
5.23575
12.7395
14.0682
13.2511
11.9618
11.6097
11.7649
12.3021
14.511
12.4361
14.4153
11.4483
11.3783
12.9126
2.90712
1.5607
9.41651
9.68595
6.33481
8.31878
12.8501
13.2373
12.4425
12.1105
12.1603
4.1065
2.59764
10.1285
10.4044
5.06751
2.67407
7.99455
8.60713
8.92934
7.77769
8.51835
8.88207
9.30965
12.4362
14.908
10.1505
11.2975
17.7078
11.7155
11.4318
12.6709
12.6003
12.4786
12.8951
8.54282
7.43443
5.30297
4.85501
4.83838
13.0508
12.3869
2.9115
11.9802
2.62562
10.8948
10.7639
9.52499
9.30999
9.45379
6.97763
9.62322
5.72556
9.23095
5.25698
7.01932
5.30658
11.1443
7.24651
16.7524
12.1034
4.09172
7.70608
11.9219
9.50718
11.7032
11.5147
5.08006
11.3926
10.6303
15.7667
-12.008
11.8703
11.2663
11.9046
11.1627
11.5077
46.9685
43.8337
53.1396
19.3758
15.0026
11.5927
7.81502
18.4858
11.5429
19.154
14.3777
12.4175
12.0709
12.7495
12.2614
13.0561
11.9708
11.8832
10.6765
11.3734
11.2062
12.1224
11.4783
11.1555
11.9881
11.8386
13.3733
14.2248
12.3461
14.7338
14.1014
14.164
11.0573
9.31185
4.05339
5.87442
4.91507
10.7886
10.57
11.0346
14.2011
12.4441
13.3221
10.2902
8.46841
8.16811
10.989
12.5252
11.014
11.0202
14.7904
28.4344
31.6887
12.2887
11.4366
13.2846
11.9355
12.0813
12.1424
12.9165
11.4888
11.6737
12.0405
12.0409
11.9514
12.1139
12.1291
10.8627
11.0419
9.7899
10.891
12.1172
12.0427
12.1476
11.9277
11.9763
11.757
11.7434
9.36387
9.94873
9.46296
10.0581
10.837
11.6157
10.7516
12.1569
12.2014
12.2986
13.1531
11.0863
12.9336
11.1108
12.7763
10.8917
12.9669
10.3357
10.2439
12.0106
12.0895
12.0442
12.0558
11.3472
11.311
10.498
10.9658
11.8565
11.1976
11.9172
11.9709
12.0244
11.8371
12.0487
11.9538
11.9492
11.9707
7.48267
12.0489
12.6648
12.5236
12.0507
11.9798
10.8922
16.3117
14.1929
14.0974
13.9274
17.5007
15.8442
14.2542
13.8804
11.696