/*--------------------------------*- C++ -*----------------------------------*\
| =========                 |                                                 |
| \\      /  F ield         | OpenFOAM: The Open Source CFD Toolbox           |
|  \\    /   O peration     | Version:  2506                                  |
|   \\  /    A nd           | Website:  www.openfoam.com                      |
|    \\/     M anipulation  |                                                 |
\*---------------------------------------------------------------------------*/
FoamFile
{
    version     2.0;
    format      ascii;
    arch        "LSB;label=32;scalar=64";
    class       volScalarField;
    location    "0.0625936";
    object      k;
}
// * * * * * * * * * * * * * * * * * * * * * * * * * * * * * * * * * * * * * //

dimensions      [0 2 -2 0 0 0 0];

internalField   nonuniform List<scalar> 
47425
(
0.301948
0.335942
0.313472
0.318995
0.470739
0.319854
0.426966
0.325736
0.366887
1.30213
0.333934
0.325699
0.36474
0.31428
0.308668
0.33237
0.310995
0.343231
1.10388
0.535805
0.321014
0.309818
0.323237
0.315592
0.309835
0.303228
0.301755
0.845173
0.299755
0.304519
0.317022
0.32079
0.356128
0.303383
0.301499
0.319564
0.309596
0.363341
0.30986
0.318051
0.361444
0.481745
0.93994
0.378401
1.56745
0.348671
0.331097
0.350679
0.306809
0.302928
0.795577
0.619721
0.301699
0.826284
0.368795
0.364683
0.303766
0.303043
0.423788
0.311992
0.868626
0.855868
0.906575
0.327379
0.364462
0.30873
0.341347
0.364829
0.790722
0.318685
0.308186
0.297654
0.303073
0.314115
0.917293
0.368709
0.930358
0.312027
0.833349
0.529067
0.927411
0.314943
0.313463
0.348638
0.316158
0.318489
0.29995
0.299585
0.529402
0.611377
0.31354
0.339902
0.306417
0.368535
0.380456
0.365294
0.305595
0.302085
0.31094
0.355353
0.335036
0.434178
0.313233
0.45703
0.30621
0.370701
0.305973
0.319686
0.386956
0.316757
1.22406
0.323499
0.427319
0.351461
0.331161
0.830543
0.32645
0.641589
0.337236
0.332621
0.320685
0.362698
0.343341
0.347553
0.349261
0.393662
0.323551
0.364887
0.353044
0.306963
0.315068
0.32835
0.504443
0.348352
0.471669
0.348091
0.31576
0.399535
0.311268
0.310567
0.354041
0.367248
0.333163
0.459625
0.330427
0.366223
0.439084
0.340155
0.361489
0.361599
0.462927
0.802801
0.360299
0.81031
0.335137
0.324932
0.346513
0.938873
0.352097
0.328691
0.336066
0.303842
0.301406
0.314303
0.752691
0.859075
0.338486
0.929071
0.336993
0.891727
1.00779
0.350294
0.353851
0.323235
0.348384
0.380871
0.856694
0.298894
0.302034
0.306269
0.857758
0.298602
0.299008
0.305506
0.304459
0.337131
0.310725
0.423152
0.352272
0.299311
0.357976
0.303582
0.427521
0.365297
0.30682
0.316916
0.360532
0.324673
0.330115
0.294068
0.333769
0.364694
0.347478
0.319184
0.33716
0.376691
0.298773
0.314658
0.348682
0.361899
0.303652
0.306278
0.352159
0.313624
0.308043
0.30842
0.305406
0.588561
0.340751
0.354514
0.541631
0.289025
0.584157
0.304172
0.398679
0.521439
0.306195
0.323443
0.355515
0.388309
0.306421
0.317365
0.343437
0.36937
0.368035
0.3226
0.570321
0.335756
0.53278
0.366952
0.33704
0.297643
0.303576
0.31193
0.307935
0.362569
0.309813
0.357566
0.302897
0.309934
0.306326
0.508385
0.31227
0.365695
0.316355
0.304381
0.310884
0.362954
0.308967
0.357615
0.379657
0.352217
0.314751
0.361928
0.375065
0.350012
0.305909
0.37244
0.303509
0.326839
0.318903
0.519256
0.56927
0.304688
0.509151
0.373941
0.510737
0.458522
0.554416
0.549738
0.927503
0.299652
0.90694
0.364843
0.316157
0.307188
0.353478
0.322651
0.363247
0.344815
0.782477
0.323973
0.371308
0.303992
0.309669
0.32698
0.326264
0.306314
0.318943
0.365879
0.334074
0.301377
0.328495
0.304833
0.880772
0.862407
0.811446
0.305051
0.301651
0.308934
0.324602
0.807105
0.321956
0.330781
0.582215
0.343083
0.344119
0.370407
0.318799
0.652172
0.556243
0.314093
0.311029
0.29912
0.338023
0.303186
0.314964
0.302543
0.301775
0.305391
0.304239
0.913687
0.330361
0.308495
0.383809
0.305242
0.869977
0.319614
0.300936
0.307286
0.315223
0.315462
0.301941
0.311512
0.298282
0.305523
0.30518
0.311893
0.310282
0.338898
0.316794
0.307601
0.322044
0.313279
0.31721
0.342656
0.324797
0.312468
0.314237
0.360277
0.354273
0.341251
0.325669
0.321527
0.304893
0.323593
0.367335
0.358447
0.32659
0.314259
0.3613
1.09198
0.305331
0.318044
0.385664
0.316147
0.426116
0.358983
0.364437
0.3096
0.357611
0.31531
0.303607
0.355249
0.347169
0.364514
0.323177
0.310534
0.349737
0.320432
0.317529
0.320451
0.327618
0.306227
0.309281
0.315454
0.321055
0.320231
0.398443
0.302049
0.653369
0.30314
0.901731
0.33085
0.365633
0.354333
0.304651
0.350257
0.301825
0.334912
0.317279
0.603405
0.866332
0.302414
0.337118
0.311306
0.310678
0.31945
0.314798
0.308365
0.358331
0.324072
0.303868
0.312684
0.319179
0.302285
0.446428
0.308189
0.315857
0.499815
0.532106
0.311267
0.630464
0.553046
0.355272
0.537146
0.758517
0.304793
0.309047
0.310352
0.308365
0.764112
0.331881
0.301162
0.30568
0.313739
0.314527
0.323161
0.306487
0.705316
0.747166
0.511225
0.356383
0.400996
0.489436
0.306945
0.314014
0.352994
0.313174
0.355183
0.363124
0.377801
0.312797
0.369613
0.313398
0.307745
0.336374
0.317499
0.315488
0.312649
0.348598
0.35767
0.369301
0.335765
0.312303
0.347549
0.313753
0.762634
0.361565
0.398376
0.344993
0.349409
0.818104
0.333896
0.304181
0.336719
0.350193
0.327894
0.333235
0.346992
0.300383
0.327537
0.30183
0.325788
0.45047
0.300839
0.350467
0.31981
0.362534
0.302603
0.304089
0.304936
0.311474
0.315109
0.331232
0.311029
0.302963
0.306236
0.325151
0.324789
0.337485
0.331099
0.304065
0.313142
0.294695
0.300575
0.311138
0.334224
0.315748
0.336251
0.363306
0.375393
0.771388
0.317071
0.309999
0.332974
0.365736
0.456138
0.459012
0.337379
0.306906
0.343073
0.43467
0.320726
0.466452
0.362383
0.925549
0.347724
0.348978
0.305167
0.458442
0.306954
0.310093
0.318203
0.323826
0.302869
0.297839
1.03905
0.306813
0.358511
0.306778
0.439206
0.29927
0.305005
0.419819
0.40873
0.317868
0.303378
0.283503
0.30155
0.316041
0.301179
0.302744
0.303014
0.379998
0.452157
0.320984
0.309386
0.319276
0.306116
0.52803
0.314113
0.316082
0.219764
0.315217
0.305056
0.308876
0.75785
0.315037
0.21103
0.230615
0.301756
0.347017
0.299933
0.309352
0.362915
0.34144
0.882003
0.313052
0.343512
0.302435
0.458867
0.375239
0.369515
0.320389
0.779955
2.40106
0.309073
0.325819
0.338231
0.318776
0.363754
0.375419
0.321404
0.32869
0.378946
0.295042
0.359312
0.473585
0.343131
0.309689
0.479665
0.340266
0.311613
0.325683
0.339426
0.303278
0.361921
0.370304
0.360634
0.343518
0.310247
0.306897
1.00162
0.320026
0.395385
0.846777
0.808264
0.306556
0.35561
0.744405
0.349392
0.423168
0.787572
0.376793
0.799518
0.304734
0.30306
0.354857
0.516922
0.381508
0.375569
0.300264
0.370354
0.307881
0.319301
0.301809
0.34333
0.321036
0.778144
0.708488
0.340784
0.340788
0.345419
0.319322
0.375026
0.351696
0.352418
0.360588
0.342761
0.323726
0.342025
0.354508
0.305354
0.39037
0.361672
0.875841
0.567482
0.34123
0.314264
0.360169
0.304277
0.878276
0.313213
1.03466
0.352162
0.441945
0.342184
0.324282
0.325187
0.299046
0.359187
0.311929
0.298815
0.39186
0.392614
0.368557
0.388786
0.355668
1.07136
0.342568
0.374287
0.368718
0.363677
0.304447
0.353834
0.32614
0.387101
0.3415
0.321943
0.35602
0.321484
0.332252
0.313239
0.309731
0.483089
0.559139
0.307032
0.446063
0.307539
0.326633
0.309103
0.303527
0.62033
0.297381
0.315528
0.31614
0.303088
0.676969
1.0724
0.319063
0.334428
0.304995
0.341735
0.2992
0.326824
0.327851
0.545637
0.327056
0.305171
0.320037
0.306798
0.31517
0.311227
0.300956
0.31647
0.305302
0.301172
0.331687
0.550245
0.303517
0.243963
0.615891
0.564513
0.260623
0.332191
0.955921
0.361997
0.336675
0.506671
0.270629
0.827038
0.338385
0.304527
0.467828
0.337228
0.564272
0.318383
0.345609
0.304768
0.309575
0.429841
0.347563
0.322188
0.341647
0.452962
0.379322
0.34836
0.37843
0.491792
0.469315
0.627924
0.875565
0.916405
0.620526
0.651083
0.3631
0.359354
0.309863
0.30408
0.342113
0.31601
0.329905
0.337764
0.349149
0.307023
0.322721
0.347271
0.305991
0.381369
0.327346
0.305044
0.365461
0.305588
0.310591
0.310938
0.345106
0.429954
0.306404
0.30512
0.306878
0.356882
0.348762
0.524908
0.44062
0.302865
0.343198
0.299096
0.307189
0.308854
0.345778
0.355305
0.476301
0.314176
0.307965
0.310331
0.401076
0.903708
0.321273
0.321291
0.403101
0.345239
0.343
0.341992
0.329987
0.3768
1.75622
0.441651
0.870469
0.366857
0.399118
0.301617
0.397966
0.310503
0.333439
0.338859
0.312414
1.3273
0.437369
0.363508
0.491243
0.364124
0.298526
0.3271
0.404484
0.311188
0.345599
0.22865
0.308147
0.391665
0.369715
0.390398
0.717545
0.371669
0.364954
0.498406
0.310069
0.309663
0.441479
0.539619
0.329766
0.412317
0.452672
0.329546
0.321051
0.30609
0.329577
0.351994
0.350177
3.17594
0.675229
0.371261
0.544391
0.521929
1.34332
2.35147
0.515738
0.360725
0.360763
0.373542
0.367542
1.6741
0.309163
0.333478
0.372769
0.293172
0.33194
0.361251
0.356381
0.303024
0.382184
0.476341
0.363484
1.06342
0.303233
0.385043
0.376583
0.365703
0.357271
0.349874
0.37481
0.453671
0.351761
0.37122
0.470027
0.328914
0.311797
0.339679
0.42278
0.305372
0.412998
0.370629
0.36486
0.64944
1.03332
0.304058
0.3635
0.321817
0.361891
0.360078
0.673719
0.547838
1.51608
0.310559
0.369044
0.32891
0.951899
0.314926
1.65374
0.400203
0.380674
0.501688
0.591679
0.321689
0.307049
0.312516
0.324681
0.472037
0.322921
0.403382
1.02384
0.395461
0.304196
0.306625
0.68885
0.960929
0.512319
0.549622
0.942855
0.399549
0.353868
0.397027
0.312373
0.478275
0.369283
0.385323
1.13512
0.329266
0.30474
0.309394
0.357148
0.391565
0.371229
0.330264
0.319396
0.463597
0.308728
0.327293
0.30523
0.352845
0.364114
0.380556
0.346908
0.334614
0.315722
0.378971
0.309199
0.313266
0.324189
0.320317
0.378233
0.462412
0.340085
0.370358
0.308956
1.7948
0.379391
0.364154
0.333389
0.950627
0.664998
1.06512
0.349546
0.338422
0.335422
0.732824
0.389708
0.340961
0.377994
0.355146
0.359159
0.881737
0.363389
0.317542
0.360978
0.358006
0.301047
0.586715
1.01563
0.311971
0.999757
0.340559
0.664456
0.578444
0.308564
0.344638
0.371219
0.61923
0.338326
0.340454
0.336487
0.753878
0.502018
0.618527
0.315846
0.32663
0.305052
0.316117
1.24581
1.26844
0.344338
0.365899
0.386098
0.75352
0.311816
0.30073
1.66571
1.18439
0.355828
0.31765
0.889097
1.34856
0.983472
0.368862
0.710159
1.13295
0.795464
0.322078
0.448487
0.443284
0.329802
0.342096
1.27433
1.36493
0.360673
0.370359
0.345578
0.3193
0.341883
0.328309
0.488374
0.32954
0.366938
0.307527
0.365599
1.02692
0.988628
0.319975
0.576205
0.437719
0.31823
0.520053
0.300077
0.336999
0.311246
0.339407
0.386304
0.305049
0.765322
0.31044
0.867332
0.642684
0.836175
0.402829
0.41662
0.337154
0.354018
0.321393
0.552397
1.12118
0.352515
0.951277
0.518117
0.794496
0.474575
0.899385
0.700559
0.326812
0.320866
0.945705
0.336993
0.316723
0.314133
0.73816
0.712721
0.314132
0.334503
0.634836
0.410855
0.969841
0.80102
0.352137
0.460567
1.03952
0.345884
0.327136
0.822672
0.315744
0.799484
0.824382
0.313283
0.306815
0.323011
0.305514
0.370049
0.312673
0.314783
0.361683
0.371747
0.475578
0.342293
0.323192
0.505983
1.10752
0.817159
0.353193
0.341684
0.552344
0.318527
0.991974
0.336913
0.345152
0.359036
1.60939
0.343016
1.94355
0.384911
0.508567
0.342652
0.773505
0.63205
0.677178
0.427744
0.548649
0.374887
0.363526
0.392909
0.588757
0.42213
0.460993
0.803535
0.38816
0.458044
0.921123
0.350537
0.310519
0.739397
1.83499
0.337038
0.335908
0.35934
0.379489
1.18963
0.975352
0.303806
0.322343
0.359142
0.780732
0.35594
0.593631
0.376936
0.346897
0.352577
0.475758
0.359273
0.615937
0.618615
0.346027
0.379989
0.438447
0.325332
0.91675
2.07448
0.338091
0.865241
0.850835
0.376772
0.805678
0.360613
0.366416
1.04628
0.368203
0.968542
2.28089
0.326471
0.372397
0.43276
0.365346
0.353205
0.394223
0.501327
0.406378
0.325725
0.393876
0.328948
0.833952
0.39837
0.354755
0.37176
0.553462
0.311942
0.840942
0.733872
0.361952
0.828034
1.14795
0.306679
0.471346
0.536391
0.356888
0.343624
0.518449
0.731346
0.50143
0.827544
0.31305
0.769994
0.454213
0.301756
0.383606
0.365974
0.495316
0.338761
0.388944
0.607071
0.301697
0.580946
0.356372
1.39702
0.378652
0.300198
0.3684
0.530099
0.361949
0.675469
0.440962
0.325194
0.743857
0.309174
0.334395
1.1739
0.302664
0.374883
0.718424
0.340002
0.74012
1.34532
0.365731
0.404018
0.307831
0.904223
0.620631
0.870553
0.795763
0.413689
0.34149
0.426343
0.945488
0.969985
0.857748
0.352377
0.357552
0.352872
0.319803
0.377258
0.726821
0.348712
0.331751
0.342116
0.304633
0.325667
0.354559
0.320711
0.34905
0.361408
0.431373
0.310234
0.361105
0.571139
0.324313
0.307835
0.373069
0.351519
0.359413
0.304512
0.337815
0.334982
0.32048
0.375978
0.65313
0.339597
0.323769
0.309442
0.306282
0.527603
0.314711
0.314345
0.657208
1.14823
0.721147
0.320058
0.636881
0.472102
0.338993
0.598437
0.425943
0.577258
0.357937
0.318183
0.347273
0.391155
0.311667
0.36429
0.376614
0.360448
0.314826
0.313825
0.359144
0.51064
0.349611
0.414671
0.849628
0.346662
0.672355
0.400396
0.879023
0.301203
0.360579
0.351085
0.304163
0.320999
0.366076
0.304993
1.60273
0.57558
0.828002
0.371663
0.985439
0.306764
0.331384
0.522486
0.31251
0.801859
0.421102
0.627003
0.314224
0.975783
0.954712
0.314976
0.303217
1.08124
0.32254
0.925264
0.320255
0.360505
0.313463
0.3092
0.313204
0.329291
0.335357
0.627319
0.396868
0.386539
0.337463
0.32798
0.305129
0.357172
1.51014
0.361551
1.83392
0.561463
0.311714
0.372095
0.331576
0.327817
0.325868
0.357331
0.34468
0.362907
0.331383
0.297901
0.347027
0.357864
1.25672
1.5102
0.348278
0.353842
1.47656
0.339384
0.305657
0.306262
0.30435
0.344958
0.37225
0.400064
0.378092
0.332944
0.308373
0.398002
0.301585
0.295715
0.320799
0.733089
0.389072
0.837713
0.763
0.829113
0.322117
0.309824
0.300892
0.302831
0.30568
0.643152
0.326871
0.30226
0.325324
0.35473
0.308815
0.470191
0.305475
0.372191
0.450963
0.334463
0.306007
0.311949
0.332955
0.33373
0.310729
0.340053
0.322538
0.502593
0.321978
0.350215
0.392797
0.321157
0.324787
0.308386
0.332021
0.312414
0.364197
0.388627
0.305023
0.29932
0.315219
0.319549
0.310096
0.354941
0.304292
0.308821
0.305377
0.322642
0.837155
0.319241
0.423501
0.29979
0.306415
0.721844
0.320739
0.359239
0.302207
0.312979
0.348089
0.366772
0.755344
0.37235
1.69039
0.305377
0.312783
0.354728
0.305957
0.303245
0.380175
0.333281
0.302214
0.303421
0.897247
0.430276
0.670466
0.3628
0.552967
0.367412
0.304898
0.387461
1.06905
0.356038
0.313569
0.314036
0.793233
0.308928
0.318995
0.334079
0.330351
0.334316
0.789825
0.311975
0.327788
0.347531
0.328574
0.365054
0.911622
0.810966
0.312199
0.307164
0.305925
0.363946
0.341369
0.301889
0.802638
0.991702
0.307137
0.348933
0.80862
0.316221
0.712296
0.451861
0.30382
0.30958
0.310129
0.316802
0.607677
0.334179
0.330604
0.32434
0.364113
0.320137
0.361543
0.588212
0.362926
0.490567
0.502282
0.472123
0.581901
0.353388
0.387721
0.39655
0.379196
0.339664
0.324885
0.826881
0.587794
0.377901
0.360975
0.360547
0.35039
0.336764
0.320759
0.305565
0.302982
0.35707
0.349944
0.497721
0.42075
0.879739
0.713687
0.335403
0.377895
0.317161
0.319118
0.365125
0.305597
0.326149
0.304933
0.305115
0.305188
0.290476
0.305086
0.330712
0.64274
1.01223
0.347654
0.303096
0.467296
0.501049
0.840149
0.322982
0.798883
1.74075
0.761267
0.8595
0.399938
0.305044
0.301881
0.360615
0.870408
0.301851
0.372717
0.338794
0.305077
0.664756
0.607965
0.584363
0.329912
1.33664
0.302638
0.310996
0.341448
0.34229
0.723366
0.798417
0.349873
0.43864
0.321008
0.372497
0.314606
0.913887
0.353678
0.877726
0.371906
0.870667
0.353327
0.490757
0.51181
0.550185
0.380212
0.382699
0.622876
0.352566
0.353959
0.400671
0.383954
0.360719
0.341412
1.27694
0.642793
0.332054
0.599981
0.767594
0.589987
0.315839
0.309723
0.808305
0.681183
0.790263
0.31172
1.07729
0.312149
0.866535
0.670249
0.615892
0.689754
0.304577
0.362864
0.308906
0.329365
0.328059
0.516233
0.422168
0.306028
0.304524
0.358904
0.327648
0.303772
0.305476
0.46407
0.305427
0.300009
0.335206
0.355854
0.429348
0.333569
0.367496
0.366674
0.312295
0.455836
0.441829
0.312989
0.314753
0.484739
0.60955
0.32602
1.58881
0.350851
0.427766
0.774308
0.395586
0.326411
0.305093
0.501187
0.325322
0.299688
0.371606
0.321473
0.31077
0.325969
0.309914
0.311085
0.318718
0.333506
0.318222
0.362818
0.688306
0.316856
0.323562
0.319561
0.328343
0.420235
0.939295
0.329296
0.311707
0.331257
0.575754
0.344711
0.33646
0.331497
0.857959
0.349662
0.382113
0.366725
0.40317
0.339032
0.353091
0.33019
0.519257
0.372399
0.35806
0.989238
0.32802
0.392608
0.348333
0.343154
0.353639
0.39092
0.323537
0.336729
0.310211
0.351691
0.32603
0.348562
2.03319
0.312593
0.416335
0.376012
0.34419
0.672237
0.361864
0.509657
0.363332
0.575686
0.650359
0.33723
0.310053
0.394105
0.388754
0.342748
0.311175
0.799892
0.460038
0.375151
1.51973
0.526692
0.318098
0.505209
0.520791
1.28536
0.814338
0.392787
0.530788
0.423575
0.564554
0.478782
0.889132
0.285044
0.473772
0.322933
0.617437
0.366348
0.398243
0.365548
0.358122
0.342223
0.375575
0.609118
0.330039
0.363996
0.409644
0.502425
0.776225
0.41804
0.747281
0.352403
1.05566
0.373331
0.374644
0.840804
0.555953
0.714671
0.666664
0.649654
0.554894
0.34809
0.334921
0.330401
0.385077
0.36439
0.780953
0.356703
0.368449
0.3155
0.485705
0.356864
0.311748
0.86865
0.468769
0.512819
0.229892
0.405801
0.339554
0.353694
0.355164
0.385265
0.31883
0.29775
0.342022
0.398346
0.220702
0.20955
0.543192
0.355167
0.380666
0.419571
0.457514
0.374379
0.358694
0.357457
0.183705
0.366623
0.40052
0.212089
0.370262
0.832352
0.595366
0.340967
1.14125
0.387764
0.476359
1.89521
0.391375
0.374199
0.315521
0.641185
0.30665
0.30774
0.356945
0.368153
0.385339
0.338137
0.55821
0.355913
0.478674
0.316981
0.377362
0.363154
0.302698
1.26768
0.538956
1.03884
0.499484
0.303853
0.919628
0.489378
0.307694
2.63118
0.309461
0.305188
0.473668
0.469075
0.980664
0.759086
0.348784
0.689835
1.75442
0.345845
0.611221
0.989602
0.583511
1.55342
0.379248
0.33149
0.593271
0.664843
0.386885
0.961367
0.35899
0.332921
0.522993
0.35896
0.314311
0.369857
0.778821
0.730324
0.300228
0.515334
0.316051
0.379752
0.339721
0.3767
0.585115
0.42823
0.770801
0.351401
0.360679
0.74676
0.307291
0.319466
0.451828
0.310807
0.348628
1.08889
0.335988
0.905376
0.820411
0.839486
0.793055
0.376378
0.392856
0.302519
0.30108
0.418259
0.309124
0.31746
0.391913
0.317736
0.409273
0.924671
0.30895
0.522705
0.314985
0.469669
0.364522
0.861823
0.358939
0.460108
0.313889
0.32854
0.403275
0.310503
0.332037
0.321586
0.304925
0.528193
0.319
0.368193
0.35879
0.320265
0.357762
0.34052
0.368671
0.728696
0.334871
0.316055
0.32136
0.386033
0.194378
0.642138
0.4741
0.679701
1.0205
0.359865
0.425713
0.122142
0.277194
0.893307
0.404343
0.53799
0.369095
0.736429
0.70454
1.28987
0.359387
0.332153
0.53791
1.20801
0.344323
0.392273
0.450663
0.432057
0.409532
0.400076
0.883774
1.39468
0.250831
0.374074
0.195645
0.345073
1.1711
0.328048
0.349037
0.320396
0.312122
0.442399
0.320394
0.582576
0.463997
0.321004
0.378356
0.315647
0.543231
0.624902
0.328012
0.424866
0.359505
0.855628
0.448387
0.351459
0.528767
0.518656
0.303454
0.310154
0.352765
0.3105
0.65812
0.310731
0.430707
0.595969
0.324201
0.340783
0.318177
0.318187
0.602888
0.385924
0.514453
0.309615
0.312131
0.535899
0.683005
0.313632
0.335556
0.312826
0.31182
0.622364
0.440067
0.788996
0.342001
0.311753
0.44189
0.385327
0.343218
0.315245
0.376543
0.37297
0.539645
0.422957
1.879
0.404348
0.411042
0.312902
0.369488
0.843326
0.99013
0.388903
0.853931
0.352698
0.981272
0.416618
0.714777
0.46312
0.520433
0.390547
0.326594
0.357719
0.410593
0.553533
0.353079
0.36117
0.965184
0.374528
1.34432
0.373241
0.340631
0.36828
0.579432
0.412958
0.311543
0.87493
0.307664
0.326319
0.308413
0.357758
0.798414
0.478529
0.329572
0.507765
0.346112
0.340162
0.313205
0.329445
0.41324
0.399648
0.403105
0.346912
0.327861
0.394449
0.337695
0.302896
0.394639
0.354404
2.97785
0.365535
0.453329
0.344569
0.396653
0.350881
0.412028
0.303921
0.354847
0.337516
0.336373
0.366946
0.823746
0.303349
0.681817
0.580944
0.391258
0.379799
0.347369
0.382514
0.438635
0.661186
0.315722
0.338067
0.344086
0.490334
0.375218
0.304892
1.24293
1.35229
0.645754
0.306057
0.312122
0.498172
0.353039
0.353624
0.497087
0.364427
0.328893
0.356682
1.28255
0.311116
0.564817
0.308204
0.32933
0.41826
0.326603
0.380855
0.447656
0.312552
0.580992
0.398013
0.391718
0.438598
0.93043
0.319124
0.359951
0.360189
0.386748
0.349354
0.356113
0.301785
0.299785
0.374465
0.579658
0.3727
0.355238
1.00213
0.371737
0.604596
0.35836
0.383028
0.388949
0.342382
0.779215
0.344896
0.50735
0.36114
0.355016
0.340112
0.385388
0.559914
0.443159
0.322065
0.616941
0.37693
0.674262
0.744773
1.25536
0.317054
0.448269
0.377688
0.230147
0.383101
0.246207
0.433363
0.218338
0.387024
0.768092
0.394182
0.617104
0.677215
0.356359
0.219993
0.461057
0.946902
0.515993
0.658615
1.71793
1.74174
0.715235
0.806912
0.316718
0.3494
0.740402
0.383924
0.921587
0.367343
0.777598
0.764324
0.332182
0.362278
0.327176
0.304112
0.352207
0.303687
0.715778
0.386094
0.359684
0.547378
0.323218
0.353874
0.30588
0.331682
0.350817
0.345091
0.389053
0.304613
0.40373
0.903415
0.308281
0.316649
0.343788
0.314099
0.769034
1.04486
0.389749
0.421859
0.532537
0.307323
0.296543
0.336455
0.355795
0.324673
0.331564
0.318745
0.313002
0.443206
0.313186
0.35644
0.328044
0.307136
0.309807
0.935427
0.322636
0.339086
0.311977
0.425269
0.351641
0.342673
0.683256
0.401426
0.333145
0.38177
0.341255
0.36501
0.385423
0.367497
0.317587
0.376312
0.361773
0.324115
0.344215
0.348238
0.429353
0.448173
0.328524
0.334446
0.395299
0.42208
0.47125
0.560787
0.914176
0.913474
0.337765
0.311194
0.970966
0.522726
0.546954
0.318122
0.307033
0.329483
0.302418
0.325144
0.31105
0.315131
0.342122
0.309412
0.315809
0.3118
0.317308
0.310226
0.533052
0.367512
0.340848
0.317101
0.320131
0.611381
0.308118
0.313057
0.39399
1.04774
0.535567
0.374182
0.362235
0.319663
0.3546
0.463457
0.661804
0.395193
0.325381
0.362407
0.32462
0.32406
0.360089
0.426399
0.359328
0.318713
0.39062
0.398303
0.607119
0.386797
0.747209
0.572683
0.381883
0.384373
0.325237
0.335106
0.370624
0.301814
0.323983
0.595647
0.320364
0.342816
0.708025
0.346517
0.365482
0.502951
0.385349
0.316073
0.349061
0.315363
0.348021
0.724283
0.34813
0.421191
3.23864
0.576583
1.05807
0.832295
0.325263
0.333732
0.521585
0.309607
0.547328
0.484746
0.684419
0.369858
0.306887
0.786568
0.305634
0.536553
0.407634
0.317674
0.711727
0.866624
0.305738
0.314753
0.885021
0.305085
0.31243
0.311754
0.307134
0.344086
0.565279
0.573288
0.334373
0.798547
0.325971
0.330317
0.317601
0.859893
0.329947
0.898701
0.308195
0.348357
0.31053
0.424529
0.335006
0.498554
0.309336
0.652983
0.46545
0.467107
0.694823
0.330888
0.32666
0.894783
0.437232
0.340446
0.410024
0.676153
0.333272
0.418773
0.323624
0.584413
0.397591
0.313948
0.30465
0.448966
0.32134
0.377698
0.344214
0.306072
0.332331
0.311645
0.314153
0.331975
0.746707
0.320898
0.312625
0.311042
0.324857
0.316146
0.343517
0.305631
0.364424
0.433272
0.382433
0.37785
0.317032
0.442006
0.321799
0.374919
0.907198
0.493305
0.743035
0.323769
2.11548
0.355589
0.539657
0.374287
0.324297
0.381263
0.31666
0.309799
0.34569
0.354776
0.298431
0.321322
0.306496
0.659879
0.305897
0.322417
0.362385
0.758811
0.182441
0.331072
0.79238
0.906399
0.598221
0.554872
0.953209
0.154917
0.397426
0.269514
0.344191
0.458681
2.48387
0.517628
0.375446
0.305762
0.309164
0.74699
0.340745
0.517809
0.623297
0.373856
0.585322
0.363854
0.589376
0.314251
0.361219
0.34452
0.304029
0.385119
0.299867
0.344835
1.09614
1.04609
1.09441
0.446245
0.840276
0.32422
0.300763
0.30952
0.365987
0.307947
0.364738
0.314601
0.406387
0.376731
0.305506
0.310214
0.362007
0.306023
0.327878
0.357627
0.316839
0.355492
0.498836
0.328955
0.366056
0.812881
0.358264
0.72258
0.805103
0.348036
0.384581
0.307278
0.468631
0.347956
0.363518
0.683624
0.309717
0.373924
0.341107
0.358573
0.317039
0.31887
0.475914
0.510516
0.375501
0.348202
0.78706
0.372713
0.634919
0.580047
0.360508
0.912164
0.434368
0.367014
0.342424
0.351549
0.387189
0.346269
0.301376
0.329378
0.207516
0.581402
0.206893
0.320338
0.352129
0.421936
0.18399
0.859519
0.341463
0.36701
0.386284
0.217317
0.390924
0.732216
2.04908
0.36306
0.3183
0.365715
0.556917
0.317618
0.368946
0.373575
0.319901
0.351877
0.327205
0.619851
0.326702
1.46961
0.386906
0.954371
0.3353
1.40864
0.88081
1.03925
0.337253
0.340583
0.44743
0.365433
0.323448
0.373049
0.329718
0.818882
0.305627
0.460678
0.610787
0.305328
0.310593
0.317731
0.321903
0.351881
0.360475
0.382926
0.387737
0.371713
0.336141
0.395094
0.334001
0.439151
0.325546
0.364293
0.310268
2.46943
1.22393
0.368845
0.441028
0.302541
2.33819
0.302695
0.305483
0.355212
0.303299
0.373316
0.355556
0.302705
0.29847
0.338348
1.29031
0.601446
0.370891
0.806924
0.308956
0.361244
0.32609
0.359561
0.797943
0.382019
0.827964
0.300841
0.326878
0.782643
0.875035
0.332639
0.335991
0.621904
0.377037
0.350217
0.476476
0.377429
0.369567
0.403475
0.371216
0.298072
0.381237
0.351726
0.468195
0.307762
0.358939
0.305465
0.33103
0.807983
0.701109
0.323529
0.382251
0.331037
0.35373
0.321777
0.52601
0.322146
0.338761
0.359107
0.346872
0.429402
0.388348
0.472959
0.36169
0.300351
0.324563
0.308721
0.36796
0.302492
0.514912
0.434053
0.321785
0.620702
0.333454
0.30707
0.353747
0.308646
0.370257
0.621087
0.327424
0.420837
0.365144
0.972348
0.384779
0.364209
0.370958
0.714276
0.372124
0.520286
0.360083
0.391803
0.390987
0.40015
0.372928
0.738263
0.443563
0.363187
0.324466
0.316743
0.540794
0.330879
0.928835
1.74846
0.375888
0.411153
0.357434
0.463268
0.439185
0.376232
0.883436
0.4691
0.64232
0.309642
0.389804
1.05865
0.47475
0.344733
0.457017
0.322378
1.11463
0.378324
0.374559
0.320814
0.306933
0.311177
0.337043
0.309312
2.81103
0.310411
0.630912
0.30755
0.413087
0.377501
0.516185
0.336468
0.341512
0.329395
0.604526
0.453992
0.495209
0.31227
0.312883
0.441932
0.360911
0.348119
0.30856
0.306221
0.306573
0.32815
0.305567
0.362707
0.311851
0.545277
0.420643
1.06009
0.749834
0.58385
0.548431
0.37771
0.385708
0.303982
0.575859
0.319347
0.329944
0.31752
0.449024
0.483374
0.319339
0.411375
0.770103
0.47731
0.309721
0.309926
1.59628
0.80505
0.372631
0.847075
0.855387
0.628871
0.744063
0.559562
0.72788
0.393795
0.620118
0.756711
0.305535
0.31451
0.299411
0.461576
0.598202
0.322842
0.30662
0.389304
0.35233
0.381013
0.797868
0.470633
0.953766
0.344078
0.309771
0.328396
0.309346
0.348875
0.798205
0.878222
0.728366
0.773647
0.31808
1.10806
0.650528
0.313145
0.52175
0.460936
0.7589
0.368846
0.464395
0.756424
0.775856
0.463231
0.842013
0.492266
0.782732
0.365796
0.330838
0.379747
1.10889
0.758732
0.381026
0.326374
0.541071
0.43179
0.570645
0.345996
0.364465
1.11408
1.05359
0.216416
0.325832
0.224454
0.308344
0.215285
0.367503
0.450527
0.589414
0.20046
0.424233
0.487693
0.139999
0.450645
1.4999
0.401814
0.37038
0.744251
0.32437
0.486052
0.316481
0.302134
0.320613
0.332186
0.843251
0.687894
1.91437
0.382023
0.378049
0.616789
0.363763
0.457051
0.398785
0.350454
0.32583
0.586247
0.379922
0.425131
0.317287
0.412009
0.395093
0.742081
0.452896
0.799638
0.955206
0.76184
0.373701
0.39092
0.732025
0.284834
0.541588
0.348638
0.375491
0.31518
0.791276
0.609332
0.651685
0.773641
0.602172
0.307014
0.419306
0.866726
0.80668
0.377563
0.356432
0.44979
1.27574
0.344097
0.309378
0.36205
0.331746
0.847745
0.319684
0.601151
1.02195
0.987572
1.79929
0.531696
0.44646
0.788452
1.37986
0.862415
0.572975
0.7472
0.925153
0.517033
0.366967
0.435523
0.35646
0.297907
0.31433
0.411449
0.503935
1.82256
0.356768
0.390659
0.404889
0.376985
0.460071
0.557798
0.472508
0.372266
0.379304
1.04135
1.08213
0.195042
0.387943
0.32928
0.357191
1.52933
0.821909
0.369814
0.668162
0.325636
0.434801
0.563487
0.553661
0.331622
0.328529
0.319952
0.382577
0.90596
0.445739
0.346017
0.754456
0.309726
0.940395
0.703437
0.463174
0.68925
0.356133
0.309691
0.31845
0.313959
0.353576
0.387989
0.321296
0.33574
0.32158
0.312139
0.497314
0.663424
0.719284
0.315383
0.466175
0.354556
0.381389
0.337718
0.64011
0.347515
0.331749
0.329261
0.308549
0.319816
0.323776
0.447937
0.303879
0.347746
0.361053
0.607162
0.317569
0.382973
0.492242
0.788801
0.862763
0.376131
0.918843
0.528886
0.363517
0.337147
0.525673
0.324711
2.34982
0.410517
0.31467
0.414657
0.485485
0.397083
0.448163
0.719808
0.928343
0.43866
0.840048
0.333374
0.303903
0.383754
0.310272
0.309663
0.398697
0.312285
0.312092
0.573461
0.308416
0.269453
1.34743
0.573022
0.307458
0.30942
0.671959
0.327191
0.320299
0.570243
0.319078
0.736125
0.391331
0.767974
0.310546
0.536023
0.436672
0.66423
0.315769
0.431577
0.31482
1.04567
0.364328
0.309709
1.0575
0.418473
0.493571
0.3483
0.361535
0.373676
0.311747
0.496341
0.311086
0.315085
0.305396
0.440459
0.543627
0.316967
0.316792
0.315719
0.312699
0.325206
1.51041
0.309673
0.447646
0.308945
0.564482
0.345859
0.359562
0.352825
0.460388
0.328354
0.412149
0.29986
0.331321
0.328139
0.34231
0.310016
0.427133
0.39929
0.854321
0.945275
0.785602
0.386399
0.336955
0.334158
0.309078
0.310736
1.0371
0.631086
0.392112
0.36321
0.301779
0.328047
0.300949
0.315352
0.521437
0.501369
0.762371
0.947669
0.363652
0.351697
0.399409
0.30963
0.573712
0.350816
0.447274
0.360416
0.352827
1.06055
0.407152
0.302461
0.328304
0.393364
0.312159
0.496037
0.307999
0.683576
0.365087
0.900334
0.484769
0.768801
0.315798
0.32968
0.348008
0.374407
0.352771
0.358238
0.310915
0.308388
0.313452
0.322405
0.354891
0.586662
0.363476
0.855129
0.407357
0.320038
0.510854
0.381688
0.361453
0.280212
1.0539
0.878353
0.276656
0.319117
0.315667
0.83807
0.307849
0.411234
0.371015
0.358261
0.279908
0.362105
0.358396
0.307966
0.412276
0.493459
0.951522
0.52564
0.433072
0.301146
0.393503
0.591387
0.341335
0.311316
0.862067
0.807923
0.372933
0.74412
0.314272
0.306989
0.390121
0.314432
0.875177
0.307103
0.307876
0.312126
0.653747
0.308878
0.349717
0.44899
0.457403
0.307969
0.325111
0.331243
0.328147
0.310849
0.349549
0.360681
0.584562
0.421668
0.367305
0.570469
0.359516
0.619538
0.353804
0.891458
0.437151
0.311109
0.668229
0.230227
0.424578
0.521802
0.578836
0.391192
0.307924
0.310334
0.303223
0.358994
0.830365
0.371127
0.307866
0.350888
0.368605
0.302618
0.476357
0.33451
0.368314
0.454558
0.327935
0.313741
0.34198
0.332157
1.76195
0.91101
0.376694
0.356821
0.419104
0.353163
0.797687
1.07251
1.06101
0.772649
0.345751
0.32709
0.334206