/*--------------------------------*- C++ -*----------------------------------*\
| =========                 |                                                 |
| \\      /  F ield         | OpenFOAM: The Open Source CFD Toolbox           |
|  \\    /   O peration     | Version:  2506                                  |
|   \\  /    A nd           | Website:  www.openfoam.com                      |
|    \\/     M anipulation  |                                                 |
\*---------------------------------------------------------------------------*/
FoamFile
{
    version     2.0;
    format      ascii;
    arch        "LSB;label=32;scalar=64";
    class       volScalarField;
    location    "0.0625936";
    object      nut;
}
// * * * * * * * * * * * * * * * * * * * * * * * * * * * * * * * * * * * * * //

dimensions      [0 2 -1 0 0 0 0];

internalField   nonuniform List<scalar> 
47425
(
0.00511738
0.00498077
0.00436064
0.00197285
0.00326616
0.00448419
0.00449595
0.0032023
0.00742777
0.00215974
0.00242848
0.0073811
0.0050669
0.0039481
0.00321432
0.0037538
0.00452269
0.00248477
0.000256615
0.00279326
0.00378717
0.0068351
0.003079
0.00498506
0.00671677
0.00687047
0.00386732
0.00049561
0.00426085
0.00548755
0.00724331
0.00712956
0.00745916
0.00444545
0.00545506
0.00476408
0.00691243
0.005378
0.00472264
0.00426076
0.00503262
0.00448715
0.00494103
0.00260976
0.000886366
0.00334039
0.00344859
0.00451903
0.0038945
0.00640335
0.00064771
0.0026858
0.00605555
0.00107261
0.00326202
0.00295503
0.0068174
0.0051976
0.0024524
0.00508274
0.000896981
0.000728277
0.00100111
0.00303081
0.0073849
0.00686217
0.00555513
0.00419398
0.00107872
0.00525494
0.00393501
0.005705
0.00620831
0.00345764
0.00140658
0.00746319
0.00104301
0.00383544
0.000217819
0.00198127
0.00138235
0.00483183
0.00723683
0.00742903
0.00634983
0.00388001
0.005559
0.00574101
0.00430773
0.00146973
0.00703454
0.00444192
0.00715685
0.00322213
0.0025885
0.0018768
0.00634877
0.00571026
0.00352867
0.00453598
0.00556773
0.00096158
0.00598518
0.000985497
0.00613474
0.00702165
0.0062681
0.00341772
0.00636149
0.00702858
0.00341903
0.00519583
0.00595264
0.00226507
0.00737327
0.000345761
0.00739137
0.000744397
0.00431309
0.00530964
0.00403575
0.00747141
0.00590581
0.00262272
0.00360674
0.0068276
0.00379619
0.0074179
0.00334879
0.00719277
0.00698392
0.00342858
0.00102542
0.00290591
0.00478214
0.00467507
0.00660057
0.00657749
0.00450336
0.00319246
0.00499025
0.00248655
0.00469912
0.00515495
0.00634393
0.00742414
0.00389396
0.00542382
0.00239909
0.00499682
0.0052064
0.000545101
0.00738986
0.000422278
0.00301359
0.00384889
0.00290555
0.000304812
0.00382303
0.00456779
0.00749044
0.00696948
0.00603927
0.00672681
0.00120288
0.000444534
0.0074336
0.0013997
0.00316803
0.000790167
0.00144772
0.00409218
0.00479077
0.0033695
0.00484645
0.00126619
0.00039524
0.0042469
0.0057305
0.0069594
0.000321468
0.00625178
0.0049559
0.00664093
0.00650685
0.00695945
0.00547271
0.00111244
0.00235932
0.00535199
0.00746955
0.00421544
0.00515494
0.00474277
0.006585
0.00740028
0.00582736
0.00448311
0.00751041
0.0035344
0.0050669
0.00296586
0.00612233
0.00736029
0.00242552
0.00236817
0.00558504
0.00731449
0.00401628
0.00747105
0.00480002
0.00463633
0.00745923
0.00334941
0.00482969
0.00483115
0.00399756
0.00176851
0.0034035
0.003808
0.00189895
0.00239832
0.00463708
0.00314947
0.00238586
0.00162332
0.00659053
0.00248622
0.00725931
0.00406681
0.00424011
0.00438037
0.00332613
0.00748889
0.0022309
0.00347795
0.00174676
0.00298536
0.00196609
0.00202473
0.00403713
0.00497176
0.00713342
0.00304285
0.00690484
0.0073316
0.00451609
0.00590002
0.00699898
0.00399061
0.00720154
0.00231301
0.00464907
0.00742026
0.00345375
0.00709875
0.0067094
0.00302603
0.0032624
0.0073966
0.00304609
0.00745981
0.0039999
0.00267723
0.00522638
0.00390469
0.00691161
0.00459131
0.00482393
0.00398016
0.00398635
0.00219068
0.00181062
0.00626132
0.00229086
0.00208661
0.00228958
0.000548292
0.00185946
0.000611151
0.000904521
0.00516051
0.000826643
0.0029598
0.00396618
0.00358881
0.00338827
0.00354319
0.00401784
0.00749776
0.000771701
0.00507332
0.00737543
0.0053518
0.0045768
0.00333255
0.00292702
0.00659481
0.00486174
0.00499324
0.00381698
0.00688993
0.00382481
0.00505087
0.00106267
0.000830871
0.000560523
0.00714306
0.00623447
0.00709591
0.00322074
0.000829005
0.0037234
0.00283847
0.00177562
0.00466309
0.0032995
0.00303572
0.00341771
0.00151318
0.00186155
0.00699321
0.00513366
0.00634807
0.00414604
0.00692537
0.0040171
0.00482774
0.00576336
0.00424089
0.00363124
0.00096129
0.00399809
0.00412186
0.00297234
0.00710901
0.000855447
0.00634156
0.00659496
0.0058024
0.00686776
0.0068173
0.00672616
0.00589914
0.00588005
0.0060259
0.0051153
0.00661479
0.00371856
0.00405757
0.00673565
0.00682678
0.0051365
0.00655422
0.00659239
0.0026187
0.00402249
0.00724919
0.00643304
0.00385727
0.00196338
0.00563995
0.00417744
0.00339892
0.00634732
0.00663337
0.00280519
0.00743425
0.00486602
0.0070702
0.00278201
0.00114198
0.00391333
0.00727194
0.00192608
0.00722997
0.0043244
0.00384512
0.00502323
0.00687053
0.00563156
0.00709758
0.00707936
0.00481478
0.00404081
0.00439931
0.00385749
0.00589536
0.0071741
0.00387546
0.00643579
0.00623814
0.0040703
0.005393
0.00470514
0.00651158
0.0051827
0.00360297
0.0033437
0.00618466
0.000935076
0.00667439
0.00214721
0.00473553
0.00346921
0.00344772
0.00646116
0.00240346
0.00650288
0.00355951
0.00683125
0.00112503
0.00102777
0.00704571
0.00270999
0.00387697
0.00361433
0.00387742
0.00422134
0.00380028
0.00401572
0.0048238
0.00671904
0.00308421
0.00449541
0.00620519
0.00350631
0.00393893
0.00602779
0.000903024
0.000402482
0.00668135
0.000488942
0.000505931
0.00397347
0.000478461
0.000881017
0.0063906
0.00384895
0.00409274
0.00390219
0.000996956
0.00380675
0.0060755
0.00622419
0.00418316
0.00416776
0.00401355
0.0038191
0.0010131
0.000739906
0.00124263
0.00543755
0.00100504
0.00382834
0.00532001
0.00716477
0.00516998
0.0072262
0.0042293
0.00478995
0.00284693
0.00450841
0.00748961
0.00390857
0.00515015
0.00433123
0.00729194
0.00487389
0.00463578
0.00523094
0.00562936
0.00339405
0.00279424
0.00504493
0.00416293
0.00723459
0.0012498
0.00278016
0.00204534
0.00744304
0.00258884
0.00334013
0.00296047
0.00706118
0.00399724
0.00740274
0.00486641
0.00291519
0.00328563
0.00355644
0.00325193
0.0055038
0.00228748
0.000876643
0.00642086
0.00159971
0.0055934
0.00163474
0.00623355
0.00588571
0.00694579
0.0044794
0.00533677
0.00297365
0.0050318
0.00650521
0.00708352
0.00642046
0.00438116
0.00265279
0.00369939
0.00712401
0.00561632
0.00513953
0.00523075
0.00523429
0.00481475
0.00437723
0.00256468
0.00472283
0.00372038
0.000678482
0.00515456
0.0044824
0.00627856
0.0074118
0.00175785
0.00209561
0.00442717
0.00616628
0.00427798
0.00418787
0.00683683
0.00206027
0.00747829
0.00353689
0.00239316
0.00274838
0.00521629
0.00286144
0.00727323
0.00427601
0.00432871
0.00602776
0.0069708
0.0057739
0.000915331
0.00487226
0.00244649
0.00669233
0.00184723
0.0064418
0.00517354
0.00212406
0.00241597
0.00452644
0.00667889
0.000716715
0.00549754
0.00533638
0.00541298
0.00624454
0.00689093
0.0022957
0.00293307
0.006092
0.00538786
0.00472415
0.00697336
0.0020269
0.00705324
0.00509379
0.000447361
0.00439403
0.00707904
0.000889288
0.0013171
0.00705874
0.000321507
0.000336582
0.00425981
0.00744588
0.0057591
0.00698204
0.00426574
0.00385691
0.00131883
0.0070159
0.00271379
0.00611593
0.00206967
0.00228012
0.00433135
0.00478356
0.00152692
0.00747067
0.00597005
0.00345039
0.00336635
0.00254834
0.00298987
0.00300241
0.00668385
0.00336625
0.00285124
0.00301
0.00532654
0.00293338
0.00338912
0.00647155
0.00251214
0.00365722
0.00399007
0.00271481
0.00336647
0.0044522
0.00492972
0.00623123
0.00170149
0.00507756
0.00656324
0.00654159
0.000303161
0.00394199
0.00513058
0.000535038
0.000828821
0.00708927
0.0046527
0.000162401
0.00206748
0.000787939
0.00267744
0.00315409
0.000727091
0.00511865
0.00625828
0.00590974
0.00300347
0.00335452
0.0033283
0.00647966
0.00313344
0.00455694
0.0038264
0.00624553
0.00428956
0.00386859
0.00171234
0.00100531
0.00279475
0.00294852
0.00401685
0.00610896
0.0034231
0.00741646
0.00605423
0.00567863
0.00526738
0.00598978
0.00193385
0.00469496
0.00642326
0.00187699
0.00194012
0.000968036
0.00119281
0.00392646
0.00727727
0.00482751
0.00696133
0.0011686
0.00444309
0.0012198
0.00420193
0.00404825
0.00512629
0.00470086
0.00554168
0.00342227
0.00194815
0.00353199
0.00525024
0.00189316
0.0043182
0.00748588
0.00418732
0.00398231
0.00178226
0.00503964
0.00185017
0.00340495
0.00747322
0.00697101
0.00249835
0.00408465
0.00365423
0.00743259
0.00507836
0.00413499
0.00443035
0.00411468
0.00392392
0.00477703
0.000897908
0.000616091
0.00432873
0.00080454
0.00453713
0.00288551
0.00338017
0.00628818
0.00411416
0.00480972
0.00410307
0.00403231
0.00682592
0.000577557
0.00272035
0.00335491
0.00506997
0.0065082
0.0037529
0.00539555
0.0024057
0.00741071
0.00183533
0.00403826
0.00683052
0.00414592
0.00655423
0.00530154
0.00445298
0.00606223
0.00354766
0.00718603
0.00662657
0.00378724
0.00103799
0.00722856
0.000716718
0.00239958
0.00214491
0.000714033
0.00419564
0.00412485
0.00214607
0.00377876
0.000807766
0.000817709
0.000930732
0.00323518
0.00491986
0.00379597
0.00292235
0.000874955
0.00248023
0.00365899
0.0056431
0.00438062
0.00424233
0.00308813
0.00573159
0.0041954
0.00131944
0.00199203
0.00555602
0.00246468
0.00108817
0.000697466
0.00357129
0.000570795
0.00197851
0.00066413
0.000849827
0.00450005
0.00301687
0.00697149
0.00651607
0.00478897
0.000732527
0.0012649
0.00474106
0.00480685
0.00705538
0.000873479
0.000775332
0.00711228
0.00225586
0.00364091
0.00710789
0.00220827
0.00712867
0.00707274
0.00427663
0.00478122
0.0015861
0.00636089
0.00708153
0.00502962
0.00519251
0.00517397
0.00103228
0.00186728
0.00696224
0.00127807
0.00621682
0.00658205
0.00654966
0.00177451
0.00450864
0.00198498
0.00262197
0.00563426
0.00713702
0.0012742
0.000658344
0.0044622
0.00387177
0.00194586
0.00531059
0.00561048
0.00298911
0.00275125
0.00294507
0.00605997
0.00241108
0.00108488
0.0074237
0.00110492
0.00536367
0.00393623
0.00686736
0.00200742
0.00269338
0.00702915
0.0038529
0.00127653
0.00329059
0.00202588
0.00464911
0.00546444
0.00460329
0.0035164
0.00449602
0.0030793
0.000692433
0.00463734
0.00257708
0.0017852
0.00176996
0.00108677
0.00172693
0.00410845
0.000548102
0.00688923
0.00648035
0.00414278
0.00271779
0.00381632
0.00143444
0.00133898
0.0031941
0.00479057
0.00448428
0.00317171
0.00355317
0.00389577
0.00890308
0.0013568
0.00396581
0.00411448
0.0026247
0.00197699
0.00574941
0.000553666
0.0039036
0.00537234
0.00386732
0.00395421
0.00713403
0.00673272
0.00336716
0.00386331
0.000724077
0.00274395
0.00477915
0.00364942
0.00560332
0.00350386
0.000781219
0.00462408
0.00209177
0.00561165
0.00184084
0.00286743
0.00376019
0.0054611
0.00529042
0.00357869
0.00203716
0.00389002
0.00164314
0.00074682
0.00525206
0.00693982
0.00500342
0.00105849
0.00527746
0.00272955
0.00699277
0.00168235
0.00177358
0.00396819
0.00305013
0.00434282
0.00705769
0.00514762
0.00315344
0.00113978
0.00223853
0.00119245
0.00676219
0.00227531
0.00253153
0.00293588
0.00355708
0.00499252
0.0016855
0.00164381
0.00375968
0.000940821
0.00355542
0.00355778
0.00426926
0.00488378
0.00375009
0.00478729
0.0012398
0.00405597
0.00384288
0.00444752
0.00601097
0.000800085
0.00241806
0.000711312
0.00156032
0.00100232
0.00208317
0.00387342
0.00129309
0.00348329
0.00126852
0.00200035
0.0020457
0.00133732
0.00301865
0.00521901
0.00425894
0.00746856
0.00146058
0.0036833
0.00342988
0.00436209
0.00135312
0.00581886
0.00427988
0.00592423
0.00746037
0.0029277
0.00183988
0.00297701
0.00316883
0.00536227
0.00233133
0.00656551
0.0031599
0.00308923
0.00692139
0.00236323
0.00228875
0.00425315
0.00208266
0.00386372
0.00327914
0.00205676
0.00292569
0.00310348
0.000224265
0.000662255
0.00166712
0.000745156
0.00331034
0.00331509
0.00062345
0.000930971
0.00510118
0.00104255
0.00332627
0.00416931
0.0005437
0.0026215
0.00698677
0.00318275
0.00150115
0.00608199
0.000697077
0.000344549
0.00224276
0.000837279
0.0022385
0.000955633
0.000846944
0.00544872
0.00448653
0.00276869
0.0019276
0.00366983
0.00732516
0.00210761
0.000701027
0.00472832
0.00169127
0.00428431
0.00202005
0.00625295
0.00591004
0.00223948
0.00220429
0.00418078
0.00179082
0.00509274
0.00143142
0.00708504
0.0058392
0.00383758
0.00208362
0.00490037
0.00719658
0.000781368
0.00181297
0.00168678
0.00370473
0.00257776
0.00217035
0.00119366
0.00402478
0.00117089
0.00280055
0.00510493
0.00316839
0.00232501
0.000846391
0.00203998
0.00179414
0.00588116
0.00503605
0.00201325
0.00401681
0.0027422
0.00500522
0.00740451
0.00633462
0.00396267
0.00288485
0.000827232
0.00404965
0.000500726
0.0038782
0.00437531
0.00296825
0.00522903
0.00372551
0.00405913
0.00450771
0.00194161
0.00570322
0.00146912
0.00700534
0.000372742
0.00133751
0.0013827
0.00198275
0.00412486
0.00536158
0.0034482
0.00531115
0.000647331
0.000774069
0.00338878
0.00224318
0.000992371
0.000945745
0.00232982
0.00117011
0.000566071
0.00356109
0.00516029
0.000533874
0.00382611
0.00457391
0.00425515
0.00108259
0.000598653
0.00392721
0.00380122
0.00132978
0.00258745
0.00124932
0.000771689
0.00326133
0.00110293
0.00119964
0.00335677
0.00461262
0.00110742
0.00601533
0.0015113
0.000236102
0.00718409
0.00438293
0.00381915
0.00539504
0.00300729
0.00306272
0.00735245
0.0029731
0.00414197
0.000841446
0.00161396
0.0045978
0.00141428
0.0051561
0.000393774
0.00684194
0.00358703
0.00233568
0.00544385
0.00100576
0.00391792
0.00306017
0.002371
0.00323714
0.00395381
0.00515696
0.00211655
0.000704594
0.0060145
0.00142952
0.000731603
0.00233852
0.00367708
0.00103055
0.00173489
0.00478125
0.00546398
0.00105555
0.00177044
0.00225604
0.000828223
0.002586
0.000951064
0.00331976
0.00281714
0.00216383
0.00100176
0.00534887
0.00581705
0.00214176
0.00428458
0.00255694
0.00389013
0.00113384
0.00520433
0.00371879
0.00575597
0.00140079
0.00560422
0.00060895
0.00221827
0.00556776
0.0073978
0.00192014
0.00168019
0.00090343
0.00194108
0.00215613
0.00112973
0.000880864
0.00404084
0.00093424
0.00501481
0.00288748
0.000430757
0.00154059
0.00308877
0.0033073
0.00561311
0.00152206
0.000620614
0.00164087
0.00266689
0.00637343
0.00712436
0.00186243
0.00440454
0.00379484
0.00627809
0.00106421
0.00297555
0.0016265
0.00415945
0.00159829
0.00404252
0.003477
0.00113169
0.00184789
0.00239608
0.00266454
0.00555386
0.00040353
0.001673
0.00155843
0.00144907
0.00388245
0.00536038
0.00106618
0.000766932
0.00163969
0.00277666
0.00286852
0.00162313
0.0025189
0.00143037
0.00543713
0.00133073
0.00137314
0.00548999
0.00121455
0.00337448
0.00256225
0.0027694
0.00131625
0.00248654
0.00595354
0.000718722
0.00332991
0.00065173
0.00263519
0.00371968
0.00307848
0.00200053
0.00132817
0.00240087
0.0040391
0.00298166
0.00121153
0.00390147
0.00422792
0.000657857
0.00695236
0.00362869
0.000878755
0.0035845
0.00270415
0.00213751
0.002416
0.00119722
0.00368441
0.000163102
0.00224469
0.000956675
0.00269725
0.00116427
0.00279108
0.000896148
0.00137878
0.00136435
0.00281628
0.00397871
0.00741052
0.00407814
0.00366
0.0029001
0.000727764
0.00376347
0.00596771
0.00436923
0.00496141
0.00313597
0.00416227
0.00724982
0.00745338
0.00299861
0.000992901
0.0067493
0.00280674
0.00244851
0.00528513
0.0064599
0.00285288
0.00228704
0.00747108
0.00552681
0.00335857
0.00354521
0.00612102
0.00387991
0.00116458
0.00386721
0.00345737
0.00566071
0.00696154
0.00213282
0.00467641
0.00584673
0.000834516
0.00178054
0.000977273
0.00665267
0.000968727
0.000432256
0.00609443
0.000381682
0.000793778
0.000586651
0.00393654
0.00477436
0.0042514
0.00144044
0.00684765
0.00441863
0.00449275
0.00391578
0.00274896
0.00350784
0.00345783
0.00106746
0.00434447
0.00274985
0.000853183
0.00400678
0.000351951
0.00172804
0.00125954
0.00650484
0.00303981
0.00195986
0.00579942
0.0046943
0.00192779
0.0070854
0.00296853
0.00173396
0.000425512
0.00727924
0.00156159
0.00519759
0.00301976
0.00303647
0.0053918
0.00136495
0.00472369
0.00214954
0.00452004
0.0013078
0.000280485
0.0039516
0.00692532
0.00236302
0.00467568
0.000798916
0.00375559
0.00376597
0.00446573
0.0042562
0.00549959
0.00725562
0.00377856
0.00225304
0.00533543
0.00218699
0.00402706
0.00376913
0.00716718
0.00230368
0.00204368
0.00402372
0.00468089
0.00479045
0.00460994
0.00309567
0.00419013
0.00442821
0.00582869
0.00236447
0.00262541
0.0074721
0.00387404
0.00357662
0.00511309
0.00382563
0.00311177
0.00378167
0.00357733
0.00393036
0.00469888
0.00387583
0.00580387
0.00473858
0.00626879
0.00206834
0.00224007
0.00196175
0.00361982
0.00476511
0.0041295
0.00123547
0.00532496
0.00509861
0.00542911
0.00152131
0.00298914
0.00125667
0.00124029
0.00124942
0.00331412
0.0045145
0.00416213
0.00420588
0.00634195
0.00119536
0.00399301
0.00643558
0.00412627
0.00318079
0.00401816
0.00146208
0.00406014
0.00237028
0.00275693
0.00341843
0.00609294
0.0044085
0.00372718
0.00378798
0.00455295
0.0030094
0.00328533
0.00284907
0.00370363
0.00508214
0.00496464
0.00213541
0.00191212
0.00472014
0.00413588
0.00232018
0.00375268
0.0022891
0.00666785
0.00529429
0.00231587
0.0046378
0.0057459
0.00466757
0.00680692
0.00656739
0.00344458
0.00431912
0.00203701
0.0044199
0.00238556
0.00598225
0.00435439
0.000994485
0.00402418
0.00422803
0.00502428
0.00511142
0.00397108
0.00427214
0.00032703
0.0034726
0.00366729
0.00595109
0.00520457
0.00498564
0.00713766
0.0062034
0.00350891
0.00409829
0.00626218
0.00667842
0.00293226
0.000985725
0.0013085
0.00302406
0.00177209
0.0035116
0.00387263
0.00354239
0.00187247
0.0019567
0.00330418
0.00398116
0.000842718
0.00478141
0.00397565
0.00385716
0.0039916
0.00639904
0.000307865
0.00463467
0.00360613
0.00743037
0.00265087
0.00263874
0.000408861
0.000234458
0.00462438
0.00574976
0.00694509
0.0039996
0.00365519
0.00499928
0.000214191
0.00126255
0.00473564
0.00253083
0.00135507
0.00489786
0.00452066
0.00338245
0.00691408
0.00497826
0.0066415
0.00426389
0.00287585
0.00389591
0.00423538
0.00514191
0.0019297
0.0042617
0.00743716
0.00140341
0.00571926
0.00349187
0.00302856
0.00106613
0.00166737
0.00345974
0.00287964
0.00494734
0.00284779
0.00286239
0.00598046
0.000586902
0.00177721
0.00287974
0.00391107
0.00339974
0.00387317
0.00383234
0.00114287
0.00716973
0.00665985
0.00574184
0.00538303
0.000889762
0.00129585
0.00131058
0.0018363
0.0030752
0.00287972
0.00719403
0.00697591
0.00454909
0.00493677
0.00509898
0.00556845
0.0071255
0.00108415
0.000794931
0.00706148
0.00627489
0.00284088
0.00228939
0.0029979
0.00707833
0.00514279
0.00171518
0.000907089
0.00344096
0.00203922
0.00481945
0.00147559
0.00056516
0.00303308
0.00618813
0.00700953
0.00617155
0.000907548
0.00533572
0.00435008
0.00422809
0.0071385
0.000940562
0.000360685
0.000498192
0.00166232
0.00398711
0.00600094
0.0068499
0.00228845
0.00392867
0.000942674
0.000834208
0.000828781
0.000492696
0.000803194
0.00171204
0.00648811
0.000815901
0.00739762
0.000343991
0.0039048
0.00075929
0.00444533
0.00172566
0.00562682
0.00294586
0.00224757
0.00225491
0.00462642
0.00559611
0.00398909
0.000902086
0.00108917
0.00500298
0.00516613
0.000476509
0.000441156
0.00364042
0.00173769
0.000706548
0.00135844
0.0046505
0.00669952
0.000873122
0.000650128
0.00156202
0.00705719
0.00135219
0.00623713
0.000768846
0.00109071
0.000552836
0.00242253
0.00562357
0.00154864
0.00659946
0.00461653
0.00381771
0.00219337
0.00611181
0.003603
0.00468743
0.00379704
0.00416966
0.00672987
0.00632088
0.00340373
0.00665377
0.00576593
0.00426658
0.00374956
0.00157648
0.00381702
0.0023979
0.0040397
0.00538712
0.00382301
0.000952692
0.00345827
0.00335299
0.00192883
0.000577493
0.00418196
0.00387597
0.0031883
0.000989291
0.0016378
0.00131165
0.0046511
0.00648581
0.00461222
0.00339916
0.00548326
0.00340595
0.0031627
0.00369672
0.00699024
0.0045885
0.00490708
0.00448728
0.00317228
0.00435151
0.00367896
0.000662531
0.00349844
0.00400654
0.00419909
0.00293198
0.00111535
0.00269406
0.00390428
0.00455117
0.00311854
0.00125045
0.00125062
0.00379118
0.00323996
0.000375543
0.00150732
0.00204891
0.0040513
0.00147892
0.00310084
0.00400415
0.00280417
0.00115181
0.00474397
0.00408296
0.00232907
0.00639691
0.00237295
0.00270719
0.00310958
0.00333024
0.00194466
0.0041316
0.00584465
0.00701834
0.00184774
0.00326084
0.00432669
0.00440807
0.00497448
0.000825441
0.00293954
0.00332398
0.000444202
0.0017956
0.0053636
0.00344641
0.000929133
0.00167807
0.00230678
0.00697613
0.00290382
0.00104832
0.00520109
0.00721698
0.000671319
0.00184662
0.00137135
0.00358528
0.00441476
0.00463123
0.00153623
0.000619631
0.000719434
0.00464503
0.00551966
0.000621867
0.00548829
0.00175484
0.00307554
0.00152205
0.00098973
0.00439468
0.00340334
0.00117138
0.00399802
0.00478399
0.00452123
0.0035836
0.00545705
0.00090469
0.000293427
0.00366464
0.00358529
0.000720757
0.000532625
0.000687657
0.00211311
0.00110739
0.00200149
0.000559352
0.00352556
0.00353176
0.000840917
0.00236289
0.00241371
0.00100205
0.000932798
0.000420203
0.00592477
0.00546587
0.00071191
0.00647664
0.00425197
0.000846095
0.00529384
0.00315791
0.00401914
0.0031005
0.00502968
0.00620345
0.000471414
0.000495329
0.00210139
0.000738279
0.00241255
0.00364854
0.00432692
0.00439159
0.00333053
0.00450714
0.00518947
0.00397331
0.00468988
0.000730086
0.000672747
0.00410046
0.00172733
0.00379448
0.00427351
0.00260901
0.0035357
0.00365752
0.00452597
0.000573604
0.00111955
0.00434867
0.000673369
0.00280584
0.00143173
0.00293218
0.00343672
0.00097613
0.00280853
0.00108538
0.00469845
0.00291031
0.00290889
0.0062955
0.0011637
0.00705187
0.00540439
0.00240854
0.00427504
0.00145225
0.00333887
0.00242184
0.00339094
0.000885616
0.00389188
0.00341001
0.00364304
0.0070008
0.003371
0.00354265
0.00177343
0.000460045
0.00278759
0.000711074
0.00366452
0.0043805
0.00501905
0.00448713
0.00498952
0.0048011
0.00347107
0.00124294
0.00170292
0.00124199
0.000627122
0.00472852
0.00391618
0.000157645
0.000926922
0.00434337
0.00418205
0.0012685
0.0037467
0.000723239
0.000452286
0.00265456
0.000892918
0.00132007
0.00279316
0.000759616
0.00171605
0.00591416
0.00348399
0.00105555
0.00126812
0.00639848
0.000976036
0.00674844
0.00262997
0.00460044
0.00261937
0.00186655
0.000849679
0.00103695
0.00589242
0.00568921
0.000245884
0.00686795
0.00457138
0.00117631
0.00581489
0.00279925
0.00416609
0.00329443
0.000527548
0.00148096
0.000830483
0.00171681
0.00315235
0.00111747
0.00564552
0.00484335
0.00103017
0.00654401
0.00367883
0.0026272
0.00505775
0.00129669
0.000625531
0.00674234
0.00225514
0.00704176
0.000752258
0.00400982
0.000587269
0.00279664
0.00281696
0.00583435
0.0025069
0.00266503
0.0063625
0.00465755
0.00324313
0.0070892
0.00137327
0.0032736
0.00350114
0.00618365
0.00405863
0.00349199
0.00250411
0.00288113
0.00177721
0.00310068
0.00355852
0.00385145
0.00144564
0.000562218
0.000807635
0.000712983
0.00117659
0.000830641
0.00103875
0.0026084
0.000244732
0.000739403
0.00131144
0.00178018
0.00260757
0.00109028
0.000991784
0.00233319
0.00146187
0.00210188
0.00609237
0.00264461
0.00150865
0.00383733
0.000903595
0.00324987
0.000571194
0.00186586
0.0011805
0.00140195
0.00148105
0.000775263
0.00184841
0.000674755
0.00263399
0.00235658
0.00399453
0.0017114
0.00497038
0.00547381
0.000946199
0.0033236
0.000952386
0.00180949
0.00503822
0.00234376
0.00393715
0.00144686
0.00119331
0.00694187
0.00579094
0.00158813
0.000952237
0.00365911
0.00267479
0.00113948
0.00109173
0.00424387
0.00702655
0.00386029
0.00406319
0.00080498
0.00715471
0.000897317
0.000359267
0.00497634
0.002557
0.00408607
0.00357543
0.000869867
0.00278249
0.000762738
0.00321798
0.00421874
0.000527605
0.000984118
0.00520565
0.00232524
0.00517872
0.00642197
0.00128257
0.00298107
0.000759145
0.0035846
0.00609686
0.00253885
0.00679887
0.00459421
0.00514642
0.00478251
0.00273218
0.00222029
0.00145536
0.00339888
0.00109246
0.00510245
0.00663954
0.00215861
0.0012728
0.000837351
0.000865129
0.00186218
0.00195468
0.0010452
0.000934933
0.000824605
0.000844004
0.00311142
0.00300663
0.00396164
0.00137479
0.00501737
0.00273429
0.00311871
0.00135238
0.000519479
0.00348141
0.00259156
0.00347542
0.00443272
0.00337049
0.00391636
0.00600764
0.00454772
0.00253936
0.00290142
0.00266847
0.00534505
0.00290145
0.00150283
0.000757297
0.00415496
0.000579039
0.00744413
0.00300353
0.00686105
0.00440228
0.000909597
0.00269909
0.00115016
0.0036624
0.00343865
0.00329314
0.00439401
0.00470207
0.00383329
0.00320397
0.00789329
0.00737474
0.000790791
0.00295323
0.00123554
0.00283038
0.00104929
0.00559464
0.00450077
0.00337852
0.0038361
0.00289455
0.000963709
0.00632661
0.00394064
0.00112903
0.0024672
0.00243078
0.00264299
0.00243946
0.00228555
0.00213519
0.00484788
0.00747394
0.00646048
0.00195083
0.00149003
0.00457639
0.000493128
0.00625722
0.00176696
0.00683103
0.00610761
0.0018422
0.00435155
0.00635593
0.000967831
0.00742105
0.00408965
0.0014113
0.00326293
0.0068225
0.00129558
0.00668904
0.00729317
0.00109535
0.00280647
0.0028709
0.000759322
0.00725562
0.0019495
0.0013295
0.00168283
0.000945546
0.00115638
0.00457272
0.00582466
0.00284037
0.00580345
0.00183576
0.00288486
0.00501896
0.00578109
0.00348112
0.00117212
0.00296999
0.00425036
0.00245945
0.00340282
0.00249697
0.00738822
0.00209993
0.00114046
0.00360779
0.00338167
0.00469613
0.0045908
0.00295995
0.00432344
0.00217904
0.00326995
0.000615411
0.0040009
0.00699515
0.000992487
0.00286875
0.000656924
0.000971528
0.00618006
0.00330673
0.00123254
0.00309253
0.000638639
0.00142299
0.000555769
0.00141391
0.000621812
0.00301959
0.00155803
0.00153685
0.000537169
0.00114955
0.0028858
0.000645383
0.000594197
0.00243477
0.000313742
0.00119733
0.00385906
0.00367238
0.00116095
0.000934805
0.00729241
0.00365358
0.00097802
0.000742348
0.0010679
0.00128638
0.0015582
0.000796743
0.00278614
0.00362094
0.00428527
0.00687758
0.0030786
0.00634366
0.00101562
0.00293908
0.00430489
0.000671947
0.00379798
0.00229038
0.00420753
0.00600732
0.0031376
0.00433668
0.00177252
0.00639698
0.00173129
0.000599567
0.00469832
0.00648041
0.00326974
0.00492402
0.000996063
0.00358789
0.0053357
0.00622448
0.000565327
0.00609195
0.00347604
0.00658967
0.00166187
0.00307972
0.0043161
0.00568835
0.00497709
0.0014434
0.00353251
0.00254887
0.00744326
0.00693794
0.00670413
0.00461555
0.00446225
0.00352652
0.00576768
0.00329231
0.00357418
0.00239553
0.00126204
0.00109994
0.00319311
0.00177985
0.00412285
0.00264604
0.00346731
0.00370675
0.00628245
0.00314824
0.00426353
0.0061807
0.00214248
0.00453969
0.00308479
0.00105423
0.00477281
0.00270565
0.001178
0.0036468
0.00111707
0.00187347
0.00119022
0.000338273
0.00275051
0.00511066
0.00194455
0.000453192
0.00309098
0.00699439
0.00599788
0.00514019
0.00334002
0.00442878
0.00709177
0.00694817
0.0036491
0.00276906
0.00735287
0.00642659
0.00729014
0.00515744
0.00288302
0.00173783
0.00298144
0.00602745
0.00327607
0.000926279
0.00510639
0.00576815
0.00376626
0.000571558
0.000605063
0.00374871
0.005397
0.00465848
0.0030436
0.00480823
0.000686953
0.00173523
0.00478167
0.00400104
0.00578457
0.00340028
0.00179597
0.00433561
0.00320483
0.00347016
0.00129413
0.00195078
0.00150084
0.000936435
0.000261634
0.00227814
0.00191011
0.00372035
0.00380634
0.00334342
0.00322502
0.00552916
0.00428124
0.000473083
0.00635585
0.00177941
0.00100118
0.00328353
0.00294585
0.000740023
0.00202852
0.00394182
0.00379589
0.00730343
0.00294711
0.0010613
0.00378248
0.00150658
0.00641174
0.00262654
0.000740493
0.000847395
0.00324887
0.00305783
0.0010629
0.00450499
0.000678972
0.000600078
0.00120756
0.0074196
0.00670751
0.000303963
0.00577415
0.000508698
0.00193677
0.00306192
0.00107806
0.00103585
0.00598093
0.00720146
0.000950274
0.00603235
0.00575236
0.00471405
0.00637444
0.00423179
0.00365025
0.00213312
0.00541962
0.000357753
0.0031046
0.00388496
0.00370976
0.00030971
0.0041147
0.000560727
0.00467904
0.00309222
0.00358661
0.0010934
0.00559262
0.00437405
0.00474421
0.000957767
0.00184532
0.00184155
0.00132288
0.00268277
0.00606997
0.000783793
0.00326389
0.00320527
0.00326799
0.00412635
0.00307679
0.00382638
0.00717414
0.000368252
0.00127205
0.00431533
0.00470883
0.0028897
0.00384472
0.00269883
0.00278828
0.00456877
0.00225339
0.00433534
0.00471642
0.00411823
0.00155205
0.00439675
0.00439365
0.00451355
0.00345387
0.0067402
0.00536956
0.00480325
0.00275641
0.00415189
0.00270078
0.00254102
0.00352399
0.000691708
0.00475844
0.00272621
0.0014403
0.0011965
0.00150076
0.00360733
0.00627606
0.00181573
0.000729706
0.00394189
0.00101107
0.00397848
0.00711907
0.00268829
0.00172915
0.00379954
0.00427517
0.00733549
0.00480091
0.000346275
0.00477338
0.00640834
0.00239295
0.000478295
0.000557739
0.00350321
0.000289881
0.00149904
0.00113294
0.00244357
0.00114691
0.000537884
0.00483339
0.000872721
0.00387573
0.00501507
0.00616472
0.000521754
0.00205906
0.00678542
0.00560812
0.000998701
0.00406558
0.000521845
0.00494121
0.00289806
0.00432388
0.00290312
0.000633789
0.00729931
0.00313074
0.00280224
0.00544337
0.00366631
0.0055962
0.00283878
0.000465449
0.000451689
0.000731567
0.00143664
0.00125407
0.00563727
0.00607844
0.00491233
0.00363151
0.00692542
0.00143703
0.00716136
0.000908743
0.00417442
0.00646572
0.00566904
0.00472078
0.00656962
0.00323461
0.00295347
0.00719042
0.00308463
0.000888779
0.00521052
0.00103083
0.000922785
0.00634856
0.000302508
0.000551653
0.00275539
0.00289659
0.00365895
0.00123331
0.004488
0.00197392
0.0012055
0.00527502
0.00161314
0.00711497
0.00199359
0.00402764
0.00226919
0.00201525
0.000863876
0.003328
0.00383408
0.000674697
0.00127524
0.00197637
0.00158935
0.00566123
0.00167963
0.00407905
0.00184
0.00318964
0.00612348
0.00129679
0.00269075
0.00232082
0.00647146
0.000592364
0.000824664
0.000566771
0.00560863
0.00404266
0.000863503
0.000576796
0.0017927
0.00369897
0.00249613
0.00105332
0.000709429
0.00173304
0.00441967
0.00445353
0.00428111
0.00481242
0.00399128
0.000567299
0.00499664
0.00169578
0.00311082
0.0066898
0.00256708
0.00258667
0.00475285
0.0038629
0.00499083
0.0022745
0.00188962
0.00469045
0.00507964
0.00213848
0.00325687
0.00278125
0.00194021
0.00218392
0.00356124
0.00593261
0.00576823
0.00519888
0.00076677
0.00356442
0.000958826
0.00237636
0.00369055
0.00492618
0.00326652
0.00703392
0.00245047
0.00747117
0.00200248
0.00235008
0.00358915
0.00422698
0.00237227
0.00339348
0.00252941
0.00402895