/*--------------------------------*- C++ -*----------------------------------*\
| =========                 |                                                 |
| \\      /  F ield         | OpenFOAM: The Open Source CFD Toolbox           |
|  \\    /   O peration     | Version:  2506                                  |
|   \\  /    A nd           | Website:  www.openfoam.com                      |
|    \\/     M anipulation  |                                                 |
\*---------------------------------------------------------------------------*/
FoamFile
{
    version     2.0;
    format      ascii;
    arch        "LSB;label=32;scalar=64";
    class       volScalarField;
    location    "0.0625936";
    object      omega;
}
// * * * * * * * * * * * * * * * * * * * * * * * * * * * * * * * * * * * * * //

dimensions      [0 0 -1 0 0 0 0];

internalField   nonuniform List<scalar> 
47425
(
59.0044
67.4479
71.8867
161.692
140.983
71.3293
94.967
101.719
49.394
602.912
137.508
44.126
71.9849
79.6029
96.0289
88.5423
68.7633
47.8453
1326.79
191.821
84.7636
45.3275
104.981
63.3076
46.1286
44.135
78.027
691.28
70.3509
55.4927
43.7676
44.9944
47.7437
68.2456
55.2695
67.0777
44.7883
67.5605
65.6116
74.6466
71.8201
107.361
190.232
144.994
1768.41
104.38
96.0095
77.6004
78.7802
47.3077
575.415
230.74
49.8219
725.276
113.057
123.411
44.5575
58.3043
80.5763
61.3827
968.389
1175.2
905.567
44.2681
49.3523
44.9902
61.4472
86.9887
733.018
44.5189
78.3189
52.1742
48.8173
90.8466
652.145
49.4036
891.996
81.3535
1333.83
267.034
670.894
65.1808
43.3149
46.9291
49.7899
82.0845
53.9576
52.1833
122.896
405.81
44.5715
76.5214
42.8146
114.376
146.98
194.636
48.1345
52.9022
88.1183
78.3409
60.1747
91.9925
52.3347
97.4667
49.914
52.7939
48.8142
93.5378
60.8279
45.067
358.013
62.2612
71.7864
155.166
44.9138
893.329
44.1663
228.776
78.1891
62.6447
79.4611
48.5449
58.1363
63.1573
96.8358
57.6575
85.2304
49.1901
105.425
42.6766
45.1133
95.7685
125.734
119.877
98.6313
68.075
47.8384
60.7428
69.119
97.2815
70.9467
131.762
70.8991
89.1618
52.0855
49.3287
112.76
62.7151
150.677
72.3658
88.9149
502.252
48.7559
698.638
46.359
84.4224
59.4957
901.398
92.0989
71.9586
44.866
43.5961
49.9077
46.724
414.55
825.903
45.5347
663.763
106.373
727.986
696.122
85.6007
73.8609
45.6328
71.8845
65.8061
725.453
70.3794
52.7065
44.008
1002.91
47.7627
60.3338
46.0034
46.7905
48.4422
56.7771
76.6192
149.311
55.9251
47.9247
72.0167
82.9343
77.0218
46.5937
42.8249
61.8689
72.4212
43.9543
83.2016
65.8725
122.964
56.7559
43.3657
49.3328
159.064
53.4952
43.0184
86.8171
48.4401
63.2607
66.0605
47.2112
93.6355
63.7811
63.8398
76.3981
248.854
46.8057
93.0971
285.226
120.512
125.975
96.579
167.101
240.008
46.4598
130.094
48.9737
60.2176
72.2672
72.4518
103.254
49.3224
164.971
92.7558
326.501
112.468
270.984
181.235
83.4849
59.8666
42.5569
102.512
44.597
49.4529
68.602
60.6043
43.2773
77.6658
42.5362
219.794
67.1683
49.2833
91.5976
42.8782
46.3355
119.944
94.7054
48.3486
124.638
47.2152
78.6898
135.187
71.7638
89.6388
44.2602
71.9669
62.9174
82.117
79.9987
237.029
314.406
48.6619
222.253
179.21
223.07
112.408
298.16
183.186
1025.41
58.0663
976.604
123.266
79.7132
85.5963
104.324
91.0623
90.4087
45.9891
622.887
44.3417
50.3438
56.8018
67.6606
98.117
111.466
46.4477
65.6027
56.0886
87.5232
43.7416
85.8854
60.3526
822.184
1037.96
670.2
42.7059
48.3844
43.537
100.785
688.901
86.4683
116.535
263.074
73.574
104.294
122.016
93.2786
430.994
230.843
44.9139
60.5862
47.1198
81.529
43.7791
78.4058
62.6677
52.361
72.011
83.7836
701.235
54.8805
74.8435
129.127
42.9373
704.662
50.3999
45.6313
52.9584
45.8989
46.2737
44.8905
52.8064
50.7279
50.7017
59.6603
47.1509
83.4414
83.5225
47.0324
45.0579
62.6973
47.7981
48.1176
46.9016
80.7453
43.1038
48.8474
93.4021
54.5737
60.506
77.9589
94.5967
48.0349
48.7827
130.948
48.2156
67.1164
44.4484
129.87
956.211
78.0234
43.7358
200.232
43.7273
98.5375
93.3607
72.5503
45.062
63.5013
44.425
42.8862
73.7831
85.9155
82.8571
83.7791
52.6743
48.75
82.6824
48.3147
46.7083
80.4899
56.7824
65.7326
48.445
61.9475
88.8795
66.4817
48.8383
487.451
45.4183
419.955
69.8654
105.394
102.773
47.1511
145.73
46.4141
94.0892
46.4453
536.346
365.39
42.9217
49.937
80.2962
85.9572
82.3871
74.573
81.1427
89.2322
67.1819
45.2249
101.382
71.0009
48.7149
88.1813
78.2418
52.4001
145.108
1322.06
46.5874
282.522
1093.13
89.411
1122.65
786.293
47.694
80.2941
75.83
79.0234
699.35
87.1823
49.5699
49.1116
75.0006
75.4667
80.5175
80.2512
477.701
771.401
153.661
65.5411
72.0025
127.846
57.6964
43.8275
68.2776
43.3387
83.9814
75.8096
132.705
69.3808
49.3502
80.1821
59.7545
77.6625
43.5411
64.7303
67.4426
66.6415
63.5364
108.808
120.163
61.9044
83.4866
43.3684
525.864
130.052
74.7852
46.3511
134.967
244.932
47.4128
43.078
47.528
47.3059
67.379
49.5334
105.609
84.4617
48.0585
54.8403
142.422
99.4486
46.8534
50.6357
57.1763
54.3838
48.5442
51.6657
43.9023
69.5349
59.045
111.389
61.8127
46.5724
43.2323
43.563
74.1331
127.219
44.6137
42.6817
55.7557
57.3388
57.4631
59.4422
69.4166
72.1341
51.7804
76.9253
100.902
431.276
61.5128
69.1593
53.0334
49.3451
131.557
130.18
76.2065
49.7717
80.195
103.793
46.9116
140.504
48.4579
261.684
48.0358
50.9452
58.5028
125.681
42.2032
72.5193
73.5097
53.7225
43.4483
51.5837
1135.16
62.9714
146.541
45.8403
99.1019
46.4574
58.9549
84.2089
72.4864
70.2247
45.4235
395.559
54.8519
59.2238
55.6402
48.4814
43.9729
57.9589
116.712
48.365
57.4228
67.5839
43.8979
260.511
44.5345
62.0525
491.246
71.7375
43.0929
347.329
575.394
44.6308
656.378
685.168
70.838
46.6053
52.0798
44.3069
85.0766
88.5266
668.777
44.6203
126.58
49.4504
113.656
56.745
85.3116
66.9769
510.804
321.398
51.7706
94.4298
100.474
84.7647
121.662
125.039
48.0866
97.6428
132.906
98.0204
67.4569
134.656
51.4309
47.854
135.38
93.0397
78.0972
119.965
100.826
68.1186
73.4161
59.4272
53.4057
67.6541
47.2703
46.9147
1320
62.2471
77.0643
1001.92
975.198
43.2423
76.4307
1630.21
168.994
93.0589
294.151
119.462
767.128
59.5341
48.4255
60.0461
172.108
113.73
112.841
46.3394
118.194
67.563
83.4469
48.324
80.0386
57.9091
454.433
703.594
121.937
49.0652
85.9925
43.1959
109.557
47.421
58.2103
63.4991
65.0725
44.6653
176.863
75.5081
47.5388
67.3418
186.417
768.006
229.61
86.9052
43.1844
74.6076
43.7096
751.563
70.4943
648.346
83.8096
109.169
66.7509
68.9836
58.6803
87.3826
54.0565
88.3153
56.9147
206.987
90.9207
49.2336
71.8638
89.3119
601.123
66.7154
202.298
69.157
48.6641
43.6733
141.627
79.8452
71.7738
45.9463
63.395
67.6181
72.564
80.7481
79.828
64.8375
126.376
196.897
70.929
98.4332
67.7826
113.197
91.446
48.2695
150.779
61.8293
76.9005
78.4018
44.4026
298.572
394.214
95.1032
65.9627
46.8633
91.0589
55.4531
135.854
44.2401
255.584
80.9893
44.6775
77.1932
46.8092
59.4486
69.8917
49.6444
89.2052
42.4854
45.4491
48.1971
165.72
41.9886
340.389
253.549
263.187
365.001
79.1753
231.747
58.5258
46.4076
144.381
321.096
400.691
104.595
61.8975
123.243
115.396
164.233
128.368
94.4547
54.0071
70.6692
101.322
112.548
56.2128
81.4337
343.3
57.6796
62.6995
153.541
119.832
115.921
175.826
738.323
463.18
224.587
248.043
80.6881
119.115
44.4471
46.6661
71.4376
431.397
176.484
71.2422
72.6358
43.5161
369.467
408.536
43.0229
169.057
89.9077
42.9163
165.497
42.8674
43.9139
72.7065
72.1795
84.1103
48.1699
43.0867
61.0142
68.7301
67.407
137.318
106.512
43.5011
244.486
48.1108
46.6706
47.1558
194.858
78.8052
239.952
119.824
54.6593
43.4819
68.3366
1372.7
71.9988
82.9828
70.8535
65.0096
61.1355
114.413
119.941
127.943
289.807
95.6976
802.367
49.4171
66.1134
56.2333
63.0164
45.2144
166.103
125.812
44.4455
291.725
94.6493
71.6942
242.484
78.3212
54.6306
71.0578
67.7096
69.2142
112.233
330.212
66.4491
74.019
207.1
220.569
660.252
215.219
88.83
172.437
45.0078
47.7849
106.566
176.676
86.4094
82.6383
92.5384
103.173
47.8164
68.2586
103.911
99.0648
89.8863
356.724
497.663
93.6155
132.311
166.592
679.475
408.994
203.013
92.4082
67.152
96.5895
92.9495
234.664
45.9195
48.0343
96.4894
404.891
120.972
75.5889
97.6541
54.0793
109.075
126.44
78.6069
508.38
54.0363
64.9076
131.331
97.2566
65.421
66.1335
104.734
103.421
90.4265
57.9799
125.303
45.1055
44.9286
45.639
79.8244
57.8634
151.306
53.0018
216.875
287.396
260.401
99.6867
83.7013
45.5981
70.3025
114.186
491.347
244.731
891.962
45.2232
58.103
54.3739
324.23
88.5348
331.243
237.438
231.581
133.439
217.79
90.4784
86.3035
73.2014
46.3754
125.873
67.454
74.6947
252.429
73.3566
68.3968
51.011
265.57
397.397
151.803
203.245
661.222
191.799
91.3582
68.4025
89.6775
105.673
184.609
188.358
494.16
46.1986
58.3905
72.6459
47.8202
63.0952
100.787
96.2902
54.2088
120.081
53.0564
76.4725
51.5224
47.2959
124.369
66.7651
116.529
44.7205
45.2008
162.556
47.0944
99.1379
104.942
44.5702
62.715
105.11
79.9607
68.2334
79.9632
547.34
184.46
124.468
107.424
1872.97
1004.14
638.9
453.574
102.232
49.5409
1148.29
418.604
53.7882
63.15
106.77
86.1435
396.682
138.619
45.4491
113.417
58.2591
49.4981
203.745
959.718
139.101
1194.05
152.137
249.253
682.978
56.6306
76.8161
134.078
321.244
92.1911
46.4773
46.3108
795.771
106.173
365.717
73.7216
161.694
48.7854
53.4882
556.292
575.444
82.3623
53.327
75.8135
526.415
44.0104
51.5019
434.053
568.43
72.6125
44.139
1048.69
743.838
583.047
99.5651
275.495
522.012
560.99
80.0238
87.9765
107.866
64.6047
107.971
548.099
1368.63
64.1867
60.0556
58.7602
52.2639
47.6548
81.7338
131.473
65.8392
49.5561
48.5471
92.2608
355.97
1173.19
51.449
228.106
103.387
72.7332
175.205
57.3867
90.4571
76.6781
46.4279
198.961
53.4871
520.938
44.3148
792.087
480.509
604.742
203.167
101.002
62.8833
102.667
60.5129
218.916
1448.42
104.024
392.208
180.861
475.818
160.52
768.632
617.415
91.7732
62.1798
1618.12
88.0772
48.9663
73.8243
607.692
1088.82
79.9886
52.4304
477.399
77.1952
776.295
766.268
107.973
114.265
845.693
103.041
44.7958
604.767
51.9865
529.004
1000.46
43.6079
70.0024
84.5766
56.6286
123.051
102.09
42.8134
121.652
89.7513
117.608
57.6682
43.3047
195.134
214.798
595.827
51.6217
95.2554
228.175
45.3101
843.298
85.993
112.789
151.428
497.165
86.7559
376.879
181.857
146.569
56.9709
541.093
224.123
289.575
86.8174
163.092
62.6515
76.0317
71.9089
344.733
238.432
109.933
726.465
150.101
109.306
277.467
124.43
143.504
738.099
343.061
57.9397
156.838
83.8681
148.416
305.808
860.219
58.3757
45.6984
62.3948
489.725
63.5129
300.694
58.6711
62.3045
47.6597
150.487
55.1483
206.694
311.396
54.0202
60.7152
92.2002
80.511
981.279
413.671
117.089
752.587
350.132
121.981
243.606
64.2447
57.1065
1030.03
56.9795
363.173
357.875
45.8246
58.9887
98.2531
96.2743
56.26
71.1031
146.637
74.1727
78.3096
66.6418
81.372
239.848
67.016
191.978
155.153
207.714
56.1666
733.804
438.657
54.4924
571.423
247.886
57.2121
106.95
640.107
217.656
46.648
180.737
450.579
199.067
497.937
57.5762
578.627
114.929
54.9648
68.8679
108.454
185.796
122.323
65.7161
244.142
50.6753
230.761
107.022
1287.51
143.691
80.7052
119.67
264.98
55.1616
281.343
109.173
109.065
613.98
79.2455
79.0922
1080.99
43.534
103.311
371.437
62.413
273.698
629.388
151.379
71.4939
83.5496
953.124
276.488
435.802
295.028
77.769
69.8784
100.107
685.744
710.951
304.568
88.5656
48.2492
86.5276
87.3778
130.084
333.581
92.657
55.591
62.6711
61.4006
45.0339
85.1841
44.2371
46.8311
120.525
81.7198
45.9654
128.657
233.26
61.3633
47.6533
130.769
64.3818
48.1073
55.0972
100.583
94.4886
50.0481
96.9039
560.828
87.8145
48.5178
54.6648
43.9962
247.374
67.2976
53.7642
676.608
644.877
287.872
48.1097
657.441
148.575
55.6234
1001.68
92.6322
983.989
90.9266
66.6441
81.6843
66.7109
45.5144
82.4441
83.8271
92.0501
114.526
89.464
103.864
162.914
80.4725
81.209
429.44
86.5188
1375.2
70.4899
697.892
46.3044
118.619
179.138
52.4472
68.3805
189.894
43.0452
539.905
331.946
1217.89
51.058
631.048
59.0205
109.739
172.07
57.9602
587.465
89.1469
291.691
69.5179
746.126
700.136
79.7084
43.7838
457.565
68.9824
423.013
85.2742
95.7272
70.193
72.6471
56.9504
45.3843
88.7526
278.432
74.3835
176.745
83.7987
87.0174
42.5731
155.044
517.232
89.8549
381.926
117.205
67.6177
120.199
79.1326
74.0292
55.9076
151.125
131.286
48.5682
85.5394
83.2914
67.8702
93.5437
403.861
399.346
81.3261
90.028
314.237
87.564
52.6644
64.6316
48.5501
166.78
166.178
203.932
104.45
69.8713
74.6757
65.1687
56.6362
57.9991
59.0886
481.88
130.162
666.614
515.157
631.82
57.9703
68.6285
72.2928
72.0018
48.1997
324.677
81.8609
46.967
78.8423
111.523
76.8549
321.592
75.2376
157.024
113.343
97.8413
50.2232
70.7608
89.3316
88.1022
68.2477
112.997
98.1751
176.406
86.9357
68.9109
79.119
150.396
169.856
65.334
80.2782
134.651
97.0501
169.773
45.7453
56.5364
136.112
68.901
53.9683
76.044
44.7034
47.0233
88.6543
74.701
396.125
72.228
88.8663
50.1133
70.3692
641.108
79.7028
84.9661
60.1493
61.2312
87.656
85.8521
941.476
107.225
460.938
51.3145
60.0979
71.1499
42.8652
48.8836
108.345
81.322
48.2602
45.4331
305.992
107.049
512.394
119.971
254.568
104.628
78.7314
109.378
570.928
181.959
94.9005
78.8806
941.279
64.6101
80.2372
86.6127
82.7614
52.2447
946.568
67.3134
90.8975
46.7717
123.949
55.1552
911.621
1009.33
67.5117
53.422
44.049
90.9955
93.393
60.3865
1177.08
785.474
64.8565
137.873
457.965
64.5631
157.565
122.159
43.9422
62.1863
46.6957
74.2989
211.303
85.7768
78.0578
45.1095
56.192
75.1195
48.6131
315.41
63.4569
140.489
165.848
442.839
323.676
102.143
134.642
75.7435
133.155
118.665
44.0899
603.037
330.74
131.227
92.2959
106.051
90.4661
87.8743
280.662
42.6187
45.4938
62.1874
65.0088
135.247
75.0732
360.65
388.656
45.716
131.226
44.0867
43.2719
80.2632
61.9022
63.9636
54.7608
42.8202
281.501
365.41
43.2043
52.7041
226.246
442.138
48.4321
42.8203
90.8643
175.463
926.204
93.864
391.76
361.193
515.906
391.649
71.6942
49.295
43.0673
58.4318
959.077
56.5716
85.6804
80.1292
42.7368
706.764
1196.08
1172.97
198.464
335.241
50.4318
45.4015
53.2487
84.5928
767.356
622.968
422.153
537.653
399.664
55.1679
48.4897
854.356
47.8097
911.303
95.2433
907.642
79.4828
146.665
90.9589
186.766
169.166
169.718
134.635
63.0021
88.7317
72.559
65.5395
72.101
66.0867
1258.53
813.533
91.2132
345.275
700.104
331.058
67.9151
46.2306
646.741
509.545
505.923
44.1706
796.698
50.047
987.791
614.509
726.86
284.725
54.1608
61.5091
46.8077
71.3448
85.9308
167.459
69.0741
84.937
64.966
94.522
78.5791
45.1378
48.3281
120.444
45.9028
52.0312
78.5656
94.9057
94.7442
87.39
153.258
90.7676
57.9707
119.235
98.9516
90.5046
93.8722
141.218
1055.51
59.1948
337.013
69.3401
90.5553
472.773
65.4601
56.5396
47.04
108.665
95.7066
54.655
109.105
101.645
84.0664
46.6321
67.5415
63.395
71.027
105.131
73.1291
98.6197
281.089
90.5706
80.7585
76.1023
111.987
78.788
348.655
44.493
68.4894
106.222
310.194
275.632
88.7481
102.315
941.463
231.976
186.496
90.5204
72.142
109.335
88.1813
53.4533
131.324
78.4994
87.6961
424.736
51.2779
165.451
128.669
110.354
106.19
201.022
78.308
57.6131
44.2
53.2455
99.9833
80.5609
461.244
62.8394
91.5908
127.915
103.547
890.762
56.4511
95.0214
105.424
273.854
387.563
146.191
44.4449
135.72
65.8549
46.0485
43.117
552.424
100.185
58.5818
423.881
119.303
68.6854
150.186
773.228
1128.29
175.314
71.1615
853.54
77.178
217.024
134.889
584.169
288.002
107.806
94.8872
527.103
91.6325
63.7774
80.8515
99.9336
54.0977
62.946
349.085
44.8778
101.525
568.352
153.664
568.361
86.9155
440.891
49.5607
1144.73
105.893
106.079
629.452
235.285
296.088
554.406
424.641
268.484
58.7517
61.275
425.92
55.551
85.6991
315.35
67.3807
58.2799
78.4993
156.654
70.9516
50.254
739.42
480.306
178.383
311.389
168.204
93.0657
81.7426
80.8736
115.677
70.7389
57.3759
86.0798
62.4767
302.296
311.484
132.471
54.3205
100.321
80.1427
123.736
105.885
98.0703
78.9792
306.411
58.6473
65.8843
314.966
131.961
581.36
203.046
99.213
747.934
138.067
112.302
403.369
134.479
128.64
50.1185
550.989
43.4849
56.9427
51.1752
86.1169
67.541
101.273
215.974
104.96
121.917
81.4468
110.663
99.6843
43.2377
376.053
152.134
585.779
1085.73
109.002
397.379
132.319
70.2417
521.7
68.9663
61.1659
98.6581
117.593
692.689
445.757
53.7034
314.261
371.028
88.312
1925.58
407.088
134.345
371.449
61.9138
88.475
242.342
340.328
145.744
744.697
53.9154
52.1745
154.707
51.3553
48.1318
106.159
322.085
575.908
46.9218
138.767
43.8518
144.394
63.3493
143.813
313.474
92.2112
297.203
59.6361
63.397
789.407
44.7427
53.9097
107.141
53.4503
124.543
261.37
46.4774
951.113
553.972
885.24
461.934
119.396
66.9414
53.5857
62.1637
85.071
47.2378
86.2938
149.175
62.8217
71.1813
662.067
45.8224
166.439
44.731
135.07
71.4995
731.364
128.346
107.631
45.3801
131.054
151.321
48.8021
60.5419
99.159
43.0125
200.747
97.4463
105.164
54.8747
45.3686
102.452
46.7985
127.96
410.022
44.9273
75.776
49.6889
63.4802
345.735
220.589
124.41
452.708
849.48
346.441
82.0892
499.085
374.89
681.166
73.4478
206.318
338.531
338.445
301.964
882.343
54.8942
45.1458
203.398
800.718
53.5623
434.125
116.731
455.532
79.5082
66.8396
630.39
567.954
323.543
57.1815
289.949
131.007
400.54
44.831
203.948
64.4612
57.021
94.9345
96.3998
293.613
107.772
63.7137
161.431
80.1713
266.617
381.952
44.1948
73.3674
54.2119
898.545
90.9085
131.397
200.106
137.904
71.5041
44.1403
91.3832
76.4178
466.967
43.4302
104.48
316.414
65.1485
50.0103
77.8689
74.2866
693.081
138.697
210.329
96.2142
73.9869
1015.72
655.907
60.2483
144.31
60.4061
48.5552
410.262
86.8115
534.375
56.6314
51.1334
96.2967
56.6751
47.2789
61.2552
71.0826
136.51
243.052
290.62
403.66
70.2626
73.4575
47.1271
171.169
605.968
940.067
68.1522
458.565
180.437
674.497
77.3235
358.774
110.524
167.265
129.896
82.4392
260.2
75.8366
189.035
113.213
59.5868
1032.73
107.579
518.73
107.394
76.8448
109.266
147.952
68.7389
68.5054
344.547
106.039
122.287
57.7007
123.303
531.272
127.487
79.3201
159.087
46.4946
63.1806
45.6497
74.835
78.3164
148.068
70.859
94.7225
95.3459
74.3063
76.8535
64.4176
74.5118
60.0344
377.264
49.5658
107.299
49.1412
68.0133
123.97
75.438
54.3237
78.8413
99.9006
87.6863
126.771
353.954
47.9481
173.022
463.351
158.584
156.246
51.4941
156.803
91.8235
309.661
65.1259
45.2328
53.2601
165.056
56.4107
66.6227
875.209
216.116
365.461
44.8039
51.1037
186.543
81.1296
55.6368
134.969
49.1072
80.421
54.2842
393.066
45.6014
156.143
46.0759
45.1559
76.6386
67.3749
132.66
106.032
43.0773
298.021
65.1718
67.5722
89.8596
804.606
65.6946
61.7978
126.811
61.8543
57.4469
123.442
60.1289
51.8562
107.57
211.207
125.488
83.5783
407.462
109.244
242.132
48.5042
182.4
64.5848
94.9007
230.423
49.9202
110.515
66.0244
82.1142
156.084
70.7842
579.795
109.244
46.0412
520.898
131.392
1026.39
302.513
203.13
86.9422
94.0028
122.129
360.371
60.5002
443.002
92.2318
351.132
65.5749
397.792
64.3392
253.401
220.123
123.487
340.872
547.455
388.909
1138.14
538.364
445.168
457.75
469.41
326.366
43.4312
95.6322
327.402
69.4706
637.907
58.6199
499.036
625.335
119.227
100.051
76.349
44.2179
114.405
47.8725
250.734
131.366
83.5523
187.376
85.1027
154.504
72.6982
54.2833
111.811
49.2822
219.491
47.6182
69.0616
709.043
65.615
43.4081
105.142
63.7891
772.073
291.218
73.0455
67.7743
173.759
50.4474
85.3106
49.8611
51.5366
105.423
76.8204
56.0347
62.8886
307.057
88.6583
55.0167
44.0727
44.2691
46.2114
202.669
72.3035
96.1531
54.0906
80.7652
98.3835
55.552
233.692
72.2513
48.0105
59.8045
82.7717
137.946
111.159
99.1429
50.5514
119.531
84.853
52.4399
51.728
76.7096
84.4114
101.946
68.8324
123.61
66.1874
88.7795
115.944
299.33
763.34
1118.01
122.801
60.8912
499.326
169.9
176.951
45.4825
51.1902
44.1675
90.5438
73.416
43.8607
45.3545
45.8571
111.739
42.9504
48.5172
43.5257
60.1511
184.894
53.1953
114.323
52.6095
97.7179
242.258
60.3396
54.2734
62.8718
1075.73
885.142
99.8163
67.1179
68.6195
59.2484
96.3882
479.591
64.3375
68.0475
90.578
43.4706
95.3039
51.3167
87.561
112.121
91.844
62.8247
204.176
262.716
64.4303
2079.12
251.381
199.928
61.5018
85.4461
100.228
114.921
54.5858
75.6749
301.998
45.801
192.657
619.872
105.532
124.067
648.893
64.6442
80.1847
91.9575
43.1801
118.089
410.209
92.0374
91.0476
465.157
219.522
1076.33
624.406
100.116
48.9953
141.243
68.7254
186.039
149.448
566.779
49.8489
45.7527
644.962
52.9314
193.636
77.876
103.75
660.192
836.635
51.1187
43.7068
931.332
50.5748
54.3134
66.133
48.1822
81.3097
154.86
268.755
61.6967
579.065
104.996
51.9616
85.6124
718.554
80.1874
606.254
65.8672
61.7305
86.5804
84.8122
59.9014
113.98
65.2029
567.144
114.508
117.306
525.235
123.338
53.8157
674.836
111.82
106.215
82.9724
163.862
108.318
78.9984
45.1098
264.097
73.2185
72.7516
64.6976
122.142
83.5796
58.9634
46.7346
66.9923
147.481
71.8846
66.6085
80.611
464.101
72.9852
71.1538
68.9129
94.0559
46.9046
63.9748
63.63
132.21
104.355
141.601
148.7
89.9637
474.342
63.3569
56.9528
454.239
412.291
495.104
89.7531
337.071
52.7695
580.215
94.9512
320.747
95.8314
44.4805
115.241
199.919
93.3736
69.8057
43.8037
63.8414
422.67
64.0838
50.3121
54.1823
1482.83
327.108
45.2508
1487.39
580.944
330.736
227.075
831.112
288.011
76.0651
308.82
88.8069
91.4605
402.917
992.092
62.8605
45.0616
55.1279
491.04
46.041
992.267
126.143
129.002
135.37
125.332
335.68
43.0521
115.378
122.944
55.8532
105.043
53.5841
121.473
2009.34
1895.5
818.315
97.8008
670.041
44.1008
49.4803
63.0088
100.781
44.4662
55.7351
43.9303
74.0394
90.2475
47.2501
54.7208
76.6837
46.5815
101.366
121.087
44.0641
115.246
122.146
44.5191
54.2717
880.899
56.4324
839.439
602.702
126.311
132.77
83.98
122.65
68.6133
53.1281
567.089
58.7139
58.3695
47.9421
51.426
78.7159
140.522
125.937
176.305
112.831
47.7886
560.726
61.1591
321.255
364.96
63.6801
543.073
80.4019
54.4629
60.8771
57.4101
63.5881
47.6581
129.857
50.897
350.318
220.173
365.039
57.1152
56.8365
83.5213
318.987
479.456
92.3129
147.031
64.7695
306.327
64.5097
165.672
460.101
84.8051
56.4216
91.6286
981.699
63.5662
59.2451
120.089
47.8191
137.073
126.497
130.417
84.5741
294.462
170.106
505.059
71.4856
277.312
411.886
319.095
53.8497
175.539
92.6987
102.614
53.9152
64.6731
63.4211
490.017
85.7439
99.5656
257.026
82.7324
63.0495
97.2689
45.7644
143.598
48.2488
64.063
164.989
103.566
79.5226
166.547
98.4245
92.861
80.8016
126.341
45.3039
320.598
258.395
107.267
103.766
45.4455
315.381
60.1821
45.1197
85.4313
47.4365
107.803
89.2252
50.2942
55.2668
98.7388
288.526
235.059
49.6423
818.169
45.1655
97.528
95.7386
48.1618
775.793
148.381
669.708
49.9
68.3358
540.079
681.476
88.1458
102.368
186.957
127.983
49.8902
98.7654
63.5005
145.944
81.7275
134.123
49.8584
135.552
100.85
106.942
61.7904
88.2681
43.9058
60.6678
585.612
372.594
107.174
100.71
101.374
86.46
86.1838
162.511
44.1344
50.3211
59.731
86.5759
81.0946
66.5159
112.131
52.5058
58.1762
52.0427
72.7044
58.0648
69.734
190.936
84.7514
68.1011
1004.74
78.3265
65.0999
78.5142
44.5388
83.1165
207.588
46.5918
76.038
81.1138
534.411
64.3945
63.2253
94.7408
1484.47
95.3229
157.081
120.117
65.3671
63.9349
77.4697
62.6072
848.449
94.29
68.3201
64.0996
44.1182
281.996
46.3567
413.306
439.258
112.119
73.3247
59.315
116.002
88.8266
57.5173
439.606
119.184
299.38
43.6042
138.392
575.438
119.199
49.5935
99.852
54.4937
605.064
57.5539
53.9053
90.2616
43.5526
60.8106
87.8182
52.3253
378.964
43.6902
373.459
46.4614
73.3854
66.7566
148.014
87.202
126.538
113.178
559.289
109.619
119.296
75.3644
45.1028
103.746
58.7963
53.3991
81.0508
76.6566
63.3901
123.788
47.0676
65.9984
47.332
291.038
87.1484
621.709
544.554
318.322
157.785
67.8007
70.3058
61.2512
194.525
90.5194
44.7735
42.8842
112.529
145.933
46.5896
71.929
1048.71
123.272
66.7933
75.3465
580.123
845.659
59.4715
552.652
549.077
200.383
369.03
163.414
540.632
72.0315
221.138
739.619
75.1777
42.8922
61.9708
108.165
314.949
43.7894
44.4567
70.5581
144.214
153.223
961.773
109.235
1040.99
119.104
69.9025
84.7721
77.1088
75.9912
544.841
201.506
339.122
462.808
66.8252
394.086
1192.31
66.1275
162.332
115.637
408.897
150.757
128.107
701.999
1052.83
107.552
620.306
125.586
421.93
81.5693
44.7041
152.875
784.965
682.36
62.8999
102.606
147.755
98.573
253.072
48.862
72.0814
956.909
381.632
368.22
58.792
360.464
66.8671
367.267
56.4433
114.295
188.589
309.418
87.1901
121.384
289.777
104.849
921.309
71.7894
59.6753
383.418
46.7426
145.764
45.379
54.988
43.8194
81.7916
437.913
444.943
326.911
59.1575
63.2036
304.957
57.0844
546.416
72.3505
53.6144
80.9463
217.215
153.844
645.686
51.0269
72.9779
64.1063
274.688
100.142
578.601
908.249
430.071
104.579
61.2405
427.175
348.781
152.826
47.3848
61.6655
42.9124
696.681
274.109
463.082
1236.37
240.558
95.1577
79.8919
777.17
408.613
63.174
87.5699
102.163
332.925
60.8064
47.6225
88.2568
81.5862
785.571
289.817
224.378
246.114
324.757
329.2
162.476
90.6648
839.134
459.628
716.733
201.519
333.454
656.647
150.37
57.7279
107.509
58.1489
59.2398
78.5137
76.7297
136.296
302.327
84.9064
178.845
182.069
146.914
112.947
191.341
113.232
102.656
128.518
754.963
1129.4
447.903
69.4303
118.711
82.6913
264.115
575.075
156.506
614.125
80.7968
498.129
433.016
175.886
47.5063
44.0122
70.3164
63.7776
698.155
95.0854
58.4103
491.191
72.6809
864.672
454.021
107.636
456.271
63.5501
45.8985
46.5408
43.1877
97.5627
61.9488
91.2876
130.601
73.5878
45.9141
144.19
677.176
535.732
44.2342
106.428
49.317
62.5341
56.7224
688.575
48.9218
54.8507
52.9146
104.259
46.1871
54.3275
98.9807
56.5529
58.43
53.1714
239.498
44.2889
57.794
133.324
410.301
306.823
63.4984
544.109
726.228
54.3051
52.8177
165.156
79.0339
311.18
73.9779
91.4206
82.3626
280.161
68.1893
91.8495
1035.84
494.739
87.1746
632.016
46.423
46.2532
61.874
45.9865
47.4856
70.7245
53.8423
80.4962
212.928
89.0096
359.979
251.777
218.726
81.5273
43.7232
580.895
131.28
83.5572
550.233
102.007
687.022
62.8753
424.913
44.6906
182.169
86.8793
226.223
47.3372
85.8286
77.6928
666.194
49.0446
43.3553
183.282
81.2953
134.914
60.8829
72.679
91.5376
47.6571
141.216
48.7213
63.7994
147.501
93.7804
301.099
68.8565
45.7213
61.4033
45.2218
52.1584
292.402
43.2752
95.6579
43.7461
221.027
115.72
50.333
111.888
111.897
56.9923
72.6134
76.1737
129.03
149.629
51.4324
48.3624
91.1019
67.8231
286.619
614.719
509.147
60.4519
45.7696
58.2752
65.3182
90.2705
924.086
237.787
63.7024
53.2374
78.0499
46.7292
48.4561
77.051
153.269
196.664
511.05
373.855
57.0435
77.1474
74.4984
43.4559
224.82
72.6235
114.14
113.313
49.9108
991.271
77.3051
57.9894
70.7243
72.8102
159.588
625.027
45.0423
473.123
54.6871
740.239
123.328
530.183
70.3176
44.3357
60.5303
104.678
49.1299
48.5088
125.374
44.8526
44.2335
54.6982
60.9076
236.975
53.4218
758.897
71.0572
60.2913
156.486
171.477
48.3932
416.095
964.81
747.824
516.672
440.296
55.3252
381.031
292.189
73.5053
57.3919
53.2967
669.193
90.584
96
48.6519
78.1074
303.372
766.412
160.497
86.2656
45.4818
65.8209
231.127
46.0377
56.1056
608.57
452.708
250.695
772.223
74.7465
46.8496
69.435
81.9436
1142
50.5338
46.1027
43.5673
272.772
46.9234
50.3848
91.8227
100.935
44.9019
113.54
46.1867
145.056
86.4337
141.843
51.0631
237.285
87.7517
112.019
164.612
110.825
240.536
49.0083
624.464
94.2728
308.73
318.358
359.981
85.8334
125.894
206.146
66.2709
44.9703
51.0109
54.0603
86.5298
571.658
116.24
46.3555
82.8144
64.9523
48.8229
120.458
62.2549
134.526
102.237
46.8406
98.5424
48.912
78.9822
289.893
580.179
71.6467
99.8454
80.5253
103.726
525.072
332.733
459.532
849.578
141.854
46.6519
48.2417
44.0465
104.977
834.215
79.8311
768.935
119.766
45.0016
117.31
450.389
46.1006
46.414
55.7628
75.1178
60.0663
287.806
76.2745
91.3201
313.909
51.5253
96.9379
65.8939
128.87
165.337
51.2728
683.827
82.0451
110.531
55.4919
123.774
46.0808
130.854
123.23
93.6687
91.7662
80.4718
66.7711
69.7704
50.2968
226.555
62.1533
50.355
115.443
198.494
230.476
154.053
98.6727
111.911
192.124
71.4882
287.8
123.278
134.4
101.37
101.965
144.35
75.223
135.123
431.754
99.5944
53.6749
48.8822
303.269
89.9842
101.916
49.8848
101.52
87.3079
48.2111
94.1848
411.906
95.6189
72.2696
86.3509
668.181
76.0301
90.8694
147.764
58.7122
155.84
47.8423
768.777
85.5812
79.0761
83.0202
55.236
113.956
55.2317
516.339
43.6987
76.9901
658.709
59.69
110.07
199.055
100.126
49.016
585.018
59.3892
45.1965
101.756
130.983
60.7327
331.87
45.1009
350.061
99.1305
43.9605
70.7548
116.886
734.55
183.919
72.2024
44.4955
131.576
407.84
286.668
116.737
123.657
989.306
214.02
304.087
127.868
82.0979
102.621
59.7944
519.758
1055.24
152.996
162.468
100.199
1040.74
467.145
550.159
407.353
184.786
64.4112
51.1006
152.802
73.7498
554.631
311.209
76.7897
866.434
107.133
105.497
71.7101
50.6669
105.714
87.7512
91.0352
80.6832
148.935
184.326
884.883
57.3927
119.109
645.201
619.057
182.268
177.637
62.1113
628.306
47.5915
65.8887
345.741
148.443
44.1114
334.535
432.323
72.453
123.966
48.3897
94.3985
55.8386
80.9254
173.9
81.7909
616.415
43.9231
50.6287
87.1576
480.575
172.358
123.353
163.874
338.685
121.783
78.6288
433.309
108.413
69.5514
234.592
799.45
261.663
59.7128
367.896
160.407
93.1975
65.9909
128.786
47.1132
115.891
80.1358
73.9422
64.9727
60.0827
86.5356
43.9625
43.7363
49.4743
100.244
49.7401
160.566
391.545
738.073
96.0343
86.5405
59.4901
49.2814
103.097
651.316
52.0859
143.265
71.7444
228.187
67.5199
130.789
225.514
425.037
47.8253
57.3844
274.968
53.0406
70.5585
131.097
93.2695
398.494
86.8225
258.44
464.228
221.824
647.71
196.691
380.757
94.5487
156.519
147.075
53.8418
482.608
134.155
85.2734
172.112
98.6865
89.9766
44.0034
52.543
49.7915
45.1964
87.602
342.404
43.2374
953.255
111.375
346.418
114.656
373.427
1180.45
54.7553
251.707
849.075
144.194
346.513
77.1642
69.8559
778.658
1007.32
286.116
169.265
52.4937
444.807
103.716
621.313
53.2215
54.0391
240.77
1024.33
60.8759
83.5321
51.0791
235.357
531.562
47.9372
476.168
203.53
541.427
721.463
49.6808
341.319
74.3915
691.518
333.556
200.347
405.241
283.103
518.846
346.991
230.963
82.4613
78.1277
75.0213
49.0609
53.8369
1405.03
73.8972
109.564
78.048
82.6352
133.423
1144.67
146.332
236.883
298.325
152.123
278.517
125.665
44.5283
78.9717
1035.09
637.79
317.606
193.824
246.899
88.12
484.039
61.871
257.894
325.761
57.9362
545.638
94.3962
297.252
318.073
163.219
232.781
236.545
151.54
50.7373
137.303
61.2439
550.738
72.7529
197.057
83.1534
264.028
55.5743
67.217
332.622
121.171
294.441
45.0977
1358.66
46.1451
59.3943
57.2729
55.1271
95.8343
519.741
172.581
95.9935
663.845
74.6636
49.2937
57.5073
877.886
79.8841
98.4581
852.644
354.965
912.556
547.751
167.37
226.49
158.099
186.082
741.165
65.7353
449.524
135.058
66.3898
180.621
64.8685
150.098
75.3565
621.505
458.259
562.948
363.651