/*--------------------------------*- C++ -*----------------------------------*\
| =========                 |                                                 |
| \\      /  F ield         | OpenFOAM: The Open Source CFD Toolbox           |
|  \\    /   O peration     | Version:  2506                                  |
|   \\  /    A nd           | Website:  www.openfoam.com                      |
|    \\/     M anipulation  |                                                 |
\*---------------------------------------------------------------------------*/
FoamFile
{
    version     2.0;
    format      ascii;
    arch        "LSB;label=32;scalar=64";
    class       volScalarField;
    location    "0.0625936";
    object      p;
}
// * * * * * * * * * * * * * * * * * * * * * * * * * * * * * * * * * * * * * //

dimensions      [0 2 -2 0 0 0 0];

internalField   nonuniform List<scalar> 
47425
(
0.908747
1.11458
0.00640135
-6.94411
-23.4441
0.0642569
-21.2898
0.0424321
12.2985
-39.4261
0.0148162
12.7814
-16.6633
0.000470819
-2.80337
11.3794
0.0298892
23.2759
-117.195
-39.4209
1.80264
14.9308
-0.0311816
0.928888
13.69
0.898166
0.0858806
-48.1263
0.0135887
0.180436
14.8166
11.6372
12.9704
0.370679
-0.0144597
0.0122985
15.6384
12.7177
5.93656
1.04629
1.28683
-1.64791
2.40219
12.6431
-40.983
1.05744
0.136455
12.5407
0.980844
0.489769
43.4232
-0.660016
0.203177
-34.4305
0.803966
7.76975
0.9922
0.0361036
-11.0533
0.0712338
-36.1616
-35.4883
-63.6591
20.0926
12.1437
2.19615
13.0476
-2.98077
-48.3001
22.2098
2.79563
0.708521
0.28619
1.69474
-53.593
11.9691
-62.5504
0.182307
-80.0276
-23.436
-55.7037
9.5954
20.0302
11.8556
1.7387
0.7857
0.172498
1.19458
-5.58686
-29.2511
14.1151
1.20772
0.468985
0.770949
0.806772
0.916414
0.392942
0.852685
0.994725
10.8021
11.7353
19.7432
8.4973
44.7762
8.49037
0.0130759
1.2316
0.916766
1.56135
13.0221
-36.5117
12.6529
-0.416736
0.759856
-1.69419
33.3175
-1.28769
44.4436
7.20524
-4.22162
0.780303
12.9893
12.4981
-10.3389
10.4928
-1.70239
0.817628
12.0343
0.889721
0.554409
20.9922
0.102491
53.9457
7.31546
-0.778462
-13.1773
1.71655
-1.65826
10.5255
-1.49561
13.0237
-5.47643
5.2114
-1.3584
10.4663
12.0928
-21.9103
12.305
5.21222
12.9264
-0.789804
35.2984
12.3421
-10.6851
20.5148
1.058
-0.184014
-128.203
0.864677
0.280479
-3.1274
0.933329
0.631807
10.1339
-53.9849
-94.9059
12.367
-53.8884
0.729252
-50.1035
-54.4526
0.507575
12.0822
17.6534
0.883658
12.6753
25.5698
0.0456012
0.064689
0.330018
19.0752
1.0896
0.0641368
0.096809
0.221107
11.723
9.54697
48.7372
0.366561
1.06694
12.8871
0.430629
-13.0277
13.1033
0.349744
-2.55037
13.0749
0.812373
-3.30256
0.947
0.288062
0.369544
1.76232
-2.2227
7.9736
1.17202
0.0239734
-1.76599
11.6078
11.9803
0.905556
-2.75888
12.0487
0.901314
0.46558
-3.70756
1.08853
-26.7204
20.5968
12.8968
-25.8311
-4.89931
3.11807
0.824565
1.50354
-23.6521
0.423479
-3.44253
-5.47193
-10.0962
1.46441
0.14759
0.481508
12.7108
0.119772
11.7466
-28.6801
0.564768
-25.9323
0.126498
0.102992
0.376852
0.511502
-7.36228
7.36506
11.9798
0.892764
11.8765
0.739065
0.0266493
0.967059
-21.5614
0.0420367
13.0537
0.240525
0.178985
14.2222
0.287894
6.75188
11.9097
0.24211
12.5806
9.08445
8.9775
-12.0997
0.667347
0.0645725
-12.0412
0.262915
9.09638
9.61953
-26.0424
-28.5854
9.60548
-23.5886
9.68069
-24.715
32.5033
-26.9409
31.3382
-33.5584
1.07113
-38.8955
0.619867
0.595406
-4.27201
0.569423
0.0112638
1.36857
-1.46128
54.3177
19.0034
12.1638
0.0458555
0.0974433
11.0158
-5.92044
9.86027
12.4152
-10.5772
1.0544
0.817912
0.192137
0.147495
-51.7138
-65.4242
33.8741
0.396007
0.778442
10.6704
9.97121
46.29
0.00506869
0.0351949
-17.0892
0.964818
0.480437
0.326413
0.149342
-35.5661
-16.5403
11.2581
10.9251
0.0702938
0.728172
0.0730485
11.1772
0.967564
0.611289
0.182804
-7.06151
-58.5734
4.19497
0.0881247
12.9176
0.0516173
-57.6622
12.5943
0.66289
0.751179
11.2254
10.9776
1.10931
12.8563
0.563745
0.00809953
0.128364
15.29
-0.0352154
0.157933
11.4813
6.73745
11.6274
12.4745
11.9582
-3.16071
0.403157
19.6282
12.2755
12.2573
18.6503
-4.94129
0.925848
0.137487
7.86932
0.262414
0.137147
12.3557
12.6099
9.16372
0.169715
-42.2735
0.109748
10.2691
12.1046
10.1047
-3.20044
11.655
11.9733
15.2465
11.8943
10.0622
0.845626
12.4503
0.973061
12.4941
0.0748362
9.47612
12.9512
0.0814837
5.5123
6.86964
-0.0132271
6.35246
0.481912
6.09525
12.9367
0.0321646
-14.0611
0.300209
-30.7687
0.448202
-36.5617
0.187607
1.91242
0.265213
0.218059
0.0790101
0.0970594
0.182068
6.91814
-60.4461
56.5543
0.855893
6.37679
3.78455
2.26388
0.797927
0.0283607
0.484321
0.143569
0.655298
1.18222
2.20204
0.0401568
0.0806633
-7.61595
-5.68274
-2.31734
15.7655
-58.5986
0.243447
25.8897
-57.8226
1.43969
-60.5984
-33.7409
0.716556
-0.708708
0.278674
-3.74194
-62.8168
0.85012
0.773596
0.484423
-4.27584
-1.9826
0.90477
1.05745
-25.6447
-60.3313
-27.9884
12.8151
18.3575
-2.91247
0.894981
0.174676
-13.5352
0.408299
12.7807
13.0473
13.0644
6.50027
12.9756
0.753236
10.1409
0.169316
-1.61241
0.542944
0.467804
12.8456
12.9596
11.8582
7.64741
10.9014
0.867267
-0.71321
-25.5821
11.9285
-13.9528
13.0063
-1.82166
-5.59197
12.4277
0.781094
10.8529
12.3068
11.9397
8.79792
0.528583
-0.643543
11.0215
1.03682
6.78021
20.4928
0.796615
13.3762
11.845
14.897
1.02763
0.311234
0.919523
0.130254
2.97064
0.034275
0.126937
0.84194
1.08815
-0.928504
0.100574
0.0671021
23.2603
0.0217911
1.38235
1.19661
0.901502
0.0224385
0.17664
10.9841
7.16311
12.0671
12.065
43.7636
0.0581541
0.0212221
12.3175
12.5307
-21.3086
-25.08
0.340715
1.18084
1.11599
-10.3029
11.6508
-28.0012
12.962
-30.6354
26.5398
19.5969
0.0990764
-22.0325
0.232494
1.01624
0.372572
1.7876
0.126259
0.721596
-59.6103
0.245034
-0.0195324
0.310518
-19.8112
0.78384
0.0995745
-20.0498
-16.1645
0.175109
0.217406
-29.0821
0.339559
-0.651627
0.128912
0.401704
0.282756
-11.5924
-11.8442
19.2542
1.40934
1.05134
0.0624819
-28.5844
18.1574
1.53292
-28.8819
0.0609341
0.22691
-29.2839
-41.1662
13.6313
-28.8455
-28.755
0.215662
12.9038
0.108452
16.7708
11.9185
0.0865802
-45.8473
11.3197
0.0511238
0.646658
-17.5916
-10.876
12.9591
6.25135
-53.8927
-27.4433
1.64418
0.545568
0.535063
2.14616
0.541424
0.500474
11.9237
7.93243
12.9661
-1.8724
12.1173
-28.6582
5.41465
3.74442
-30.4197
10.5995
0.519863
7.17914
10.0594
0.55469
12.3735
-2.46477
29.1745
12.1353
-1.0627
1.25633
-83.1732
8.9582
-11.8352
-42.6385
-43.7753
0.209375
1.22163
-45.538
0.0443989
3.75333
-25.3296
12.4267
-39.8273
0.182933
0.189499
12.2331
-37.0959
13.0588
13.1313
0.367698
0.161895
0.823594
-0.010402
0.700284
0.940709
0.466807
-32.8762
-30.1922
1.83126
13.7503
0.238881
17.8839
11.3779
13.0334
13.046
13.1066
13.0281
19.2738
2.70567
12.9681
9.49415
-6.35005
0.109904
-63.7393
-29.9256
-0.0146868
18.4197
4.5033
0.169163
-65.5665
-0.0122466
-55.0886
0.310064
-13.6795
-14.5818
0.686006
13.3872
9.41073
25.8643
0.321568
0.567644
0.600925
-17.2798
12.9015
-17.4045
0.634347
-63.6377
-12.8522
0.564345
-15.3859
12.9911
0.888738
5.69809
0.670399
-16.6957
12.8659
11.5946
-16.0324
0.262996
0.563276
0.118569
0.72455
28.1842
26.6888
16.0517
15.0486
0.118632
-0.00652878
1.98691
0.753094
-0.897762
0.133533
0.969522
0.0680742
0.98611
30.2547
-11.4088
0.0390564
11.7683
0.903896
0.82905
1.06004
0.0186988
-3.4605
-24.8548
0.979637
0.194201
0.098951
0.912732
14.9626
0.0540698
0.330701
0.692362
0.684595
0.988318
18.2246
35.1223
0.83907
-28.1358
-9.45697
-34.0754
-28.048
0.617727
-2.53983
4.49402
0.0314561
42.0563
-28.9126
54.4644
-10.9067
1.05287
-19.4193
0.388502
56.6467
1.62571
0.343485
1.12865
0.182583
-11.3299
1.26499
0.954195
0.858036
-30.0601
25.3424
12.2934
12.5604
44.4077
40.7126
-17.0783
-51.4867
-25.343
45.836
42.7521
12.449
0.547321
17.9474
0.369776
6.3694
-28.9006
0.900238
5.55282
6.86847
0.279194
-29.7586
-29.6712
0.129532
5.66909
0.672297
0.391178
6.88627
0.299443
16.0797
0.0717657
0.596276
31.5437
0.19187
0.0295779
0.137346
0.381125
0.246067
51.5315
-20.5327
0.0519587
4.76806
0.609539
15.7741
16.2247
-16.4702
0.403619
-28.072
-17.7055
6.07545
2.25039
23.6032
-47.2483
0.0726609
0.0967583
-8.02242
0.956455
12.5918
3.99502
-0.0237746
13.1395
-33.4174
-18.5615
-48.4748
13.1127
26.2036
0.156836
-11.5779
17.5382
-17.0782
0.0340606
19.066
-37.4991
-9.7982
-18.6848
-29.6583
-16.7901
0.484767
0.068483
-13.0941
0.0773261
-18.4036
-27.2938
0.0231059
-21.2857
0.912155
0.927017
-39.7232
0.940414
0.86808
15.603
15.7963
12.0755
-24.7183
-6.07044
0.977571
-12.6587
47.7256
-0.387606
14.1161
1.16473
-0.163891
0.954783
0.93149
-30.8025
-61.7921
-10.6257
0.261887
-18.6778
-18.1401
-27.391
5.07356
0.975595
12.6531
12.842
1.07074
-13.4808
16.6366
23.79
12.6998
-28.1233
-17.943
2.82683
0.906135
0.430888
0.765798
32.9032
12.4716
-17.7134
0.259414
2.90419
12.5778
12.5625
12.4586
12.2656
12.784
-21.5039
-4.06736
23.5192
26.3866
17.2687
7.05529
-1.89874
35.0467
0.355657
-8.88513
-0.227788
-16.8704
-9.21445
-8.35895
-0.521462
12.7894
15.2476
12.596
0.830164
-39.2746
-31.6437
-44.5469
10.5079
-9.8508
5.61976
-23.1233
0.953987
-40.6885
0.878861
0.771528
-8.77554
9.94875
0.907745
9.70788
0.347561
4.8239
-10.0897
0.805358
-3.31901
-26.9205
-7.0299
-1.26638
17.1533
49.8345
-56.7782
40.0442
-28.2314
-60.527
0.245235
0.851111
23.4888
0.445707
51.7721
0.47877
0.346847
-61.9059
14.8226
2.13777
0.309464
12.3353
21.9389
10.8433
0.78162
13.2349
-20.1167
9.69261
13.2566
13.4825
13.0025
0.799646
-14.7887
-7.99277
28.871
14.3135
0.849033
10.4591
0.541664
0.553602
7.86884
-10.9759
-3.6387
-11.1765
-11.4913
10.3505
-42.552
0.665142
0.586496
0.626287
-54.0214
-55.6662
-23.6243
-28.276
0.35176
-1.1712
-39.9111
-29.6056
-6.21356
11.0481
0.703478
0.86767
-42.0238
3.92731
-1.80267
0.815207
9.01882
0.73533
31.4656
-113.938
-16.8421
-31.3361
0.8363
54.7328
-59.0301
1.34086
10.862
2.32737
-34.5949
10.8958
-5.76014
17.5915
-27.5577
1.44992
-29.3423
2.21502
-11.7943
0.762551
7.03709
-28.6224
-28.3451
10.0882
18.4953
-12.2116
-48.3667
9.44693
1.03663
-30.0807
-39.4055
11.6123
8.73551
-60.9126
-58.1569
-42.6648
10.2727
-8.95595
-21.3628
-42.7746
9.73857
25.6377
-22.3816
-9.64496
-7.61133
-26.2903
-40.8186
-6.57613
7.7132
12.2169
12.3545
13.4258
10.1112
-3.67729
12.9479
12.9311
13.7605
0.792147
-30.6183
-37.4008
10.7093
41.7153
-20.575
11.2864
-17.5777
5.72232
10.1532
-10.0484
-3.31243
10.3086
9.19639
-53.5287
13.3356
-35.9792
-61.8528
-37.7318
9.82158
-12.4435
11.8502
1.33739
1.58738
-19.3933
-40.4429
0.612931
-29.8423
-22.0894
60.1241
-23.4019
-51.0774
-29.6696
0.0263621
1.02531
-43.9438
-0.100984
14.6208
0.0870085
-47.1245
-41.2986
0.0247954
0.110262
-35.0556
-14.6683
-44.719
45.2666
0.385554
-6.58438
-52.0814
-0.417714
22.4231
-31.3894
14.7418
-64.8391
-20.5754
10.8564
0.325589
0.355222
0.470022
0.385746
0.814726
-0.518901
0.375685
7.22895
34.1483
14.8487
24.7623
-22.1432
-13.0241
28.2172
-3.97418
4.128
-12.3629
13.0757
-72.4563
0.774386
0.710085
0.87059
-39.3043
0.754444
-65.3498
0.852057
6.43179
7.17426
-60.6771
50.6025
-29.9555
-25.0065
34.2586
-5.04178
12.4152
-9.82622
-26.3902
-26.9812
-29.1904
43.5592
12.2738
-19.0946
-32.4904
-6.77481
-6.63547
-39.7859
-30.8698
2.31479
-15.734
12.1355
12.4255
-26.9621
-50.8116
-1.72026
9.8629
12.3047
-59.5875
12.4919
-13.4129
-13.6305
12.4726
12.7112
-22.3716
3.17807
50.1326
-20.3539
3.60159
29.5856
26.1454
9.70644
-91.1128
-42.2646
-16.4668
-118.374
61.4118
12.7913
-23.9646
12.7957
23.3096
-66.6063
2.42419
-62.1728
-35.9026
-3.73879
20.7244
-7.69344
12.6467
12.6849
15.111
-22.4878
3.73879
0.138282
26.0562
0.282048
-7.84762
13.1069
-14.3632
-1.37496
-22.7995
15.7678
-62.6201
-43.2807
5.28969
-38.4502
-29.6015
0.145573
48.6899
-39.6637
-4.76495
29.4315
-11.0879
-16.7565
-24.7103
-32.3419
7.27848
-46.2662
-22.803
5.8135
-3.00573
0.498757
-25.0418
-5.06133
24.7509
-15.7297
0.931191
24.979
0.659512
-60.9418
0.211686
0.213505
-8.22231
-24.3013
21.062
-6.47698
-13.8449
-8.88434
-64.0663
0.123161
-14.2566
-65.7364
0.87708
-9.77958
57.6429
-7.64912
-27.7737
-57.13
0.193531
10.3484
-0.0199194
-129.812
-30.3037
-30.722
-29.963
19.0482
-6.77567
-2.19863
-42.1664
-55.269
-15.0797
0.44336
12.5204
1.13592
0.490365
2.22406
53.4815
12.9146
12.2206
-9.01273
0.525972
15.5801
13.0668
21.9605
12.6864
0.433102
22.4769
13.4701
10.3152
-16.797
1.39097
11.8488
9.80732
-11.5578
11.9959
0.487789
1.05049
10.5294
12.7105
12.7681
-61.5003
12.01
17.473
0.956204
0.261125
-27.5532
13.6893
13.1761
-58.1407
-54.4189
59.1089
14.5241
-60.1755
22.674
1.38076
-54.8114
8.82931
-57.5688
0.846095
0.871242
12.5184
18.7922
10.6263
0.894343
0.808563
1.24214
6.1254
8.86519
0.84235
-19.9721
0.771189
-13.4621
57.7635
12.0246
-47.0797
-13.3408
-74.136
0.926227
10.7835
0.13269
13.4223
1.10767
12.0988
1.10841
-44.3075
-25.4369
-39.7768
-4.23291
-10.2214
1.18182
2.13656
-33.6416
1.40453
-54.761
-1.60867
-49.2111
1.54995
-61.0701
-90.4182
0.240866
0.0848703
-41.912
0.238966
-42.2343
11.7756
1.17815
0.880281
0.448961
-0.78663
-1.18351
-13.265
-31.738
-8.06855
11.8044
1.17359
11.8656
0.758552
11.7694
-42.5773
9.53618
-39.0625
1.21719
1.21261
9.28537
0.550356
9.51823
8.79221
0.187539
1.06631
12.5962
0.94601
-4.09064
0.916908
0.949753
-28.2789
-38.7301
-3.27845
0.494703
-28.146
0.828886
0.545641
0.441256
0.421193
0.0841222
0.912856
11.9239
11.6417
0.896999
0.691244
41.2774
0.939993
0.878162
1.15459
-48.7979
0.413598
-56.0997
-40.4061
-50.11
8.95364
0.269039
0.54747
0.1293
0.91899
-46.27
-12.5117
0.779894
0.760654
0.528363
0.54857
-28.1578
0.532404
-0.0149191
-17.1609
0.653001
0.489547
0.293486
0.485679
0.258082
0.352938
0.537197
-12.6224
-17.2098
-0.00115671
11.8143
-3.22367
-10.8735
-9.58438
0.603696
0.915496
-12.3823
1.01302
0.104152
1.23121
0.848075
-11.6726
0.0306185
1.21465
0.629294
0.572616
1.33865
-6.83693
0.0158395
-47.6194
0.612024
-17.1758
0.786548
0.0145751
-49.7897
0.0278576
0.151972
0.0546569
0.765445
0.798315
0.169297
50.2092
0.387136
-36.2063
0.781698
0.23273
1.38513
0.734153
0.509046
0.49104
0.441319
0.728217
0.237813
-14.7873
-11.3647
-40.5264
10.3169
-14.0023
0.470459
0.934272
0.415321
-30.1579
0.173861
0.207099
0.133337
-58.1943
0.0964919
0.927444
-0.00583215
0.24752
1.31327
-147.377
0.086335
1.26977
11.9414
0.000223135
-8.11315
28.3898
24.9899
0.0296253
6.91457
0.112728
0.910902
0.516617
0.219328
-56.8633
-54.7237
0.0433615
0.849265
-46.8751
-0.0647782
-7.12873
-23.7591
0.0751678
0.821221
4.74401
-0.0376288
-8.67877
0.0323362
0.796923
19.2717
1.64254
0.0428528
11.9579
-25.5726
12.0031
-29.821
-26.3558
-29.7484
-25.2509
0.484336
11.9305
-19.3274
12.0747
-0.158443
16.0778
-37.8018
-26.9475
12.3945
-11.7396
12.3686
0.594255
1.09768
-29.0088
0.789548
0.4675
12.2057
12.2212
40.3913
43.6387
62.154
-16.4049
27.7316
12.4117
14.433
22.4515
12.2751
0.581166
0.153397
0.436429
-0.0404729
-28.9963
-28.5777
0.627224
2.00104
-3.67768
-59.0865
-2.73359
0.886016
-0.427917
-25.5181
-58.1048
0.687223
-44.0663
-6.40071
-31.8375
-43.4782
-14.806
0.266068
0.625741
12.8966
-59.556
0.216156
13.0097
0.502062
0.169559
-54.0902
-53.4313
-57.0339
-0.180413
-39.4294
15.8815
9.43457
1.25328
-17.0286
-60.8684
-59.7677
-27.97
59.7854
-28.3307
33.552
11.8981
-43.7035
12.5382
-62.3412
11.9186
-58.0994
11.8169
-28.0442
2.6848
-23.9101
12.4549
12.3853
1.90125
12.2419
12.1222
33.0342
2.24943
12.3609
12.1369
-70.7775
-47.0291
-15.7861
-25.9402
-48.5629
-25.713
1.00201
14.5052
-40.58
-31.2223
-38.6041
13.478
-55.9189
5.6025
-56.1197
-60.3875
-40.3228
-19.2405
14.7417
2.87214
8.98585
12.2499
1.65397
-32.9685
-1.85721
-0.390422
1.47422
0.127145
0.130652
1.08618
0.339821
-26.9826
0.291128
0.14024
0.48252
1.10969
-22.0654
1.04541
0.0462951
0.209807
1.51909
-13.0698
-9.26424
0.606885
12.8712
-32.3116
-59.6978
-2.91594
-49.2763
-13.1053
-3.76832
-23.1162
36.7662
8.79474
8.08711
-8.6013
-0.0160878
0.134108
-3.78716
-0.0359916
-0.0616795
-1.48233
-0.0152049
1.59192
1.60416
11.616
-6.4458
0.876608
42.2475
-0.0581213
12.2025
0.110683
-0.0124287
42.9718
-48.5555
23.81
-0.0637441
0.437136
-26.7915
-27.6564
-1.5096
0.969665
11.3426
-13.4038
0.203201
0.147639
-14.9028
12.1387
0.102047
12.8901
54.2785
0.62409
0.140469
-16.266
-2.08815
0.70994
0.627153
0.0234973
12.0952
12.0968
10.5986
12.2314
12.5293
3.87674
2.85983
-5.51838
-55.8609
4.69787
-7.49976
12.1453
12.041
61.5879
2.7665
0.2595
0.411945
-24.0356
-39.27
4.96761
15.7929
0.21103
28.5215
-5.96564
14.6577
-35.8583
47.3512
29.3797
-18.6508
3.7558
4.04278
-23.1397
-58.2379
-84.025
1.04872
-12.1522
-59.7128
2.03451
-15.2691
-8.03136
-40.5552
-27.278
2.06677
15.5642
-61.8101
10.1681
-8.1679
2.33459
10.4647
-1.87094
15.5488
0.835896
14.1314
9.58577
-39.0282
3.38717
57.4453
-20.809
55.3289
32.0322
-74.6953
13.1112
13.1611
-60.6696
-14.1585
-1.91018
-32.3778
-25.666
-1.52421
2.13274
1.84278
-32.9506
-3.61575
6.57571
57.5908
-9.11965
13.028
-7.35896
-20.0683
7.41297
7.42716
-36.2631
-31.4148
-29.2783
-29.0255
0.499352
-18.2099
0.651671
-19.0136
-11.8011
1.49666
0.386263
-17.1179
-5.21435
-28.8637
-28.6781
-2.08961
6.60753
0.103679
-12.8805
-23.4368
8.90728
8.60041
-17.8675
-28.3959
8.92806
-8.64428
-28.4066
1.10927
-40.163
-1.14654
-5.23931
-50.4521
1.23594
52.1282
-9.54886
0.358085
0.409432
-0.561006
-60.511
0.787388
0.814716
-4.67386
0.313879
10.8719
0.660964
-31.783
11.1479
36.1799
11.4006
11.3258
11.0988
0.819009
-16.6416
-7.57559
-10.1041
-57.9937
-2.21177
-43.6731
-11.8497
-0.0276229
-59.6347
0.032498
0.68464
-0.150632
-9.1161
-57.3228
-26.5857
10.761
37.6964
-13.1887
1.23644
-35.6605
-44.4272
-11.8485
-47.2285
33.4285
11.9726
-12.8099
42.2527
12.01
-70.6331
19.6509
10.7059
48.5735
33.9826
11.7929
12.1734
60.2417
-43.0476
1.01646
53.836
6.97951
12.138
-10.7337
12.0203
-32.1658
7.67872
59.6351
12.2249
12.3783
36.5853
10.3644
18.0745
-5.85949
-3.09516
15.1385
-32.1486
23.7625
-23.5008
-57.5825
-73.1028
-25.7462
12.4633
36.3106
13.9159
4.36198
7.03864
11.6789
11.7299
0.840274
0.88581
40.3992
-43.9559
12.5143
-29.5033
1.46856
6.95271
-19.0883
-71.1972
0.942773
-16.6163
13.2153
5.58538
0.738073
10.176
-9.0676
0.986285
1.08202
-27.0688
2.26545
0.797725
-8.00537
10.3209
0.720777
22.0028
0.755144
-19.6099
27.4033
1.66381
15.5976
36.7678
-27.3757
56.6638
41.2951
-32.3012
-63.9712
-27.6972
-28.2054
-27.4315
-27.5574
-28.6594
-24.5107
-35.139
-27.9107
58.7565
-2.83067
-52.4222
11.0352
-0.760551
-39.3293
-54.1324
-5.24398
-28.6889
-17.4402
-27.5821
-15.6802
41.4685
-46.3639
-40.3936
-27.2415
23.7491
-27.0364
0.979857
-57.3836
22.8399
5.65757
0.909979
-1.90213
45.3194
8.9009
-22.3634
-9.11072
12.8363
0.83423
-8.0372
-26.6973
-32.1306
-2.14548
-5.29727
18.4146
-28.5861
-8.25648
0.984836
-23.4454
46.3592
-2.67888
5.26033
1.02171
2.1119
-39.4604
10.1486
7.93814
-0.320055
1.04832
4.77502
-2.98058
-3.60652
62.4195
2.9522
-18.3435
-7.12843
1.80039
-59.9377
-58.7608
8.85053
9.10681
8.27214
11.1625
-24.4854
-10.3435
56.4391
-8.87788
10.9396
-18.149
-3.72997
-5.79392
8.68328
-13.0065
8.68678
-21.2024
-27.8483
-45.5055
31.145
-14.8161
17.5609
8.94613
-58.1081
-70.6556
32.9172
-57.026
9.43338
-63.0768
32.5942
-2.71831
18.4358
-18.9935
0.291277
0.35185
-8.30801
-14.1566
-41.0234
0.106209
8.29088
-96.4857
12.9685
-36.994
12.8326
-1.95459
10.2973
1.3242
-0.885207
0.226038
-7.39072
7.79865
1.38438
15.4269
-0.139191
-52.7162
34.4132
11.2695
40.6167
12.2191
-1.00294
11.2005
12.9993
30.5981
-0.191665
30.5111
1.05582
-0.128675
-21.4932
0.802593
0.270248
-16.2508
-9.43892
-32.1424
-4.30908
33.027
6.55915
27.2509
0.760781
19.1553
14.8254
0.879407
0.812008
0.409019
0.924238
56.7601
0.370791
-10.7875
-29.0865
12.2743
12.6434
14.7041
12.4898
-23.7818
-34.5603
-1.14883
-4.27427
-4.28429
-15.2801
33.8504
0.203077
-61.3568
-9.46093
-35.8021
-0.242531
8.72628
-24.0584
12.3767
12.5363
-21.1219
12.6411
0.754307
6.59365
-45.6713
17.4788
54.7957
0.0153693
-0.395705
33.8823
6.25151
0.654392
34.228
7.82996
-14.8573
36.9928
-12.4753
38.8315
-50.0606
1.52221
13.0427
-0.667822
-8.41576
-0.859546
0.884963
-1.37677
0.233106
13.0483
-36.5055
4.58096
0.928031
-39.6602
0.409839
9.09042
12.5155
12.6447
24.4909
4.02325
0.522292
-6.47834
-0.644724
-13.3679
12.3137
1.01078
-21.9723
59.3263
-21.1957
0.584716
57.8842
12.5496
-57.2048
53.7337
-2.8765
5.11032
35.2789
12.677
-27.8299
38.3196
-28.01
-6.73876
-27.8317
-15.0277
-39.6001
33.3976
-7.11147
60.2013
0.771841
-28.0282
-27.6676
-62.1847
-55.2433
-36.7262
-62.5358
-41.1711
-31.8757
56.763
9.60443
10.4399
49.5105
23.4757
-47.9991
6.95831
-50.3331
44.1472
0.972413
10.8239
0.0542794
0.951302
0.786959
0.734606
58.2328
0.760849
0.796053
10.6685
0.939327
0.909685
10.905
-6.14829
0.859761
-7.83301
0.812449
7.05493
26.0057
-48.4682
-0.191455
1.76022
-6.68378
-0.126132
-41.3521
-26.6027
-23.5208
-0.0458814
37.9922
13.7
-2.45579
-5.48345
7.58
4.05595
0.913298
11.7051
11.1563
-27.3992
0.909855
18.7668
-3.24022
2.68552
11.7566
-0.929315
7.99002
11.7872
11.5761
-13.8919
11.3141
8.60951
51.555
24.6388
12.9908
22.1018
10.9143
-1.38971
11.416
1.00502
-3.79873
0.921382
5.27359
-0.0257652
23.2117
10.923
-17.4009
22.5293
0.180922
9.75105
27.5459
-14.6029
33.3287
-26.4971
-53.0403
-42.6771
-0.124063
0.0358745
-25.5331
34.9552
-9.65046
-2.33981
8.91442
1.41533
0.0375363
0.0710056
9.51271
12.8811
29.0483
8.75097
1.30593
11.7291
11.4407
0.0568719
-36.6181
35.0448
-0.0520642
7.73101
-12.3992
41.77
12.7995
10.2016
-10.2553
-48.4418
-56.1028
11.9511
11.8856
-4.63103
-8.72836
-9.31782
-30.1256
31.7377
1.05557
0.583404
-1.37402
0.476235
18.7647
-17.8551
0.467977
0.37533
29.8935
0.40438
-8.21889
25.7242
-35.4749
-25.8845
0.559484
-11.3638
13.7125
-0.000623681
0.665161
12.4407
9.16868
-3.53415
20.536
3.75502
-48.3687
0.749833
0.658569
-35.8781
-4.20756
13.5469
0.657698
7.80219
12.0354
59.6608
0.679172
-10.9408
-39.5309
-40.4066
-92.2124
-60.7425
0.689971
16.27
46.1556
-0.0143312
7.44759
9.37802
-41.4415
13.161
6.17599
-40.2
12.9391
23.0837
-17.4676
9.23029
-40.3044
-61.1135
14.566
18.6255
-46.4423
14.8678
10.8039
2.53614
14.1889
12.3983
1.13908
-35.659
-6.82232
5.96748
13.9784
11.5135
12.7896
1.30222
0.0311733
34.0176
0.0509042
-8.77117
0.204135
36.0717
12.5411
-12.5828
4.53215
57.251
-24.3652
-29.4734
-44.2961
3.09066
-5.68683
-54.5539
-19.2009
14.2354
-15.8215
-7.16955
0.0169242
-9.52914
11.8137
5.03395
2.87007
0.112838
0.282271
-19.6445
-5.0282
-11.9146
0.677325
0.0575883
0.271583
-0.206516
-6.08891
13.082
-44.0739
13.4541
-0.365138
-0.339172
11.224
11.1902
12.2301
1.21687
-0.291707
-9.66951
3.84696
-0.188222
-0.635597
-26.8974
3.45274
-8.15725
-42.719
-28.538
-32.3498
14.1604
-30.1459
17.9622
-29.8973
0.939415
-27.993
0.799205
2.52743
-0.269888
-5.22907
0.893428
3.48632
-2.17677
11.6944
7.6822
13.1627
-5.13235
-6.66186
-54.9567
-28.0473
23.2097
35.2377
-37.0548
-27.8345
-30.9715
-57.3681
-27.6983
-8.80539
-27.9715
1.19612
1.01093
-51.3606
-61.5394
-6.16197
-0.377275
11.6152
52.1775
-3.58758
-61.0718
-0.0858224
4.71242
-3.21513
-0.351568
-30.1525
0.577467
0.81261
0.7648
2.06288
6.85268
0.267246
0.958023
-49.3448
-50.825
-41.6254
21.6013
-36.7491
12.4941
0.807428
14.351
6.3142
4.06453
20.9928
11.8917
21.9849
0.851489
3.5856
5.1318
0.515365
1.92297
-12.8672
8.80649
13.3534
8.77088
42.3108
1.25384
23.1309
-57.1882
-5.00357
-47.8024
39.9836
10.4355
9.25325
6.25478
-16.9452
-9.30579
11.6791
-36.8132
7.37115
7.96542
-4.67275
17.564
9.49152
-5.42725
-16.0704
-16.8892
13.0309
-2.10883
-57.8961
-0.346221
-46.2385
-32.5142
12.9113
-62.1917
-6.78586
33.6736
-1.87173
12.8732
14.2304
17.0504
-6.58401
12.1634
-27.8185
-15.656
-27.6178
-4.80744
-8.29799
16.12
-27.2158
-22.9109
1.57239
0.604884
15.1805
-27.6047
6.35724
-2.9577
-45.9712
0.607234
0.328565
11.5633
-58.2225
-5.70622
-2.68105
0.732365
-1.83066
11.2155
10.9115
-0.827604
11.2707
-24.0256
11.2671
-62.8187
11.5542
-33.158
-30.7937
-7.73167
10.9031
-8.55884
0.958446
10.8933
-2.73632
0.203148
-8.5491
51.45
0.136495
33.7452
-9.14965
0.0989755
-3.53
0.228286
12.4417
11.0745
12.2113
-9.47416
0.148621
11.7836
-1.33364
0.0664027
0.676719
-24.904
1.48468
0.274447
12.5698
-29.4738
-31.3633
0.1292
-4.65565
0.650691
-30.4249
0.427343
0.311437
0.628896
0.288033
0.763031
0.652252
0.0277212
0.647299
11.1787
-25.8621
-18.6007
12.5601
44.5589
15.7697
12.311
-0.0353898
13.004
36.7875
0.0655827
32.6802
0.367291
0.168289
-1.4197
24.4474
0.779264
0.0720754
54.3639
13.0744
27.4999
-9.89472
-13.9973
0.160336
-3.77614
-0.0274824
0.873966
1.93926
0.579284
49.1973
0.896055
0.538634
0.55066
11.7886
-41.6387
-22.5771
-4.68692
2.81658
0.465757
0.456235
15.011
-30.37
25.3982
16.3364
2.69353
0.458912
41.8671
-14.3615
39.6789
31.6472
11.7141
12.4185
0.331506
-6.25013
1.41325
-13.9771
-12.6529
12.4171
-56.1348
0.827518
0.99976
0.855481
10.7409
0.903988
47.1675
-4.54706
45.3522
0.927551
-60.9889
-10.0411
-14.3132
0.771896
-45.0664
0.880464
27.5894
12.0082
31.5088
1.11214
-17.9948
3.95346
-47.0091
29.6363
11.9179
11.5693
-0.96391
-24.7415
11.5298
-64.3673
-29.9886
11.9787
33.1612
11.8405
-22.8624
42.8316
6.57034
-5.77993
42.5885
36.6191
1.09152
2.67901
-59.8193
42.4913
9.57905
39.0676
-5.30321
-57.3151
29.0256
-2.50169
-0.040365
0.282036
-0.0206905
0.525966
13.7178
-39.3813
-0.506738
-35.6686
16.1317
37.8138
-11.5083
35.9249
-0.0420734
-0.048031
-14.3036
56.6851
-18.9242
46.9982
16.0655
4.01723
24.0434
4.12414
16.5239
0.0422855
-0.024493
0.0116872
-0.0187903
8.65063
-15.172
13.1148
-32.631
2.28642
-40.3325
9.30118
-22.4178
43.9121
-3.23749
-2.38716
0.166507
37.5951
0.0513244
22.511
-2.05154
8.44181
-9.03817
0.0879049
31.2086
35.2851
-14.2854
0.131739
0.0873973
-44.9845
-62.1633
-8.34771
51.1143
26.6153
54.3235
57.7011
43.3582
-41.3943
-1.7227
43.0835
-44.3694
-0.0109166
5.19155
0.0533146
-28.3684
-17.0252
-1.70829
1.39684
-9.12555
-0.00487411
11.3266
-37.1089
41.1933
-44.9982
11.2654
-2.1031
9.75949
1.11882
-6.1932
-64.7015
1.48784
-36.454
-15.4688
11.6314
-63.9567
-52.4783
11.6504
-11.9835
-13.6789
21.4626
11.6942
-14.1099
25.8382
-59.9401
-31.9722
-43.759
39.1778
-39.1766
4.71461
25.2211
4.11656
-57.1387
-47.8603
-0.329988
-0.390192
48.6805
-3.13775
-38.0337
-2.27169
-17.0788
-64.3536
-26.6836
-28.78
1.80203
-29.0364
0.3027
-28.8447
14.1363
-22.357
48.8934
-27.4624
20.149
-32.0994
-27.1123
-21.0016
-45.5365
33.0154
30.7789
-37.304
10.7078
24.4298
16.825
5.91339
13.3808
-2.86756
-31.4966
-78.1986
-31.6602
15.4197
19.2878
-41.0828
23.1286
-30.3214
-15.9593
5.91234
5.6845
-33.6726
12.6456
-30.1056
13.9448
30.1518
32.2726
59.9378
29.1318
-29.6014
-58.7329
42.7543
12.6278
36.6495
-49.7187
-28.5241
50.7621
30.2718
-4.1859
21.9156
23.0002
-44.7295
-31.5475
-54.0438
15.1921
10.9126
35.5178
-57.539
43.8434
28.3387
12.9368
36.7389
-31.1863
1.63193
2.32926
12.8782
-12.9107
-57.7878
-27.5265
45.0342
-5.42116
-22.9166
-49.3766
41.8153
46.3637
38.0642
-37.7755
-97.187
44.6948
-31.8115
-57.9456
46.0841
-1.77912
-10.0133
12.4755
0.706422
0.62039
-8.39689
43.6872
-26.8792
1.15342
0.926336
0.646028
1.15368
-0.19871
4.29319
-34.1212
-5.33838
0.512272
-55.6576
-74.5193
-27.4115
-19.9363
-1.01911
-18.0656
-30.5447
-43.73
0.573494
-36.174
-2.24423
-35.0745
-28.4537
42.9069
18.8886
26.3229
-0.00279733
4.34057
-71.5151
-25.798
-9.67966
-50.499
0.0132852
-60.9973
-43.5419
-26.3929
-43.3569
-5.12379
16.0159
11.8404
15.211
11.1265
42.8078
0.0793132
-0.0275828
0.112591
14.7466
-11.364
-54.3648
-54.9725
16.2638
37.0823
24.3881
29.1055
-0.324103
-55.0034
-5.62584
12.4122
3.88225
-0.939951
18.9855
7.30738
-14.9196
14.7495
-11.1436
-9.54607
-7.37804
17.4892
36.1067
-32.0458
52.3663
-27.6675
19.1064
-65.2226
-50.2425
-10.2722
15.1445
33.3971
-9.37744
-38.8712
7.26058
14.4777
-18.7294
-28.0912
15.7091
46.6805
58.6863
-48.5641
-0.88686
-59.0924
14.6325
1.0552
-9.99585
10.9631
7.27704
-16.3979
3.45867
8.02681
-42.9744
-9.21217
-27.1283
-16.1944
-28.456
0.0967528
12.2011
-65.0277
-17.8561
0.010392
59.8653
12.8441
45.481
11.5654
-20.6927
16.9775
0.0730304
33.3764
55.0019
15.4752
33.4573
-0.0534651
-47.4225
12.6857
12.5295
-4.42597
5.79228
-37.6934
-4.87545
-8.7252
12.8349
3.77415
-23.2007
5.089
9.67566
-7.31928
-13.4387
-27.4827
-0.0362706
14.0333
-0.00670375
14.4443
-0.0264927
-20.856
12.5469
-23.9686
11.9322
-30.6191
-0.0386473
33.6146
-9.28223
34.8568
-0.000265364
8.59283
-0.000254664
-0.0185487
-4.76568
7.46904
17.0777
33.2739
30.405
-29.9778
-54.1518
41.0451
23.7605
21.4574
4.74721
0.00480825
0.162872
-75.7793
42.6305
18.142
14.0646
0.0724381
18.5131
0.147717
0.0787344
-22.4531
-24.4404
-38.9237
-35.2771
6.59835
1.90328
-5.46342
12.4406
42.658
10.9012
-16.1108
10.8418
-6.95157
-78.5069
-16.3784
0.290437
3.44536
-9.85732
-6.90172
-37.0294
12.8477
-35.9005
22.8365
-76.3682
-32.4004
-29.0707
0.257654
21.6815
2.03765
12.7705
34.5668
12.8267
-11.5448
10.8465
11.657
8.2678
12.7258
-40.9884
18.4305
3.03322
42.4299
12.102
-23.6531
12.9176
12.829
-29.1781
-78.1529
-30.7662
-28.4692
-29.1543
9.30172
57.9944
-27.6151
-4.00213
11.1094
18.9092
-29.1974
0.544001
0.495504
10.826
-24.1528
-28.6345
-48.7166
30.4246
-2.74032
1.00196
2.27978
-28.8359
27.5996
9.64959
-57.1037
-26.3726
-27.4968
59.1572
13.9278
10.5017
1.36013
14.0291
-56.3337
16.4991
11.0485
18.7548
-1.67175
17.1762
22.1824
43.6823
35.3687
10.4586
-17.7546
21.8124
-10.4477
0.598042
0.543974
30.8004
-32.3512
-13.9972
0.518041
54.6472
0.542827
-28.9224
30.2621
19.5329
38.1831
-27.5272
-21.1023
-28.3833
30.6986
-12.707
-32.8057
-7.15389
11.2688
1.52875
13.9041
0.465427
13.6926
0.226688
11.2839
0.312189
-13.0916
0.284775
33.8474
1.86137
4.06596
-27.2008
8.63191
0.962116
9.98776
-7.00463
-35.8675
-48.8522
-21.6789
4.37613
36.0218
1.0786
57.4951
-37.6012
57.9305
51.2403
1.01902
4.16567
5.96352
0.876461
1.00073
-91.7755
9.70966
-28.5244
-11.3582
4.51796
0.663296
-27.561
6.42884
6.37673
9.09494
6.50869
0.899706
-34.7645
-4.73256
0.845396
-16.9859
1.2825
0.51045
1.05038
0.808007
-9.50174
7.17561
-57.682
0.5148
0.831217
-12.0596
-9.62398
22.7856
-19.0081
12.0705
11.9558
-0.0518227
0.233672
-10.7966
-17.7978
8.97043
0.184962
-3.17041
9.97729
0.116274
56.1432
0.0984189
1.59953
0.161139
-0.00173792
-30.4895
0.00735797
-27.6206
-8.37488
51.8985
4.33823
-1.05682
-3.24317
0.108834
-7.34504
-41.1646
1.57296
0.11523
7.05139
-27.7806
0.0949363
7.84271
27.5314
41.695
-11.7583
9.2998
8.70402
-44.1809
-25.4332
0.0231171
47.0793
-60.744
-22.923
-8.55118
48.5493
-10.3232
-11.3293
31.3973
-67.3707
-3.63817
0.10901
0.0434489
-0.00528866
0.00177255
0.00772725
-30.0848
17.1027
-0.000606788
-55.0746
-0.875317
0.0778447
-10.6427
2.86339
14.7384
-47.9735
5.48487
15.4296