/*--------------------------------*- C++ -*----------------------------------*\
| =========                 |                                                 |
| \\      /  F ield         | OpenFOAM: The Open Source CFD Toolbox           |
|  \\    /   O peration     | Version:  2506                                  |
|   \\  /    A nd           | Website:  www.openfoam.com                      |
|    \\/     M anipulation  |                                                 |
\*---------------------------------------------------------------------------*/
FoamFile
{
    version     2.0;
    format      ascii;
    arch        "LSB;label=32;scalar=64";
    class       surfaceScalarField;
    location    "0.0625936";
    object      phi;
}
// * * * * * * * * * * * * * * * * * * * * * * * * * * * * * * * * * * * * * //

dimensions      [0 3 -1 0 0 0 0];

oriented        oriented;

internalField   nonuniform List<scalar> 
92401
(
0.147929
-0.0968874
-0.00701975
-0.0440221
-0.062962
0.0603046
0.0386144
-0.0359571
0.0222681
-0.0397807
0.0430439
-0.0255313
0.00656653
-0.0130599
0.0128896
-0.00639628
0.00134205
-0.000514914
-0.00589465
0.00506751
0.0194555
0.00974092
-0.0253468
-0.00384968
0.00581594
-0.00479654
0.000322652
0.0323361
-0.0256008
0.0127203
0.0480803
-0.038642
0.0324566
-0.0418949
0.000353389
-0.000799397
5.3708e-05
0.0003923
0.004701
-0.0416614
0.0385696
0.0241831
0.0243913
-0.087144
-0.0172907
0.0109881
-0.00018433
0.00648687
-0.0344699
-0.0401404
-0.0168793
-0.0189794
0.0593967
-0.023538
0.00217971
-0.0667045
0.0645248
-0.00246086
-0.00774347
0.00204508
0.00346683
0.00223156
-0.00096292
0.0015378
0.000230756
-0.000805634
-0.00491587
0.0107856
1.28916e-05
-0.00588259
0.0164181
-0.00578259
-0.00497388
-0.00566163
-0.0408544
0.00838993
0.037018
-0.00455361
-0.0393394
0.010906
-0.054774
-0.0542163
-0.0027304
0.0550732
0.00187349
0.0907688
-0.0894171
0.0220239
-0.0233756
0.0502007
0.0601591
-0.0713593
-0.0390005
-0.0325884
0.0511682
-0.0579191
-0.00272947
-0.00102825
0.00400767
-0.000249955
0.0315063
-0.0635815
-0.000513146
0.0612364
-0.0603216
-0.0324036
0.0314887
0.0125773
-0.0173618
0.00130042
0.00348408
-0.035933
0.106532
0.0617458
-0.132344
-0.0846893
0.107517
0.0089819
-0.0318098
-0.131147
0.0323263
0.0296163
0.0692042
0.0148581
-0.0620142
0.0372897
0.00986638
0.0601571
0.00927125
-0.0545702
-0.0443434
0.010184
0.00248338
0.031676
-0.0504102
-0.0411827
0.065484
0.0261088
-0.0332384
0.0405435
-0.0138855
0.00658048
-0.0200831
-0.102113
0.0653862
0.0568098
-0.0859822
0.0862987
-0.000316445
0.0350718
-0.0072861
-0.0774807
0.049695
0.00369618
0.0250726
-0.0213889
-0.00737984
0.0268863
-0.0503988
0.0235125
0.000162996
-2.47081e-05
-0.000101112
-3.71755e-05
0.000715878
-0.0584452
0.0577293
-0.0685844
0.0429143
0.062405
-0.0367349
0.090128
-0.025427
-0.0127999
-0.0519011
-0.000273762
0.0704955
0.000473597
-0.0706953
-0.0477013
0.0730962
0.0398737
-0.0652687
0.000548682
0.00110742
-0.000378261
-0.00127784
-0.00221717
-0.00348063
0.000252955
0.00544485
-0.0382286
0.0839236
-0.0462339
0.000538985
0.000333063
-0.000808051
-0.000602279
0.00107727
-0.054664
0.0542734
0.000390657
0.0755555
-0.00790926
-0.0185039
-0.0491423
-0.0986033
0.0912523
0.00482046
0.00253047
-0.0550327
0.0274418
0.0111001
0.0164909
-0.0029215
-0.0151542
0.00765658
0.0104191
-0.0125647
0.0259026
0.0374433
-0.0507812
0.000939981
-0.000359451
-0.000247467
9.87641e-05
-5.25295e-05
0.0007537
-0.000799935
0.000666523
0.000200889
-0.000549279
-0.000318134
0.00417287
-0.00922832
0.00508941
-3.3955e-05
0.0679097
0.00505856
-0.0171982
-0.05577
-0.0150901
-0.00471721
0.0105932
0.00921406
-0.0409811
-0.0528925
-0.0547678
0.148641
0.00334604
-0.0341544
-0.00360765
0.034416
-0.000362204
0.000555244
0.000526708
-0.000719749
0.0044339
0.0044768
-0.0281155
0.0192048
0.0187926
-0.00657608
-0.00956899
-0.00264755
0.0417134
-0.0764776
-0.0274111
0.0621752
-0.0290886
-0.00317547
0.010321
0.0219431
0.0122918
0.00817024
0.0130651
-0.0335272
-0.000478376
-0.00034696
8.55041e-06
0.000816786
0.0252311
-0.00973213
0.0365637
-0.000768739
0.000464824
-0.000862406
0.00116632
0.0442241
-0.0330858
-0.0682314
0.0570932
0.000506349
-0.000295264
-0.000211085
-0.00111287
-3.89456e-06
0.00056729
0.00054948
0.000718808
-0.000206128
0.000411937
-0.000924617
0.0226916
-0.0229051
-0.0624318
0.0626453
0.00111486
-0.0126948
0.00282818
0.00875172
0.0430148
0.0585793
0.0185136
-0.120108
-0.114455
0.0267368
0.126417
-0.0386987
-0.00547021
-0.0443987
0.00374237
0.0461265
0.0544813
-0.0297776
0.0259046
-0.0506083
0.0256021
-0.00336094
-0.152604
0.130363
0.00805234
0.0168417
-0.0284425
0.00354852
0.000692029
-0.000215995
-0.000736965
0.000260931
0.0380544
0.0124981
-0.00137673
-0.0491758
-0.00255707
0.0840965
-0.0855283
0.00398889
-0.0181379
0.0497102
-0.116111
0.0845384
0.0423536
0.00530177
-0.0531256
0.042477
-0.00012336
-0.0023316
-0.0291483
0.0415731
-0.0100932
0.0708997
0.0171493
-0.031516
-0.056533
0.130333
-0.143774
-0.0291569
0.0425978
-0.0151512
-0.0454511
0.0582707
-0.0824552
-0.000594965
0.0830501
0.0011035
-0.0978699
0.163167
-0.0664003
-0.00253393
0.00339983
-0.000619718
-0.000246184
0.0895263
-0.14877
0.0306137
0.02863
0.00153828
-0.000408252
0.000891603
-0.00202163
-0.0871319
0.142869
-0.103993
0.0482562
0.0307267
0.00297649
-0.041012
0.00730876
0.0863797
-0.0153307
-0.0818696
0.0108205
0.00573426
0.0315388
-0.0524242
0.0268508
0.0269657
-0.123368
0.0695514
0.0870867
0.1131
-0.080046
-0.12014
0.00125068
-1.26569e-05
-0.00166017
0.000422144
-0.0937109
-0.028929
0.111096
0.0115439
0.00116712
-0.00603414
0.0160431
-0.0111761
-0.0140126
-0.0338565
0.0579751
-0.0101061
-0.00558823
0.0172276
-0.0144774
0.00283807
0.000395651
-0.000684617
-0.000596886
0.000885852
0.0219427
-0.0261765
-0.00135436
-0.00188426
-0.000701759
0.0015438
0.00104222
-0.0576976
0.0603661
-0.00266847
-0.00258304
-0.00629524
-0.0020786
0.0109569
-0.0366581
0.0281758
-0.00553023
0.0183335
-0.0472304
-0.0557924
-0.0513219
0.041583
0.098339
-0.0886002
-0.00762361
-0.00177254
0.00507226
0.0043239
0.0469175
0.0109883
0.00234718
-0.060253
0.000470919
-0.00947623
0.0069391
0.00206621
-0.0399032
-0.0538078
0.0115824
0.0821287
0.0647072
-0.0388764
0.0266314
-0.0524622
-0.00970264
0.0598894
-0.0587773
0.0085906
-0.0588639
-0.0339196
0.00776327
0.0850202
0.0162365
0.00500418
-0.0330207
0.0117799
0.0616566
-0.062385
0.000728481
0.00185352
0.00178381
-0.0015454
-0.00209194
0.0405943
-0.0436198
0.00302547
-0.0584529
-0.0350302
0.106765
-0.0132816
0.000847925
-0.00991245
0.00979418
-0.000729658
0.00283908
0.00594638
0.0027026
-0.0114881
0.0017946
0.00651787
-0.00784154
-0.0246543
-0.057947
-0.00889155
0.0914929
0.0259043
-0.00785571
0.0181746
-0.0362232
-0.0839975
0.0925485
-0.101267
0.0927158
0.0790174
-0.051384
-0.0276334
0.00156776
-0.0346198
-0.0101547
0.0432068
0.00827452
-0.00562644
-0.00948334
0.00683526
0.0466406
-0.0703534
-0.0621822
0.0858949
0.0740253
-0.0647087
0.0293647
-0.0386814
-0.0136317
-0.00843479
0.0325962
-0.0105297
-0.0581679
-0.0867791
0.0572297
0.0877173
-0.0416181
0.0543455
-0.0111596
0.097694
-0.0482727
-0.0494212
-0.00458135
0.015383
-0.00252717
0.00101116
0.000685722
-0.000715525
-0.00098136
0.0473403
-0.0157964
-0.00524319
-0.0263007
0.00367075
-0.00190302
-0.000470778
-0.00129696
0.00541323
-0.010214
0.00875519
-0.00395446
0.0723932
-0.0423278
0.0257942
-0.0558597
0.00884726
-0.000388914
-0.00687361
-0.00158473
0.00167263
-0.00060586
-0.00106677
-0.0654243
0.0649217
0.000502569
0.0121581
0.00546187
-0.0967871
0.0791672
-0.0117071
0.0143072
-0.0102959
0.00769575
-0.0727807
0.0161474
0.0834412
-0.0268079
0.0183463
-0.0973646
0.0756231
0.0033952
-0.052692
0.0430632
-0.00835535
0.0179842
0.008851
-0.00181952
-0.00300987
-0.00402161
8.51398e-05
-0.000847994
0.000762855
0.0284336
0.1707
-0.245524
0.0463905
0.000317494
-7.70623e-05
-0.0247746
0.0603003
-0.0527921
0.0172665
-1.9922e-05
0.00524909
-0.00446777
-0.000761395
0.000162552
0.00153782
-0.0019065
-0.0708987
0.00066245
0.0702363
-0.0323717
0.113765
-0.0477432
-0.0336502
0.000512586
0.000520222
0.00950091
-0.0105337
0.000578367
0.0911241
-0.0917025
0.00239988
-0.0016367
-0.00121643
0.000453251
0.00137796
0.000697061
-0.000710226
-0.0013648
-0.0366699
-0.00158152
0.0324097
0.0188207
-0.0637951
-0.0724642
-0.0163072
0.00662743
0.0821439
-0.00062277
0.00200073
-0.100267
-0.0420106
0.11285
0.0294282
0.027246
0.170255
-0.084964
-0.0577451
-0.0275461
-0.0182277
0.119155
-0.0434879
-0.0574392
0.0397387
0.0299341
0.0385901
-0.108263
0.104711
-0.248901
0.109465
0.0347255
0.00164073
-0.00146313
-0.00138781
0.0012102
-0.0122791
-0.0354495
0.0555787
-0.00785013
0.0258999
0.0403678
-0.026179
-0.0400888
-0.0353522
-0.0258
-0.0197719
0.0809241
-0.0533649
-0.0139393
0.0550251
0.0011072
-0.0121111
0.00910326
0.00190066
0.0553713
-0.0284449
-0.0508461
0.0239197
-0.0894085
0.105377
-0.0501554
0.0341873
0.016612
-0.0233195
0.00692337
-0.000215856
0.0517841
-0.0600578
0.0636449
-0.0571093
-0.00347368
-0.0137873
0.0743702
-0.0053655
-0.0131085
0.00245423
0.0160198
0.000283463
0.0585568
-0.0580121
-0.000828154
0.135193
-0.0537627
-0.00253339
-0.0788966
0.0595257
-0.00750447
-0.048575
-0.00344613
0.0513199
-0.0215543
-0.0721173
0.0423517
-0.00994093
-0.00181544
0.0150236
-0.00326723
0.00539306
-0.00166616
-0.00478448
0.00105757
0.00258113
-0.0439787
0.0405594
0.000838208
-0.000798879
-0.0862321
0.00344283
0.019613
-0.0129419
-0.0631771
0.0465862
0.0165909
-0.059545
-0.0170411
0.0109767
0.0656094
-0.100102
-0.000814642
0.103758
-0.00284088
0.00370289
0.0236508
-0.0127693
-0.0145844
-0.0713093
0.149775
-0.0659908
-0.0124747
-0.00476487
0.0133186
0.0225671
-0.0311208
-0.0518927
0.0997317
0.0389415
-0.0867805
0.0290341
0.001658
-0.0145812
-0.0161109
-0.0361957
0.0378665
0.000910308
-0.00488969
0.00743267
-0.0100392
0.00749621
-0.000291307
-0.00455157
0.0102561
0.0359413
0.0379105
-0.0738518
0.00109772
-0.00190224
4.49601e-05
0.000759554
0.0197873
0.0083153
-0.0190667
-0.0090359
0.0224041
0.0112932
-0.0020678
-0.0316294
-0.0523637
-0.00174022
0.00696195
0.0471419
-0.000165887
-0.0438128
-0.000977907
0.000554936
0.00152069
-0.051786
0.0369228
0.0519996
-0.0371364
-0.0449116
0.0302725
0.0180102
-0.00337111
0.00134802
-0.00350497
-0.00990366
0.0120606
-0.00956715
-0.00507918
-0.00314715
0.0177935
-0.0435492
-0.00483883
0.0121924
0.0724687
0.0397058
-0.0720883
-0.0400862
-0.045008
-0.000359134
0.0453671
0.0861931
-0.048677
0.0595842
0.00365428
-0.00768179
-0.037234
0.0412615
0.0359922
0.0113562
-0.00538608
-0.0419623
-0.000480882
0.000330305
0.00101762
-0.000867048
-0.0168284
-0.0449961
0.0618244
-0.000239614
-0.00135414
-0.00416895
0.0308112
-0.022988
0.00616729
0.0278587
-0.0417078
0.097874
-0.0906567
-0.00202894
-0.00518828
-0.0214617
0.101349
-0.0186133
-0.0612744
-0.0322454
0.00681212
0.014295
0.0111383
-0.0392473
0.0360176
0.01404
-0.0108103
0.0325709
-0.0251259
0.00134259
-0.00878752
0.0190235
0.0722122
-0.122054
0.0308184
0.0762978
-0.0752708
-0.0243145
0.0232875
-0.143396
0.00209308
0.00365833
0.137645
0.0305877
0.012356
-0.0412741
-0.00166956
0.0398628
-0.0577999
0.0203983
-0.00246117
0.00213788
-0.00122998
0.000246413
-0.00115432
-0.0145869
-0.00113829
0.0733992
-0.0416438
0.0188063
-0.0505617
-0.0118776
0.0477577
0.000396335
-0.0362765
0.00518262
0.0956697
-0.0930411
-0.00781121
0.0494398
-0.0989623
0.0580648
-0.00854236
-0.0483319
-0.000372157
0.0368264
0.0151088
-0.00356177
0.00864785
-0.0201948
-0.023421
0.0477936
-0.0133127
-0.0110599
-0.0483168
-1.50577e-05
-0.00553029
-0.122873
0.175878
-0.0474741
0.0101392
0.00976217
-0.0635789
0.0436775
0.0494851
0.0054933
-0.0448392
-0.0129176
0.00673925
-0.00362107
0.00979945
-0.0567797
-0.000855401
0.0576351
0.110483
0.0444501
-0.136769
-0.0181647
-0.0092757
0.000312232
-0.00395416
0.0185284
-0.116186
-0.0225007
0.120158
0.0126502
0.0666256
-0.0695136
0.00283562
-0.05582
-0.0105945
0.000518696
0.00191442
-0.00267273
0.00203635
-0.0017949
0.000277238
-0.0506682
0.0260404
0.0738082
-0.0491804
-0.00194063
0.00097587
0.000960866
-0.0342262
-0.00772467
0.0447865
0.000281644
-0.000307859
0.000352878
-0.000904612
0.000122394
0.00042934
0.000206638
0.00211136
-0.00180027
0.00144344
0.000132494
0.000224338
0.000390643
-0.000209075
0.000758413
0.105834
0.121805
-0.0797106
0.000133238
-0.000793871
0.00105128
-0.0528759
0.0527639
0.000112037
-0.0105784
0.0760833
-0.0714143
0.00590938
0.00174256
-0.0196396
0.0052555
0.0126415
-0.060326
-0.0031283
-0.0172377
0.00400078
0.0475493
-0.0343124
-0.0633624
-0.00269294
0.0660554
-0.00679787
-0.0167021
-0.0127829
0.0362829
0.00032774
-0.000383993
-0.000533287
0.00058954
-0.00394055
-0.00742454
0.00909088
0.00227421
0.0549845
0.0439064
-0.0175078
0.0482547
0.0895279
-0.0380664
-0.0997162
-0.012703
-0.0443154
-0.0192645
0.0187628
-0.0542508
0.0547525
-0.0110317
0.0290266
-0.00616415
-0.0118308
-0.0150744
-0.0135203
0.0134962
0.0150985
0.09692
-0.0949173
0.0189176
-0.0209203
0.00117151
-0.00437779
-0.00041827
0.00362455
0.00116481
-0.066532
0.0653672
-0.0724659
0.00338195
0.066629
0.00245501
0.0389502
0.0383509
-0.0773011
0.0190888
-0.0600431
0.0282513
0.00202998
-0.00115847
0.000508278
-0.00137979
0.000224777
-0.00024146
0.00121086
-0.00119417
-8.40455e-05
0.000435701
-0.00100771
0.00065605
0.0637916
0.0565526
-0.0390709
-0.0812734
0.00584421
-0.0869434
0.0823903
-0.00129106
-0.0137071
0.00056595
0.0265566
-0.0134154
0.0535607
-0.0526974
0.0190224
-0.0198857
-0.000528043
0.00139057
-0.000696017
-0.000166505
0.0203183
0.0478833
-0.0491128
-0.0469681
-0.00172565
0.000971431
0.00152126
-0.000767046
0.00126096
0.0803771
-0.0816381
-0.0499637
-0.0151577
-0.022205
0.0873264
-0.049993
2.92965e-05
0.011663
0.0167605
0.0167262
-0.0451497
0.000538681
-0.00276539
0.000404615
0.00182209
-0.00175788
-0.000573179
0.000605416
-0.106067
-0.00915369
-0.0429586
0.158179
-0.00969665
0.00716056
0.137141
-0.134605
-0.0385905
0.0419273
-0.0646994
0.0613626
-0.0793354
0.0790879
0.00024758
0.00128603
-0.0500048
-0.0305237
0.0671778
0.0193328
-0.00600105
-0.0805096
0.0505575
0.0947564
-0.156921
0.0116066
0.0415705
0.015917
0.0331967
-0.0906842
0.104062
-0.108481
0.0433692
-0.00358732
0.0132237
-0.0119963
0.00235996
-0.00158423
-9.33032e-05
-0.000612662
0.0022902
-0.00288143
-0.00564575
0.00171886
0.00680831
0.0607257
-0.00612448
-0.0182949
-0.0363063
-0.056747
0.0282163
0.0285307
-0.0927789
-0.00773562
0.0120742
0.000627797
-0.000545114
-0.00166691
-0.118025
0.0265715
0.00512981
0.0863233
0.00132835
-0.0535138
-0.0102058
0.0623912
0.0455097
0.029256
-0.101431
0.0266648
0.0383267
-0.043483
-0.0190093
0.0241656
0.0482486
-0.0600923
0.0501703
0.0313809
-0.0561432
0.0496113
-0.0248489
0.0346899
-0.0360224
0.000216563
0.00111588
0.0161404
-0.142077
0.0912206
0.0347164
0.00143139
-0.0617064
-0.00385341
0.0522497
0.000315783
-0.107598
-0.0338939
-0.00873076
0.00681172
0.035813
-0.0486591
0.0444063
0.0500554
-0.0458026
-0.0424628
0.0822234
-0.0397607
0.0104187
-0.101961
0.0480596
-0.0169976
0.00751199
0.024568
-0.0150824
-0.0883441
0.0937819
0.0363342
-0.041772
0.0586025
0.032818
-0.0828148
-0.00860564
-0.0462289
0.141521
0.00413393
-0.0994262
-0.000546015
0.00294792
0.00362708
-0.00602898
0.0536622
-0.0719836
0.0829568
-0.0646354
0.00796297
-0.039148
-0.00828046
0.0394655
-0.0433677
0.0313929
0.103196
-0.0912208
-0.0499882
-0.0264443
0.0528591
0.0235735
-0.00964517
-0.000409393
0.00620938
0.00384518
-0.0108894
0.023264
-0.0183428
0.00596827
6.36162e-05
0.0739617
-0.0740253
0.0149034
-0.0440699
-0.0194925
0.0481704
-0.0342069
-0.000726716
-0.0132368
0.00150327
-0.0262927
-0.0207233
0.0455128
0.0346238
-0.0345525
-7.13141e-05
0.0611834
-0.0417155
0.0643033
-0.0837712
-0.099304
0.0975287
0.0986953
4.82058e-05
-0.0108746
-0.00176899
0.0125954
0.0495272
-0.000213727
9.83105e-06
0.000201714
2.1811e-06
-0.000449396
0.0482583
-0.111357
0.0635478
-0.00859013
-0.000626371
0.00498322
0.00423329
0.0268865
0.00996064
-0.0368471
0.00120574
-0.000939097
-0.00885677
-0.0333439
-0.0364903
0.0113813
0.0572431
0.00101203
-0.0582551
0.0728437
-0.0441354
-0.0511884
0.0224802
0.00160748
-0.0252056
-0.0207453
0.0693858
0.0430309
-0.0395731
-0.00805469
0.00930864
0.133586
-0.119524
0.0364762
-0.0505384
-0.0450181
0.0364894
0.0218903
-0.0133615
-0.0524791
0.0524862
-7.15952e-06
-0.0477786
0.0296468
0.0107491
-0.0468891
-0.0108609
0.0470009
-0.00226559
0.161073
-0.16093
0.00212285
0.107646
0.0159366
-0.0160656
0.0507854
0.0085899
-0.0512326
-0.00814272
-0.014513
0.0046988
0.0107007
-0.000886484
-0.00956623
-0.0053848
0.00471259
0.0102384
0.0659271
-0.037611
-0.0525915
0.0242754
0.0295925
-0.015444
0.0240247
-0.0381731
0.0267067
-0.0935023
0.0895249
-0.0227293
-0.00588851
0.000451427
-0.00907596
-0.0943605
0.106991
-0.0230154
0.0103851
-0.0114327
0.0480522
0.0139758
-0.0505954
-0.00417398
-0.000563568
0.0032417
0.00149584
0.0839536
-0.00471515
0.0507324
-0.129971
4.25186e-05
-0.000692489
-2.64638e-05
0.000676434
-0.0669456
0.0587966
0.0741282
-0.0659792
0.00334039
0.000853115
-0.00226882
-0.00192469
-0.0778754
0.0756091
0.0022663
0.0631021
-0.0598357
-0.00326642
0.0605657
-0.000747458
-0.0598182
-0.010696
0.123526
-0.0006059
-0.112224
0.00990977
-0.0311305
0.0328838
-0.0238152
3.16397e-06
-0.0562004
-0.0675686
0.0115672
0.0664492
-0.0104477
-0.0133013
-0.00215342
0.000177941
-0.000485705
-4.27167e-05
0.000350481
0.00121894
-9.84346e-05
-0.000264827
-0.000855675
-0.0634674
0.00774615
-0.00144599
0.0571672
0.000380104
-0.00547044
0.0019248
0.00316554
0.0122163
-0.0146946
-3.47671e-05
0.00251305
0.00821006
-0.00674446
0.0107507
0.0556904
-0.00947419
-0.022724
-0.0234922
0.0361157
-0.00530851
-0.0363524
0.0055453
8.43743e-05
0.0669254
-0.000298366
-0.0667114
0.00763694
-0.0715488
0.0191979
0.0447139
-0.0431731
-0.0317055
0.0416434
0.0332353
-0.0352769
0.0213804
-0.0908925
0.104789
-0.00094753
0.0152623
-0.00783585
-0.00647888
0.0490688
-0.0588962
0.0473502
-0.0375228
-0.0625692
-0.00679305
-0.008081
0.000906681
-0.000275707
0.00435533
-0.0049863
-0.0120935
-0.00276375
0.00175391
0.0131033
-0.00817211
-0.00930968
0.0108406
0.0066412
-0.000140589
-0.00223435
0.00144615
0.000928794
-0.000325548
0.000408511
-8.29638e-05
0.00176047
-0.0735724
-0.0273499
0.0991618
-0.000149093
-3.46902e-05
-0.00145294
0.00163672
0.000108471
-0.000329935
-0.000104084
0.00234267
-0.0657051
-7.29231e-05
-8.89932e-05
0.000570428
0.000609055
0.000159613
-0.000387799
-0.000380869
-0.0282056
0.0633596
0.0783739
-0.113528
-0.00918178
-0.00222312
0.00726367
0.00414123
-0.0146111
-0.000309113
0.00573845
-0.00531575
0.0055001
0.0132033
-0.0133876
-0.000431311
0.000635611
-0.000277224
-0.0662592
0.0669642
-0.000704979
0.0304076
0.047168
-0.060052
-0.0175237
0.011415
-0.0754257
-0.0212384
0.0852491
-0.0135767
0.00275612
0.0055048
-0.0045647
-0.00642647
-0.00258551
-0.0165646
0.0584602
0.0128614
-0.054757
0.0691209
0.00480301
-0.0538235
-0.0201004
0.000211546
0.000419655
-0.000746179
0.000114978
-8.8295e-05
-0.000234545
-0.00267172
-0.00117655
-0.0013566
0.00520487
0.0650928
-0.045928
0.0120466
-0.0312114
-0.000841261
-0.00268707
0.0013911
0.00213723
-0.0167631
0.0100487
-0.00308783
0.00980222
0.0014925
-0.101497
0.101243
-0.00123812
0.00314017
0.000788886
-0.0105983
0.00666928
0.0102807
-0.0107902
0.00157488
-0.00106534
0.00991251
0.00400285
-0.0107752
0.0367746
0.0562752
-0.027957
-0.0272772
0.0548029
0.0281939
-0.0557196
0.0277534
-0.0550306
-0.000699594
0.000514639
-0.0330535
0.0124778
-0.0100479
0.079213
0.0233659
0.00754988
0.0695784
-0.0542502
0.0979928
-0.113321
0.00483995
0.0926851
-0.0975251
-0.00695742
-0.00717374
0.0135438
0.000587374
-0.0343065
-0.0868681
0.0275324
0.0936422
0.0218547
0.0616248
-0.0242355
-0.059244
-0.0235333
0.113248
-0.0529403
-0.0418501
0.0448963
0.0517567
-0.0558038
0.0558107
-6.93526e-06
-0.039067
0.0367264
0.00234064
0.039649
-0.0780773
0.0727712
-0.0343429
0.0674792
-0.0840439
-0.00990821
-0.00811659
0.0110674
0.000808687
0.000636078
-0.000539822
-0.000904943
-0.00577242
-0.042636
-0.00739535
0.00124447
0.00147471
-0.00260528
-0.000113896
-0.0574076
0.0518757
0.0855311
-0.0799992
0.0359882
-0.0335276
-0.00246057
0.0125366
0.0176848
-0.0124784
-0.0177431
0.00420767
-0.000421261
0.00219558
-0.00598199
-0.064409
-0.000647218
0.0200883
0.044968
-0.00294002
0.00667999
0.000467693
0.0390002
-0.10939
0.10471
-0.03432
0.0460366
0.0134476
-0.0593716
-0.000112687
-0.00364824
0.00697004
0.00168347
-0.00500526
0.000140835
0.0605954
-0.0607362
0.0380389
0.00647452
0.0151518
-0.0596653
0.00429228
-0.00733018
0.00261664
-0.183505
0.0280049
0.163
-0.00750035
0.039776
-0.010997
-0.028779
-0.00125659
-0.00152307
-0.00116232
0.00394197
-0.0419833
0.0459201
0.124841
-0.128778
-0.00190286
0.000687133
-0.00194477
0.0031605
0.0915648
-0.00228736
-0.0432408
0.000498711
-0.0012474
0.00204916
-0.00130048
-0.018867
-0.11648
0.0162653
0.119082
0.00374653
0.0524059
-0.00409276
-0.0520596
0.0487245
-0.0703964
0.0605556
-0.0388836
0.0319709
-0.0365367
0.0486418
-0.044076
0.00837786
-0.00159326
0.005719
-0.0125036
0.00131154
-0.0443858
0.0533264
-0.0537251
-0.036138
0.0972794
0.0177111
-0.0244272
-0.0905633
0.0469131
0.0184367
-0.134097
0.0687469
-0.00184298
-0.008654
0.00633326
0.00416372
0.0278308
-0.049936
-0.00324158
0.028906
-0.026676
0.00736896
-0.00587041
5.55935e-05
-0.00155415
-0.0862538
0.00268782
-0.000144077
0.071855
-0.149822
0.0781111
-0.0273253
-0.0875076
0.0411411
0.0736918
-0.0727336
0.0204684
0.00309795
0.0491672
-0.0432795
0.029058
0.0103718
-0.0827767
0.0956933
-0.0129166
-0.0210613
-0.00948947
0.117866
-0.0873153
-0.00362073
-0.00384629
0.00610355
0.00136347
-0.0258038
0.059181
0.0406481
-0.0721691
0.0280337
-0.000807399
-0.000416845
-0.00103453
0.00225878
0.0467116
-0.0491764
0.0547145
-0.0377112
-0.00716309
-0.044991
-0.123718
0.0477908
0.075927
-0.0429209
-0.0325212
0.0276635
0.00306143
-0.00220524
0.000820734
-0.00167692
0.00285228
-0.000418808
0.000627954
-0.0863955
0.0035878
0.0828077
0.0614539
0.0128522
-0.122769
0.0484626
-0.0710385
0.000422215
0.0706163
0.00136598
-0.00170099
0.00839361
-0.0080586
0.0484819
0.156397
-0.226412
0.0215335
0.00185889
-0.00232873
0.00140977
-0.000939926
-0.0916501
0.0649375
0.0265409
0.000171739
-0.000975681
-0.000371541
0.00237482
-0.0010276
-0.00062394
0.00836462
-0.0085015
0.000760815
0.00772999
0.00789807
-0.0148621
-0.000766011
0.0408477
0.0124967
0.00304348
-0.00277591
0.00159131
-0.0985153
0.105206
0.00739755
-0.0140881
0.0121975
-0.0669797
-0.0232392
0.0780214
0.00209936
-0.004768
0.0878593
-0.0851906
-0.0406192
-0.0368404
0.0866345
-0.00917487
-0.0407076
0.0245663
0.0405795
-0.0244381
0.0536138
0.0206204
-0.0721115
-0.00212263
-0.00133854
0.000168253
0.00151158
-0.000341303
-0.123643
-0.0431766
0.0395578
0.127261
0.0484442
-0.0376952
-0.0318794
-0.037602
-0.0309681
0.100449
-0.0018558
0.00427634
0.000428744
-0.00284928
-0.0310344
-0.0803919
0.0285782
0.082848
-0.029698
-0.0285995
0.0205864
-0.000754991
-0.00330605
-0.00164866
0.00316777
-0.00379529
0.00227618
-0.00577357
0.00559606
0.02537
-0.0773048
-0.0853038
0.137239
-0.000518976
-0.000163089
0.000348505
0.00033356
0.0572414
-0.0603205
0.048044
-0.0449649
-0.0150331
0.0443516
-0.00770782
-0.0216106
0.0868064
-0.0862354
-0.0187297
0.0181588
0.0265357
0.0223977
-0.0635608
0.0146275
-0.127266
0.0738884
0.0183468
0.0350306
-0.00531186
0.0031763
8.87835e-05
0.00204677
-0.00808539
0.00961681
-0.000165444
-0.0134703
-0.00372685
0.0180381
-0.000840913
-0.0621062
-0.00494798
0.0143131
0.0527411
-0.0084117
0.103053
-0.00515791
-0.0894839
0.00903744
-0.0472934
0.0806775
-0.0424215
-0.00151038
0.00418641
-0.00154524
-0.00113079
-0.0151529
0.000328626
-0.00212395
0.0169482
-0.106252
0.00409833
0.0132944
0.088859
-3.23591e-05
-0.000309847
0.000566561
-0.000224356
0.0373462
0.00799663
0.0271258
-0.00497663
0.0463031
0.0527174
-0.0940438
-0.000191491
0.000462458
-0.000303326
-0.000531801
0.00218656
-0.00148335
-0.000171413
0.0173938
0.111147
-0.0478739
-0.0806667
-0.000249763
-6.00838e-05
0.000152427
-0.00040219
0.061839
0.0169602
-0.0921575
0.0133583
-0.157166
0.0860342
0.0771824
-0.00605095
-0.0180846
0.000183497
-0.0516328
0.0695339
0.0249121
-0.0146191
0.0167714
-0.0270645
-0.066459
-0.0231238
0.0895829
-0.0780583
0.038648
0.0394103
-0.00191828
-0.00036691
0.000651363
0.00163383
-0.0379465
0.0410165
0.00773999
-0.01081
0.046551
-0.054503
0.00795202
-0.0606388
0.0337007
0.0450484
-0.0181104
0.00453023
-0.00272758
-0.00163673
-0.00016592
-0.00325663
-0.00249256
0.000437339
-0.0422081
-0.0417894
0.0468035
0.0141471
0.00262251
-0.0635731
0.0021988
-2.04615e-05
-0.00185113
-0.000327209
0.00416574
0.00431748
0.00146755
-0.00995077
0.00709334
0.0226385
-0.040691
0.0109592
-0.019059
-0.0154747
-0.00923837
0.0437721
-0.075247
-0.00979205
0.0292276
0.0558115
-0.0018114
0.0151392
-0.00831131
-0.00501646
-0.0529664
0.000573936
0.0333335
-0.000202533
0.0253154
-0.135774
0.126297
-0.0158385
0.0285783
-0.0345404
-0.0517356
-0.0271135
0.0548668
-0.000186365
0.0403413
0.00349683
-0.0436518
-0.0551448
-0.0599607
0.115105
-0.00320083
-0.00102446
-0.0017758
0.00600109
0.00317293
-0.00477229
0.00170409
-0.000104729
0.036757
-0.00629168
-0.0281263
-0.00233905
-0.0032647
-0.00229924
0.0023631
0.00364681
-0.010937
0.0660166
-0.0587264
0.0761254
-0.000244661
0.0274327
0.00969331
-0.00679091
-0.0303351
0.0586243
-0.000825638
-0.0577987
-0.0530705
0.113721
-0.0284238
0.0596876
0.0200939
-0.0513578
-0.0165039
-0.0256905
0.0176238
0.0245706
0.00310469
0.00376831
0.000852994
-0.00772599
-0.0342158
-0.0379719
0.0993367
-0.027149
0.0448645
-0.0364543
-0.000461128
-0.00794916
-0.0499661
0.115774
-0.051049
-0.0147591
-0.00136922
0.00164574
-0.00010138
-0.000175134
-0.000615784
0.0215363
-0.00480588
-0.0161147
0.00303846
0.00374901
0.000232531
-0.00702
-0.000282523
-4.03258e-05
1.10308e-05
0.000311818
3.84081e-05
1.01692e-05
-0.000331101
-0.00919095
0.0230855
0.0702792
-0.0841737
0.0799957
-0.0806122
0.000616515
0.00029916
-0.000307872
8.71248e-06
-0.0127554
0.000975835
0.00230447
-0.00133746
-0.00194285
-0.00858112
-0.00579329
0.0065979
0.00777652
-0.0557578
0.0273341
0.000279779
0.000243993
-0.0007954
0.000271628
0.0335955
0.0550369
-0.035118
-0.0535144
0.011881
0.159272
-0.179804
0.0086507
0.0582983
0.0633022
-0.0619128
0.00197228
-0.0135712
-0.00181495
0.0134139
-0.0334089
-0.030109
0.0635179
0.0311139
-0.0645228
-0.0543353
-0.0448664
-0.0654886
0.16469
0.0498449
-0.0556891
0.00584429
-0.0726795
0.13457
-0.0713651
0.032984
-0.0300805
0.0859286
-0.00357096
-0.068979
-0.0133786
0.0698995
-0.0702962
0.0114572
-0.0110604
9.89569e-05
-0.00623373
0.00724337
-0.0011086
0.000998448
-0.00479404
0.00676082
-0.00296523
-0.000232037
0.000205523
0.000673968
-0.000647454
0.0222813
0.0232633
-0.0338696
-0.0116749
-0.00537655
-0.00498359
0.00623428
0.00412586
-0.0108205
0.0321157
-0.0429363
0.0216411
0.00112045
-0.00859917
0.0107664
-0.00328764
0.0485535
-0.0041555
-0.044398
0.0380545
0.0357328
-0.126564
0.0527764
-0.0978959
0.0599854
0.0759651
0.0329741
-0.099756
-0.0469151
0.107889
-0.0370766
-0.023897
0.00165478
0.00915065
-0.0124335
0.00162808
0.0275128
-0.00250352
-0.0250093
-0.0305174
0.0435877
-0.0038133
0.0202239
-0.031485
0.000976922
-0.000184326
0.00108977
-0.00188236
0.0117343
-0.0384103
-0.000728859
0.000187918
0.0003986
0.000142341
0.0027804
-0.000387655
0.00105922
-0.00345197
-0.000804467
-0.0024429
-0.0782751
-0.0127577
0.00147208
-0.0119121
0.0231977
0.0201271
-0.0903801
0.0207199
0.049533
-0.00336368
0.0580402
-0.0818497
0.0271732
0.000827072
-0.000521182
0.000480846
-0.000786736
0.0792488
0.0125659
0.00230057
-0.0941153
-0.00050359
-0.000797821
0.0014946
-0.000193188
0.00490886
-0.000910453
-0.0690979
0.0650995
0.00664087
-0.00109144
-0.00497931
-0.000570114
0.0064531
0.0046055
-0.00364775
-0.00741085
-0.110403
0.0964287
-0.0875527
0.101527
-0.0542302
0.109486
-0.0552554
0.00226349
-0.0437223
0.00875797
0.0327008
0.00370906
-0.00352656
0.000701584
-0.000884083
0.0493508
-0.00284709
0.00125403
-0.129571
0.00253625
0.0739639
-0.0339221
6.55636e-05
0.00102553
0.0319999
-0.0256487
-0.00737673
0.0781767
-0.0307748
0.0342151
0.00411937
-0.00507949
0.000122553
0.000837573
0.0341346
0.023633
-0.0754738
0.0177061
-2.54335e-06
-6.62658e-05
2.85073e-06
6.59584e-05
-0.000459046
0.00149978
0.00541236
0.00021256
-0.0080286
0.00649814
0.00564983
0.0746288
0.0407475
-0.0370552
-0.0783212
-0.131145
0.141536
-0.00905173
-0.00133897
0.0315417
-0.0326114
0.00106964
-0.0365793
-1.32924e-05
0.000341439
-0.00319296
-0.00222797
0.0146787
0.206732
-0.158924
-0.0624869
0.0293173
-0.0610364
-0.0179681
0.0496871
-0.00308167
0.039055
-0.00100358
-0.0853665
0.0473151
-0.0230926
0.0101463
-0.0380526
0.0476281
0.046306
-0.0558816
-0.0667813
0.0891569
-0.151618
0.129242
-0.000197735
4.66278e-05
-0.00145297
0.00160407
0.000184491
0.00230987
-0.000626713
-0.00186765
0.0434513
-0.0146712
0.038193
-0.0669731
-0.00356031
0.000330045
0.00343674
-0.000206473
-0.0118708
0.0105933
-0.036775
0.0121176
-0.0463048
0.00593336
-0.00323757
0.0185
-0.0211958
-0.136512
0.0185537
0.128657
-0.010699
0.0325584
-0.0223405
-0.0152486
0.0050307
0.0344943
-0.0529711
0.00660595
0.00454881
0.00758715
0.0519361
-0.064072
0.0247001
-0.00707137
-0.0251264
0.00749776
-0.0792966
-0.00857612
0.015092
0.00124841
-0.00111736
5.34491e-05
0.000140239
0.00259351
0.00154589
-0.00427964
0.0184079
-0.0320716
0.0383638
0.0179841
-0.14334
-0.0229784
0.148335
-0.113111
-0.0150241
0.0258975
0.102238
0.0571594
-0.0352749
0.0288525
-0.050737
0.11125
-0.00608542
0.00329787
-0.108462
-0.0169636
-0.0370314
-0.00417767
-0.0162757
0.0081389
0.0123145
-0.00133751
0.000476986
3.62838e-05
0.000824244
0.0152741
-0.0775453
0.0622711
0.10877
-0.00714221
-0.112324
-0.0263919
0.0558276
-0.0463993
0.0398512
-0.122217
0.0149488
0.0674168
-0.00395526
-0.0122726
-0.0269588
0.0431866
0.00388293
0.0498538
0.0854452
-0.133346
-0.00195279
0.0492128
-0.0829827
0.0890961
-0.0553262
-0.0960032
0.0958665
-0.0073064
0.00744311
0.00226884
0.00454606
-0.0946864
0.0878715
-0.00175474
0.00362353
0.00610186
-0.00797066
0.000248717
-0.000964302
-0.000287996
0.00100358
0.088932
0.000801674
-0.0175253
-0.0722084
-0.000812141
0.000757962
-4.60895e-06
5.87873e-05
0.000807977
0.00331961
-0.0023314
-0.00179619
-0.00182711
-0.000671497