/*--------------------------------*- C++ -*----------------------------------*\
| =========                 |                                                 |
| \\      /  F ield         | OpenFOAM: The Open Source CFD Toolbox           |
|  \\    /   O peration     | Version:  2506                                  |
|   \\  /    A nd           | Website:  www.openfoam.com                      |
|    \\/     M anipulation  |                                                 |
\*---------------------------------------------------------------------------*/
FoamFile
{
    version     2.0;
    format      ascii;
    arch        "LSB;label=32;scalar=64";
    class       volVectorField;
    location    "0.0625936";
    object      U;
}
// * * * * * * * * * * * * * * * * * * * * * * * * * * * * * * * * * * * * * //

dimensions      [0 1 -1 0 0 0 0];

internalField   nonuniform List<vector> 
47425
(
(10.2003 0.175795 0.00222353)
(10.0565 -0.172539 -0.00287488)
(10.02 -0.0104155 -0.0111962)
(11.5366 -0.526481 -0.226862)
(12.5199 0.39711 0.746923)
(10.0555 0.0154436 0.00429883)
(12.4173 0.241643 0.732089)
(10.0476 0.0171826 0.00302142)
(10.005 0.00867763 0.00575362)
(2.18038 4.61364 -1.29274)
(10.0276 0.0167793 0.00119554)
(9.97894 0.0583777 -0.00317016)
(12.207 0.354882 0.272921)
(10.0314 -0.00235387 -0.004987)
(11.1053 0.23372 -0.137223)
(10.1258 -0.21266 -0.0229171)
(10.0421 -0.00106676 -0.00553442)
(8.77211 -0.537002 -1.49427)
(8.70014 1.31538 -5.0663)
(13.5834 -0.480278 -1.04759)
(10.9054 -0.714407 -0.606686)
(9.81013 -0.0411969 -0.0301735)
(9.96186 0.0275745 -3.90025e-05)
(9.97993 0.014384 0.00986167)
(9.90837 -0.0854838 -0.012255)
(10.0029 0.0274566 -0.0138724)
(9.9925 0.0273001 0.000266322)
(11.5131 -0.360817 -8.87333)
(10.0026 0.0283889 0.000125775)
(10.0305 0.0155023 0.0115469)
(9.72742 0.727504 0.0378474)
(10.0352 0.100756 -0.000615334)
(10.0022 0.00747431 0.00610847)
(9.99832 0.00036406 0.00760097)
(9.98869 0.00809307 0.00184847)
(9.94989 -0.00742115 0.0100308)
(9.75406 -0.0188577 -0.0769664)
(10.0027 0.0167814 0.00720092)
(10.5505 0.401637 0.00394357)
(10.0515 0.0539131 0.00504233)
(9.86368 0.115068 0.000139706)
(9.49089 0.256935 -1.11273)
(6.04485 -2.52443 -1.29933)
(9.98326 0.0137215 0.00525056)
(-0.146763 -1.43996 0.694283)
(9.98027 0.0688762 0.0108264)
(9.97099 -0.00740614 -0.019489)
(9.99539 0.0296925 0.00529284)
(10.0775 -0.0481161 -0.00716645)
(10.0612 0.0227319 -0.00341287)
(2.15326 -0.577428 -5.87707)
(9.01038 1.09952 1.46507)
(10.0397 -0.00748461 0.00302396)
(6.84784 -5.42226 2.24832)
(9.99324 0.0257857 -0.00749127)
(10.2059 0.0113727 0.0478722)
(10.2151 -0.14433 0.0326849)
(10.039 0.00217908 0.0250167)
(12.1379 1.35363 1.60388)
(9.99392 0.0221851 0.0158133)
(5.50608 -5.37863 1.6847)
(5.18485 -0.482738 2.39195)
(4.61774 -3.44765 0.763891)
(9.09859 -1.17376 -0.0723992)
(10.0076 0.0107504 -0.0067172)
(10.8223 -0.329679 0.0179924)
(9.98892 -0.0125491 -0.00617387)
(10.6771 0.115172 0.534899)
(8.34367 -4.74465 2.44161)
(9.0257 0.546992 0.329552)
(10.8157 -0.585823 0.154933)
(10.0519 0.00396358 0.00496672)
(10.9606 -0.125495 -0.0194736)
(10.8437 0.255859 -0.631253)
(4.31902 2.04041 0.552123)
(9.99891 -0.00375676 0.000601288)
(4.83093 -3.13341 1.50316)
(9.98594 -0.0174038 0.00744674)
(7.33157 -3.37997 1.73201)
(11.898 0.036379 1.60199)
(4.63671 1.44583 0.653001)
(10.222 0.323911 -0.0112114)
(9.18636 0.121409 -0.29976)
(10.0131 0.0133765 -0.00678549)
(9.77492 -0.00385141 0.12316)
(10.2579 -0.072511 0.0187835)
(10.7543 -0.150033 -0.0352189)
(10.1504 0.094489 -0.0175975)
(11.0823 0.343834 -1.69812)
(11.0086 -0.51681 2.23848)
(9.77873 0.425778 -0.0427671)
(10.6527 -0.000505079 -0.0318491)
(10.053 0.0143395 0.0103659)
(10.1492 -0.0645795 0.00888273)
(10.0942 -0.0600361 0.0159228)
(10.0418 -0.00703554 0.00544633)
(10.0471 -0.0257339 -0.0192715)
(10.2949 -0.286523 -0.00475454)
(10.1772 -0.0287081 0.0111676)
(10.0327 0.0177681 0.0332609)
(10.0267 0.0355568 -0.00161)
(8.76862 0.115146 -4.10513)
(10.2872 0.188469 0.0152503)
(5.3154 1.97611 -0.715693)
(10.3007 0.145024 -0.0338016)
(10.6326 -0.773963 0.120461)
(10.1163 0.215607 0.0531309)
(10.1405 -0.0589134 0.00524382)
(9.12015 -0.0963003 -0.164421)
(9.94355 0.0702678 0.00718913)
(-1.15206 -1.94112 -0.442)
(10.0262 -0.0875477 0.0167003)
(10.578 -0.965833 0.204238)
(10.2724 -0.0212378 0.00250236)
(10.9128 -0.464455 0.0742461)
(1.79778 -4.21569 -5.87024)
(10.9114 -0.425436 0.0545556)
(4.08792 0.0294221 -4.41064)
(10.37 0.165812 -0.00430045)
(11.1096 0.368669 0.463592)
(10.3521 -0.0541595 0.00296006)
(10.0002 0.00373419 0.00550436)
(10.0018 0.0523877 -0.00312403)
(11.7907 0.771682 -0.679818)
(10.0885 -0.0590091 0.001809)
(10.8556 -0.853718 0.157934)
(10.1929 -0.0906299 0.00302396)
(10.0073 0.00395078 -0.00683299)
(9.95542 -0.00406549 0.00219258)
(9.99317 0.0280587 -0.0161004)
(9.22252 -0.316987 0.330217)
(10.4851 0.467543 -0.0380961)
(4.29136 0.0486274 0.51453)
(10.3422 -0.473079 0.0346793)
(9.93134 -0.288285 -1.13091)
(12.0762 -0.518388 -0.899272)
(10.9538 0.823115 0.269518)
(10.8758 -0.867705 0.29475)
(10.1473 -0.0992087 0.00684969)
(11.1154 0.0429195 -0.0454217)
(9.98329 0.00609843 0.00350879)
(12.2704 0.202003 0.273411)
(10.5135 0.0430173 -0.0468453)
(10.63 -1.232 0.281008)
(10.2097 0.225063 0.0074982)
(10.0049 0.00510609 0.00590503)
(12.1651 0.134119 0.989596)
(10.0158 -0.0275695 0.00284288)
(10.4774 0.0243356 -0.02498)
(9.97527 -0.0165372 0.00698036)
(10.551 -1.27239 0.144725)
(2.9418 -0.379267 -6.9182)
(10.007 0.0146746 -0.0101011)
(5.6718 0.0836343 -11.5081)
(9.00609 -1.17225 -0.74261)
(9.9675 0.0661551 0.00628901)
(10.9654 0.431105 -1.67653)
(7.48282 -3.90348 -2.64259)
(10.0868 -0.0521727 0.0214761)
(10.0003 -0.0316756 -0.00621222)
(11.1859 -0.310669 0.0395009)
(10.0068 0.0351371 -0.00345183)
(10.0059 0.00762476 0.0319126)
(10.1627 0.294249 0.0210153)
(12.2066 0.165402 -0.394123)
(0.0766497 -1.78977 -2.08412)
(10.0104 -0.0274289 0.0032127)
(4.70896 1.86367 0.519885)
(9.94989 -0.0141005 0.018737)
(12.2203 0.703558 -4.28824)
(5.72975 1.427 0.229281)
(9.98477 -6.80786e-06 0.00618476)
(10.0012 0.0228554 -0.00327108)
(9.47272 -0.980119 -0.652269)
(10.2341 -0.0312423 0.0382856)
(9.31915 -3.04944 -1.33085)
(2.77879 0.984917 -7.66232)
(10.0051 0.0263302 0.00305893)
(10.024 0.0203686 0.00645697)
(10.0503 0.0143909 0.00154632)
(2.61406 0.442293 -11.0003)
(10.0538 -0.108434 0.0118675)
(10.0114 0.0220452 -0.000111296)
(10.009 0.012759 0.014407)
(10.0417 -0.0102284 -0.000370516)
(10.0271 0.0206785 0.00324803)
(10.2147 0.0844438 -0.0145567)
(5.66743 -0.496492 -0.653655)
(9.84609 0.00397633 -0.0146125)
(10.1142 0.148156 0.0460751)
(10.0007 -0.00968032 -0.00343065)
(9.97912 0.000516317 0.00296921)
(12.2558 -0.538941 -0.768783)
(9.99767 0.00162197 0.0038727)
(10.0094 0.0109739 0.0317789)
(11.1305 -0.0477703 -0.0235755)
(10.0027 0.000936736 0.00754447)
(9.99836 -0.0044682 0.00758179)
(11.3014 0.0149642 -0.0175831)
(10.2999 -0.254916 0.067625)
(9.97279 0.00615735 0.0102418)
(10.346 -0.0350591 0.00839687)
(9.53878 0.196466 0.0314168)
(11.0818 -0.199787 -0.0194353)
(10.2872 -1.4863 -0.916452)
(10.616 -0.0139306 -0.0434692)
(10.003 -0.00517579 0.0115524)
(11.065 -0.0987739 -0.0243373)
(10.0065 0.0965677 -0.0121131)
(10.0027 0.0135695 -0.00340058)
(10.2637 -0.153075 0.0137188)
(11.0654 0.104739 -0.0144683)
(10.0065 0.0268313 -0.00124827)
(9.98311 -0.0112821 0.029169)
(10.6778 -0.0633931 0.0374986)
(11.3356 0.0216946 -0.174753)
(10.7696 0.0192949 -0.0671313)
(11.0102 0.227257 1.76113)
(8.74384 -1.28694 -0.6598)
(9.94857 -0.0295155 0.01073)
(11.7957 -0.383056 1.70421)
(11.109 0.161484 0.186989)
(10.016 -1.49207 -0.940832)
(10.8458 0.125957 -0.0154721)
(10.6137 -0.00966033 -0.0319393)
(11.8744 -0.635637 1.62732)
(10.0338 0.0155539 0.0033425)
(11.2496 0.037039 -0.0717899)
(11.4278 0.286303 0.1549)
(11.9447 0.156727 -0.290189)
(10.7767 0.0181843 -0.0689594)
(10.0223 -0.0301289 -0.0107597)
(10.4415 -0.102501 -0.00849539)
(10.0005 -0.00423518 -0.000659213)
(9.78051 -0.00711572 0.00251245)
(10.0266 0.245946 0.000881367)
(11.7137 0.117905 1.65708)
(9.98085 0.0411549 -0.00272938)
(12.0327 0.151241 1.47759)
(9.75681 -0.00129296 -0.0305423)
(9.85554 -0.0162901 0.00625794)
(10.0054 0.0106673 0.0136971)
(10.0534 -0.0166797 0.010902)
(11.8321 0.663386 0.043272)
(10.4351 0.411224 0.0384878)
(10.0078 -0.00253313 0.011935)
(10.3034 -0.0641553 0.00436269)
(10.0107 -0.000150327 0.00327982)
(10.0276 -0.0159531 0.00410286)
(9.97882 -0.000294268 -0.00883374)
(10.0038 0.0416905 0.000912791)
(11.8746 -0.282974 1.63818)
(9.94434 -0.00880052 0.00499994)
(10.0035 0.00410396 0.00583809)
(9.92833 -0.00910717 0.00748292)
(9.95325 -0.00517267 -0.0014997)
(9.85113 0.088634 -0.0211992)
(9.74377 0.00160802 0.00849361)
(10.4297 -0.63269 0.134832)
(10.01 0.00149567 -0.00690928)
(9.74136 0.00955031 0.00301249)
(9.9987 0.0239789 -0.000738778)
(10.2338 0.0626834 -0.0161053)
(10.134 0.0174595 0.0119149)
(11.7697 0.104129 0.813038)
(10.194 -0.504852 -0.105017)
(10.0206 0.00647974 -0.0248222)
(11.8517 0.117564 0.647601)
(10.0118 -0.00262078 -0.0101853)
(10.2618 0.0741794 -0.0198761)
(10.2036 0.0599671 -0.00490162)
(12.1086 0.267566 1.21553)
(11.5804 0.261476 1.44338)
(10.1583 -0.160882 -0.0160726)
(11.9634 -0.0306058 1.58078)
(10.0666 0.00575585 0.0116462)
(12.0341 0.127839 1.41084)
(6.69465 3.37775 2.26727)
(11.5473 0.146518 1.52565)
(5.90387 1.27931 -5.18977)
(4.66553 -5.43903 1.5424)
(10.195 0.15362 -0.00180895)
(3.9654 -5.37847 0.855662)
(9.87914 -0.00531109 0.0145225)
(9.99256 0.00576227 0.00827673)
(11.2895 -0.152146 0.0474542)
(9.89511 -0.0030704 0.0208043)
(9.97781 -0.011403 -0.0133931)
(9.83988 -0.172185 0.00874033)
(10.9419 -0.576751 -0.0501069)
(1.40503 1.74622 -3.592)
(9.24102 0.795772 0.0254496)
(10.003 -0.00157401 -0.00210528)
(10.0024 -0.00186252 -0.0130204)
(10.016 -0.013527 -0.016394)
(10.2927 0.361486 0.442695)
(11.7903 0.774262 0.224978)
(10.2089 -0.680363 0.135169)
(10.0411 -0.145179 0.0226424)
(11.845 -0.128075 0.209297)
(10.073 0.154389 0.0214428)
(10.068 0.0221288 0.0236617)
(9.96605 -0.00771996 -0.00215503)
(10.0285 -0.0166363 -0.0110037)
(10.6119 4.07835 -0.449869)
(6.1987 1.80765 -0.14835)
(1.49808 1.1849 -6.26706)
(10.0038 0.00629201 -0.0144935)
(10.0764 -0.0492278 0.0171771)
(10.0624 -0.631205 -0.0240996)
(10.1668 -0.521794 -0.160468)
(1.24684 -0.721864 -5.85978)
(9.98581 -0.00595207 -0.0223211)
(9.95976 -0.00880949 -0.0282772)
(10.8682 2.44152 1.08178)
(10.1859 -0.135244 0.018177)
(9.86508 0.00164204 0.00519865)
(9.81727 -0.00554118 0.0164655)
(9.91575 -0.000721337 0.0172444)
(12.7537 2.25907 -0.876931)
(11.2199 2.13949 0.974465)
(10.0013 0.178697 0.00335304)
(10.1139 0.146765 -0.0154553)
(10.0156 -0.003873 -0.00865149)
(10.2345 -0.0280961 0.0114074)
(10.0481 0.00538076 -0.00231843)
(10.0897 0.250544 -0.00968225)
(10.1049 0.0506519 0.0043378)
(10.0465 -0.00605552 -0.0116008)
(9.99666 -0.00800513 0.00559781)
(11.3913 -0.0350475 0.269855)
(10.019 -0.107283 0.0115209)
(10.5776 -0.736497 -1.36561)
(9.98992 0.0241342 -0.00969803)
(9.96635 -0.00737196 0.00769445)
(10.0106 0.017124 0.0280094)
(10.0289 0.33806 0.000150341)
(9.96258 0.113618 0.00508393)
(10.0451 0.00597615 0.0173946)
(10.0134 -0.00509961 -0.0160817)
(9.99816 0.253133 -0.0257716)
(10.0101 0.285119 -0.0216202)
(10.1067 0.0697165 0.00514085)
(9.93421 0.281349 -0.0215912)
(10.034 -0.021225 0.00221961)
(10.0216 0.0104588 -0.00386259)
(10.0269 0.00716447 0.0185192)
(9.65504 0.438455 -0.185773)
(9.96219 -0.00495543 -0.00826873)
(9.97957 -0.0214216 -0.00410769)
(9.98593 0.236312 -0.0268663)
(10.421 -0.453275 -0.0536432)
(10.102 0.245938 -0.0028265)
(9.94013 0.21648 -0.0148723)
(9.99043 0.186964 -0.0281467)
(11.1957 -1.32125 -0.149827)
(9.94447 0.00771316 0.00613215)
(9.21218 0.238877 0.0869386)
(9.96562 0.154055 -0.0181229)
(9.99621 0.0216762 -0.0075462)
(9.55739 0.304997 1.99313)
(11.4649 -0.198195 -0.515073)
(10.0743 -0.0136135 -0.00156093)
(9.95776 -0.00744035 -0.0103765)
(10.3552 -0.417469 0.0236653)
(10.6324 0.495157 -0.041489)
(9.81707 -0.00224213 -0.0112285)
(10.0113 -0.00639758 -0.00797406)
(10.0308 -0.1449 0.0188154)
(10.2551 0.726797 -0.105829)
(9.85174 -0.0110092 -0.0119276)
(-0.96617 -1.26425 -0.186552)
(10.6747 -0.0904483 0.0298732)
(10.0828 0.962362 -0.0788012)
(9.97931 -0.00161675 0.00744686)
(10.0772 0.848802 -0.0528804)
(10.7245 -0.131588 -0.977738)
(10.0119 -0.00673636 -0.00170936)
(10.0034 0.00574988 0.00411987)
(9.78624 -0.0105991 -0.0621066)
(10.0115 0.00304723 0.00455592)
(10.0842 0.858364 -0.107848)
(10.1176 -0.0742786 -0.0209043)
(10.0065 0.023988 0.00616309)
(9.93777 -0.0133191 0.00580865)
(10.0029 0.0182073 0.00608224)
(10.0192 -0.0103991 0.0100531)
(10.2214 0.182215 0.0106974)
(10.0016 0.00686797 0.00857893)
(9.98083 0.0209932 0.00786976)
(10.5328 0.89898 -0.336052)
(10.3501 1.10565 -0.383069)
(9.95756 -0.000111957 0.00725187)
(10.5031 -0.496058 0.0470776)
(9.96663 -0.0206684 0.0210966)
(10.4609 0.842654 -0.295452)
(9.9688 -0.0675559 0.013829)
(9.958 0.00939772 0.00435831)
(12.2364 0.335533 -0.555714)
(10.0217 0.00897777 -0.0189017)
(10.5729 -0.348763 1.4141)
(10.0449 -0.00526174 -0.00718603)
(10.2724 1.08791 -2.66734)
(9.96667 -0.00361959 -0.0169879)
(10.656 0.12147 0.0145926)
(9.97018 -0.00514642 -0.0203037)
(10.0202 0.0251355 -0.0166346)
(9.8356 0.0126939 0.00665103)
(10.0349 0.00691081 0.0153138)
(9.98353 0.00453032 -0.0119217)
(10.3476 0.986635 -0.293337)
(1.42298 -1.90698 1.20975)
(2.04056 -0.646102 -2.60144)
(10.0708 0.0592659 0.0146747)
(10.3597 1.50175 -0.91395)
(10.7199 0.740869 -0.324134)
(10.8182 0.698611 -0.315454)
(9.99701 -0.030523 0.0236943)
(9.97785 0.0123924 0.000211999)
(9.97775 0.0213697 0.0130348)
(9.9124 -0.00508051 -0.00983761)
(9.95707 -0.00041465 0.00264492)
(10.1356 -0.21507 -0.00513087)
(10.8222 0.63377 -0.217522)
(9.96582 -0.0240072 0.00607926)
(10.0361 0.00236274 0.00954127)
(11.4326 -1.21583 0.251823)
(11.516 0.518469 -0.204892)
(11.1395 0.568123 -0.171585)
(8.1335 -1.31809 -5.14431)
(-0.0409443 4.20569 0.67893)
(10.5902 -0.302504 0.0567145)
(7.4769 -0.968638 -5.68578)
(-0.100031 3.9808 0.99012)
(9.83131 -0.182453 0.0053011)
(-0.154739 4.12583 0.859637)
(9.11857 -1.05286 1.2391)
(10.0182 -0.041174 0.0067099)
(11.0592 0.647757 -0.333605)
(11.0074 0.703638 -0.361425)
(11.2952 0.613226 -0.32278)
(-1.16497 3.19551 1.17084)
(10.147 0.11788 0.00628377)
(10.0114 0.0151848 -0.00696447)
(10.0023 0.00291131 -0.0165065)
(11.3693 0.652042 -0.427156)
(11.2426 0.691545 -0.492337)
(10.074 0.0115483 0.022906)
(10.089 0.112015 0.0170894)
(9.82909 3.48393 2.54091)
(-1.05769 3.18585 1.17476)
(12.998 -0.467926 -3.0899)
(10.0064 -0.013987 0.00825545)
(8.81393 -0.741968 -3.33319)
(10.1171 0.252984 1.21159)
(9.99275 -0.0476386 -0.00338816)
(10.9769 0.448845 -0.0508437)
(12.0178 0.266091 0.283221)
(10.9627 0.360583 -0.0400329)
(9.99495 -0.0171141 0.00496147)
(9.99887 -0.00488147 0.00724393)
(9.98269 -0.00670929 0.000779284)
(10.4634 0.386275 0.00335743)
(9.99958 0.00173816 -0.000377781)
(9.99863 -0.0317872 0.0276058)
(10.1582 0.0807097 -0.0279203)
(9.9692 -0.00230221 -0.00859247)
(11.1256 0.218206 -0.05688)
(10.023 0.00213542 -0.0136978)
(9.98546 0.0483044 0.0158785)
(9.9965 -0.0187053 0.00156449)
(10.0061 -0.00736805 0.0089656)
(9.95786 0.00572652 0.00632582)
(10.3941 0.327729 -0.00747229)
(10.1248 0.0563235 0.00789492)
(10.0739 0.00515269 0.0339506)
(11.0481 0.232225 -0.0541498)
(9.05847 4.04456 2.06702)
(9.97098 0.00192622 0.000667595)
(11.9968 1.54316 -1.43405)
(9.99736 -0.00858792 -0.00219685)
(10.9185 -0.120443 -0.0470633)
(6.72233 -0.951552 2.1578)
(9.76618 1.42625 -0.616093)
(9.99619 0.0380252 -0.0157052)
(9.83851 1.50691 -0.688873)
(10.0081 0.0260205 0.0049048)
(10.0417 -0.00543644 0.00143384)
(10.0739 1.28829 -0.914368)
(9.97862 0.000594511 0.00956247)
(10.7269 -0.196047 0.0373451)
(9.94977 1.18392 -0.63964)
(10.2713 -0.0659161 0.0358584)
(10.619 0.0629262 -0.27315)
(8.23651 0.284924 -4.20303)
(10.0626 -0.034882 0.00661398)
(9.63414 1.89843 -0.637499)
(10.0517 -0.00462686 0.0170649)
(9.04071 2.03258 -1.05584)
(10.0955 -0.10458 0.0264536)
(10.0129 -0.0169943 0.00576928)
(10.0043 0.018991 0.00130053)
(9.99102 0.0136366 0.000315967)
(10.7906 1.05608 0.86439)
(9.96383 0.00876899 0.00109384)
(9.9951 0.0177034 -0.00535818)
(10.0352 -0.032492 0.00635897)
(9.96896 0.0641651 0.025737)
(11.1608 0.632248 -0.00465517)
(10.0382 0.0152228 -0.00249465)
(10.0271 0.0213367 0.000101253)
(8.63891 0.282014 -0.619323)
(9.96331 -0.00765249 0.0201341)
(9.85985 0.108155 0.0120584)
(10.0799 -0.146835 0.0399248)
(10.0664 0.0156756 -0.00619265)
(10.0846 0.0141348 0.0146411)
(9.96402 0.0270313 0.00886141)
(10.1093 0.0363731 0.00416174)
(10.3525 1.3278 -1.06416)
(10.0039 0.00973328 0.00707862)
(9.98894 0.00468165 0.00275864)
(3.02199 -0.503509 -5.87491)
(10.0184 -0.00627712 0.0114797)
(10.0329 -0.00551624 0.00457511)
(10.0054 0.130658 -0.0318003)
(10.0048 0.0109863 0.00700521)
(12.6547 1.32158 -0.676797)
(12.7675 0.998699 -0.421487)
(9.96242 -0.0132098 -0.00258834)
(9.94355 -0.104553 0.015633)
(9.89612 0.00238651 0.0173813)
(11.4007 0.0277339 1.27352)
(10.0501 0.0625261 -0.0205057)
(12.7561 1.27567 -0.567953)
(9.99971 0.00642374 -0.0036762)
(-1.40543 -0.740727 1.95011)
(8.1732 -0.55154 -0.717372)
(9.17613 -0.902731 1.82855)
(10.0236 0.00723291 0.0139866)
(12.6953 1.20608 -0.506067)
(10.0604 0.0340396 -0.0177326)
(10.1117 0.115113 0.0193384)
(10.0105 0.00825879 -0.0536862)
(9.72658 0.101358 0.154899)
(10.0269 -0.00135381 0.00710974)
(10.0208 0.036344 -0.0143673)
(6.59212 -1.22892 -0.494623)
(10.0017 0.00167532 -0.0227593)
(9.95189 0.00718936 0.00552065)
(10.003 0.00550029 0.0198228)
(12.5419 1.42133 -0.610071)
(10.0536 0.0194041 0.0145461)
(10.0262 -0.00904461 -6.77843e-05)
(12.3758 1.38228 -0.658049)
(12.2948 0.829725 -0.235798)
(10.0214 -0.00817716 0.0145324)
(10.0225 -0.00986304 -0.000942187)
(-0.210966 2.01689 0.624989)
(10.0475 0.00275691 0.00149855)
(10.669 -0.358584 0.157111)
(9.9954 0.00100834 -0.00322373)
(10.061 0.0122831 0.0412291)
(10.0405 -0.0141259 0.00476331)
(11.9401 0.957288 -0.355565)
(11.2474 0.137553 1.44149)
(9.25213 0.711905 0.802786)
(9.92512 0.0891622 0.142186)
(10.0327 -0.0591123 0.0168228)
(10.0164 0.00675114 -0.0177577)
(12.641 -0.473444 0.122565)
(9.3098 0.214775 -0.429408)
(9.77244 0.0648229 -0.0237291)
(-0.0945224 1.81083 0.407683)
(10.0237 -0.0288801 -0.01411)
(10.0303 0.0132067 -0.0101546)
(-0.52255 1.71226 0.618914)
(12.1256 1.79524 -1.18892)
(9.88427 0.0810839 0.010515)
(0.0367827 1.93066 0.424917)
(0.0186713 1.96674 0.606568)
(10.0005 0.0222973 -0.00937916)
(9.99862 0.012717 0.00220885)
(10.032 0.00660899 -0.00784096)
(9.61605 -0.366907 0.0109434)
(9.99841 0.00587158 -0.00534485)
(9.97806 -0.00954039 -0.00522335)
(10.9153 0.424845 -0.134565)
(10.0019 0.260634 0.0227606)
(9.94124 0.0293951 -0.00106572)
(10.0502 0.00844819 0.0255303)
(12.6053 1.09805 -0.250932)
(11.8543 1.25138 -0.356914)
(9.97016 0.0101214 0.000247362)
(10.4428 0.378654 -0.032188)
(-4.17103 -2.58246 -0.238178)
(-1.55234 -2.80441 0.863975)
(10.807 0.402215 -0.131525)
(9.94842 0.000274833 0.00954718)
(10.2928 -0.0972354 0.114925)
(10.9853 -0.112978 -0.758632)
(9.86961 -0.00136968 0.0029134)
(9.86722 -0.000725328 0.00564097)
(10.049 -0.0235558 0.0169602)
(10.3381 0.140426 -0.00313108)
(9.97956 -0.0130797 0.00695748)
(10.7916 0.239669 0.303749)
(10.0007 0.00151851 0.00193774)
(13.0354 0.816387 -0.620405)
(10.3327 1.51369 -1.15904)
(10.7195 0.383141 -0.067919)
(13.063 1.00397 -0.95506)
(10.0817 0.0445778 -0.00532841)
(9.99535 0.00548974 0.0084591)
(10.4423 0.760669 0.145389)
(10.171 -0.109022 0.0271407)
(10.0155 0.0100614 0.00448534)
(10.0046 0.00701805 -0.0033043)
(11.1075 0.64384 -0.535533)
(7.96342 -0.785109 -1.497)
(10.0187 -0.00668376 -0.00605846)
(10.9166 0.149509 0.0155669)
(9.9794 0.170061 0.0271346)
(11.5973 -5.33404 -2.28815)
(10.482 -0.87642 0.884359)
(11.6496 -0.0381497 0.947875)
(6.4884 0.620503 0.298558)
(6.26359 0.585241 0.142027)
(10.0608 0.0136569 0.00608711)
(9.89412 0.216796 -0.0271259)
(4.72456 0.470876 -0.189875)
(9.99987 0.0151243 -0.000638408)
(10.0332 -1.74528 -3.5427)
(7.47361 0.470501 2.09946)
(9.98441 0.00124834 -0.0023209)
(10.0041 0.906137 0.521977)
(10.0132 -0.00793164 -0.00250641)
(10.0302 -0.000478743 0.0169314)
(10.0181 0.000828345 -0.00070504)
(13.2755 0.46939 -0.114451)
(9.97678 0.0109032 -0.00381657)
(9.98482 0.00498471 -0.00077682)
(10.0436 -0.0256672 0.000148608)
(9.84628 0.00117783 -0.0265458)
(10.0378 -0.0173733 0.0235131)
(10.0137 -0.00486826 -0.00557598)
(10.0462 0.0142163 0.0199295)
(9.92494 -0.0275412 -0.000143856)
(11.0838 1.10253 0.690011)
(9.61249 -0.358775 -2.78902)
(12.6824 3.59118 1.66836)
(10.7864 0.495804 0.026931)
(9.69339 1.465 1.34305)
(10.0322 0.0155669 0.00131671)
(9.33041 -0.995742 0.0682377)
(9.98217 0.0149432 0.002777)
(10.0005 0.00126994 -0.00979114)
(10.0029 0.00347967 -0.00791981)
(9.99954 0.00114965 -0.00693304)
(9.98538 0.0190847 -0.00347187)
(9.18159 0.395021 -0.895076)
(11.2456 0.711924 0.225401)
(9.98619 0.0144308 -0.00514193)
(10.2156 -0.554647 0.0920786)
(11.3607 1.58814 1.982)
(10.0028 0.022182 0.00124115)
(3.13814 0.4002 1.40405)
(13.2473 -0.993402 -2.99753)
(9.9656 0.00140443 -0.00745693)
(9.34269 -0.579783 0.0187674)
(10.4342 0.0266314 0.0299865)
(10.0213 -0.00161076 -0.0162289)
(3.70139 1.16427 1.07432)
(10.0085 -0.00693372 -0.00522016)
(7.03818 -2.59905 0.44624)
(9.9892 -0.00149986 -0.00286133)
(11.639 -0.0883867 1.15159)
(12.0623 0.419652 0.00224062)
(9.96856 -0.0253858 -3.58116e-05)
(9.94259 -0.00813268 -0.010704)
(10.1797 0.582394 0.0490497)
(8.62563 -0.624904 -2.32744)
(9.93695 -0.00867354 0.0110039)
(10.0288 0.0144905 0.011301)
(10.2779 -0.00108278 0.0107833)
(12.1064 -0.0754359 0.783979)
(10.0022 0.00441892 0.00258795)
(12.3014 0.370392 0.295605)
(10.4227 -0.0192707 0.0107463)
(0.729921 -0.632655 0.0845862)
(12.0068 0.346433 0.111032)
(10.3547 -0.0123759 0.0109739)
(12.125 0.357613 0.226916)
(10.0011 -0.00445499 -0.00324277)
(10.1166 -0.117769 -0.00799248)
(10.5311 0.400387 0.0232733)
(10.3911 -0.0497293 0.00054225)
(12.3169 0.442812 0.118239)
(9.99799 -0.021195 0.000179807)
(10.0661 -0.219557 -0.00587315)
(12.1583 0.415959 0.0655797)
(9.97571 -0.029439 -0.000852492)
(10.4326 -0.0558236 0.00629545)
(9.99629 -0.00275182 -0.00814331)
(10.0235 -0.00819507 0.00337941)
(6.90544 0.350728 -5.23133)
(6.72735 -0.151997 -5.8305)
(9.70887 0.0900501 0.372257)
(8.84972 0.340114 -4.26309)
(10.0017 -0.00685331 -0.0112202)
(9.97778 -0.00150869 -0.00352883)
(10.8245 0.651965 -0.254664)
(10.4133 -0.162941 0.0258667)
(8.08996 0.139026 0.348547)
(10.0212 -0.0284556 -0.0137528)
(10.0532 0.0287406 -0.0108912)
(9.97817 -0.0236919 -0.00340063)
(10.0052 0.0376575 -0.00182077)
(5.29101 0.228212 -6.49696)
(3.31863 -0.603498 1.51625)
(9.96697 -0.0218112 -0.00249244)
(10.0168 0.0431815 -0.00491022)
(9.99457 -0.0630497 -0.0165676)
(9.92837 -0.00960096 0.0048543)
(10.1522 -0.141837 0.0382571)
(9.95904 -0.0251708 -0.00256691)
(11.2371 -0.0600246 -0.00717592)
(11.7849 -1.35609 1.525)
(10.1069 0.00930062 0.0105583)
(10.044 0.028547 -0.022904)
(9.99902 -0.0303946 -0.0130016)
(10.0124 0.0324296 0.000769336)
(9.72259 0.21604 0.0308594)
(10.0161 -0.0277588 -0.0159822)
(10.6605 -0.187239 -0.00629615)
(9.95856 -0.0169373 -0.0108778)
(10.0123 0.0176663 -0.0168513)
(10.0649 0.0360257 -0.00374345)
(9.2685 -0.881643 -1.29074)
(5.17709 0.701688 -4.9017)
(10.049 -0.0691504 -0.00928838)
(-0.108813 -2.01408 0.441813)
(10.098 -2.61145 1.00943)
(13.1855 -1.24447 -1.12688)
(-0.106542 -2.13358 0.3673)
(10.3193 0.0503191 0.0205306)
(5.39887 -0.282574 1.58481)
(10.5351 -0.495627 -2.63233)
(10.9562 -1.55995 0.401193)
(5.70398 0.306557 -3.86481)
(-0.310143 1.84184 1.05602)
(1.51653 0.634573 -3.6816)
(11.3626 -0.0454559 0.610387)
(10.7446 -0.0175669 -0.0586641)
(11.1269 -0.00381303 1.31622)
(9.91729 0.00665418 0.00623623)
(3.73372 -0.224152 -0.383365)
(10.8267 0.0324188 -0.340258)
(10.6724 -0.0227235 0.0152908)
(9.98862 -0.0368954 0.0244034)
(10.0131 0.0218904 -0.0408853)
(11.4198 0.0162756 1.20332)
(9.97076 0.118764 0.0575576)
(10.1708 -0.0392019 0.016878)
(9.9557 0.0384901 -0.00594177)
(-0.879078 1.13134 0.280847)
(8.11937 0.253254 -2.55109)
(10.015 -0.0064 0.00696371)
(9.98436 -0.00480045 0.00437684)
(5.04652 0.287948 -2.48666)
(5.94422 0.142737 -3.14525)
(10.8695 -0.945623 -1.42782)
(-2.70864 -2.99804 -1.05148)
(4.502 0.276616 1.96792)
(4.0651 -0.00888783 -3.98427)
(3.79572 -0.0702963 -4.846)
(10.0055 -0.00399833 0.0100849)
(9.79357 0.00374438 0.00739422)
(9.46461 -0.0311444 0.0498808)
(10.0113 -0.0104669 -0.00262234)
(10.4147 0.0418374 -0.0269493)
(-0.370225 1.99551 0.572949)
(10.9616 -0.0668121 -0.259499)
(10.4689 0.036381 -0.0314617)
(10.3419 0.0401373 -0.0170745)
(10.052 0.0245441 -0.00241026)
(-0.313588 1.9405 1.27943)
(-0.501239 2.11364 1.23818)
(10.0495 0.0167389 -0.0206898)
(10.4273 0.00393112 -0.0421993)
(9.93109 0.0241357 0.00455841)
(10.0214 0.00920917 -0.0122249)
(10.3724 0.0189602 -0.0205338)
(10.0326 0.0133983 -0.0261402)
(9.70117 -0.00398024 -0.058633)
(10.0261 0.00675917 -0.0206633)
(10.0146 0.00175248 -0.0136338)
(6.9935 -0.729231 -3.21002)
(10.0428 0.00740966 0.00669518)
(10.0157 0.0156267 0.0219583)
(10.022 -0.0104413 -0.0159539)
(9.86502 0.011901 0.00111774)
(9.88329 0.0173093 0.00208325)
(4.27198 -0.533861 -2.5182)
(12.6255 -1.29615 -0.587282)
(10.0189 0.000117069 0.00917577)
(10.851 0.408779 -0.214238)
(10.0219 0.0348004 -0.0131832)
(9.70865 -0.342764 0.105357)
(9.6844 -0.427094 0.159291)
(12.1809 -0.0583364 -0.0561796)
(9.87774 0.000208905 -0.00395655)
(-0.175583 -1.07779 1.53337)
(12.2704 -0.143858 -0.0729507)
(10.4758 0.103561 0.0052907)
(10.8153 0.372343 -0.0361859)
(8.13195 0.288759 -3.49596)
(11.3166 2.98306 1.31801)
(9.98296 -0.0205096 -0.00746207)
(9.98404 -0.0212734 -0.00337879)
(11.6506 1.70407 2.10839)
(10.0112 -0.0250546 -0.0180723)
(9.9998 0.0320144 0.0046351)
(10.9427 0.709433 0.35227)
(9.97201 -0.0230493 -0.00480321)
(9.98338 -0.00312541 0.00162177)
(-2.50737 0.6362 2.015)
(12.5387 0.481544 -0.0807708)
(10.8985 3.4207 -0.337537)
(10.0022 0.000556641 0.00493688)
(7.7055 0.548613 -2.71826)
(9.99329 0.00594899 0.00105364)
(12.0159 -0.138606 -0.300482)
(9.52726 -0.417047 0.262497)
(12.2316 -0.0774489 -0.0322784)
(9.90492 0.0038039 0.00354208)
(9.33943 -0.452859 0.223828)
(-1.32951 -0.0956716 2.03217)
(11.6578 1.81578 2.58033)
(12.463 -0.396051 -0.863151)
(-0.794904 1.58129 1.23834)
(12.1886 0.300188 0.251685)
(10.4951 0.193081 0.0504888)
(9.94921 -0.0152594 0.0108531)
(12.1845 0.0139501 -0.236098)
(9.97559 0.0134309 0.00349532)
(12.3801 -0.0909386 0.128942)
(-0.145562 -1.26828 0.93219)
(9.98116 0.0161886 0.00370608)
(12.8428 0.0499965 -1.24154)
(9.91477 0.00111776 0.0144936)
(9.90096 -0.00262514 0.00710836)
(11.362 -1.53419 0.153851)
(9.92703 -0.00558168 0.00192778)
(10.1917 0.119237 -0.0140311)
(8.17236 -5.80417 0.0719249)
(9.53837 0.436372 0.0463689)
(9.98778 -0.243629 -0.0213491)
(12.6798 -0.697588 0.0660284)
(10.5498 1.47341 1.29103)
(10.0199 -0.0104526 0.0226156)
(11.8103 -2.59412 -0.928112)
(5.26096 -0.875671 -0.208468)
(10.7184 0.0334904 0.0190972)
(9.63218 -0.732591 -0.900097)
(10.0089 0.109439 0.0207769)
(10.5027 0.198986 0.0165975)
(9.96306 -0.0115452 0.00129238)
(9.98321 -0.0151754 -0.000275908)
(0.422587 1.41903 -0.362076)
(0.995074 -4.45487 1.8785)
(12.3136 -0.678297 0.206562)
(10.1691 -1.58788 -0.460242)
(12.3396 -1.17905 -0.370676)
(1.18309 4.58415 1.11148)
(-1.00379 0.614859 0.999818)
(9.42991 -3.61757 4.28249)
(9.98258 -0.011657 -0.00134733)
(10.0027 0.012031 -0.00893644)
(9.98957 0.0150247 -0.00339527)
(9.82561 -0.0459069 -0.0288573)
(3.69934 0.989554 -0.47377)
(9.63679 -0.550941 0.158319)
(8.99682 -0.666077 1.05121)
(9.98811 0.0211502 -0.00813323)
(-0.390891 -1.6437 0.222578)
(12.318 -0.0753891 -0.00597863)
(10.1998 0.19467 -0.282596)
(10.1039 0.0353892 0.0104243)
(10.0165 -0.026388 0.00944716)
(10.1001 0.0319202 0.010365)
(6.27772 -1.84786 -3.26739)
(10.0048 -0.00311468 -0.00686737)
(4.98684 4.84009 -0.239177)
(10.0266 0.0107278 -0.000617668)
(10.2754 -0.614361 -3.12358)
(9.98817 -0.0037217 -0.00289339)
(9.99903 -0.00606783 -0.00618144)
(10.0097 -0.00951402 -0.00671306)
(10.0155 -0.00998047 -0.0104103)
(9.9881 -0.0117197 0.00333114)
(12.7601 1.32073 0.379926)
(11.8673 0.293739 0.800299)
(8.96906 1.49188 2.424)
(7.04234 4.08401 2.42859)
(9.38676 1.20273 0.472022)
(10.4247 0.536626 -0.0568212)
(11.2236 1.16715 0.0321626)
(6.64109 -0.427002 -2.9792)
(10.6024 -0.141283 0.0412568)
(12.5027 -0.282958 0.0378511)
(10.5908 -0.7592 0.114323)
(12.0884 0.0324655 -0.0470546)
(8.14196 -0.17143 4.45501)
(5.59293 -1.65744 2.1543)
(10.6175 -0.2574 0.195313)
(9.99922 -0.00931167 0.00501695)
(9.56114 0.917859 -0.316936)
(10.0044 -0.00543622 0.00979916)
(10.1631 -0.014837 -0.00216663)
(13.1579 -2.40535 2.91398)
(12.3984 -0.448442 0.790888)
(-1.56568 3.28631 0.132297)
(10.1396 -0.930483 0.232935)
(11.8379 -1.02151 -0.465754)
(10.507 -1.07937 -1.17774)
(10.0954 -0.344243 1.64708)
(10.205 -0.0218837 0.00990712)
(-3.94119 -3.25455 1.29428)
(10.0312 -0.00432933 0.00494325)
(10.0949 -0.0111786 -0.000164928)
(10.5667 -0.142625 1.06415)
(9.67061 -0.105099 4.74226)
(10.2291 -0.0322669 0.0133662)
(10.2898 0.542495 -0.423463)
(9.99086 -0.005378 -0.000499552)
(10.5737 -1.35781 0.607051)
(10.72 0.0841438 1.30745)
(9.96309 -0.0082048 -0.00325144)
(11.1057 -0.415014 -3.09686)
(10.0135 1.41819 -2.09269)
(12.1862 0.430083 1.51862)
(10.8404 0.484185 -0.141645)
(9.51076 0.128807 0.280705)
(3.14078 0.967677 -3.85616)
(0.42376 3.48912 3.08857)
(5.28898 3.22598 0.722176)
(13.255 -0.829218 -2.85401)
(5.03171 -0.706179 -0.199539)
(9.79224 -0.00316956 -0.0341363)
(9.88591 -0.00584192 -0.0031905)
(8.34277 1.75421 2.74306)
(9.95994 -0.00743251 -0.0013448)
(4.5175 -0.798494 -0.289855)
(9.83577 -0.00499341 -0.0221406)
(9.81901 -0.01185 -0.0227099)
(-0.104928 -1.35109 0.95061)
(9.57195 -1.30307 0.831886)
(10.8897 -0.543134 0.128731)
(9.98258 0.00267147 -0.000955041)
(9.99844 0.018556 0.00102749)
(8.31997 0.318514 -2.88262)
(10.0218 0.015219 0.0173733)
(9.95599 -6.35526e-05 -0.00117306)
(9.97433 0.990021 0.950514)
(12.4358 -0.72368 -2.93676)
(10.2328 0.362252 0.0239245)
(9.89723 0.0569402 0.00403678)