/*--------------------------------*- C++ -*----------------------------------*\
| =========                 |                                                 |
| \\      /  F ield         | OpenFOAM: The Open Source CFD Toolbox           |
|  \\    /   O peration     | Version:  2506                                  |
|   \\  /    A nd           | Website:  www.openfoam.com                      |
|    \\/     M anipulation  |                                                 |
\*---------------------------------------------------------------------------*/
FoamFile
{
    version     2.0;
    format      ascii;
    arch        "LSB;label=32;scalar=64";
    class       volScalarField;
    location    "0.020811";
    object      nut;
}
// * * * * * * * * * * * * * * * * * * * * * * * * * * * * * * * * * * * * * //

dimensions      [0 2 -1 0 0 0 0];

internalField   nonuniform List<scalar> 
47425
(
0.00665135
0.00546131
0.00546432
0.00214817
0.003792
0.00508389
0.00520036
0.00350497
0.00743318
0.00172027
0.00258532
0.00738335
0.00631989
0.00484973
0.00418632
0.00395489
0.00568093
0.00284608
0.000287173
0.00314397
0.00425124
0.00751425
0.00349533
0.00577138
0.00739274
0.00751161
0.00498272
0.00049136
0.00548304
0.00661992
0.00753546
0.00737972
0.00742843
0.00585548
0.00693939
0.00545139
0.0075078
0.00539362
0.00563298
0.00485551
0.0051925
0.00686447
0.00641793
0.00261651
0.000783715
0.00352899
0.00382765
0.0045675
0.00468088
0.00727423
0.000617673
0.002633
0.00722535
0.000986989
0.00336306
0.00304717
0.00752322
0.0065226
0.00211237
0.00588716
0.000856342
0.000606044
0.00101128
0.00404529
0.00737789
0.007374
0.00563241
0.00603759
0.00108064
0.0051905
0.00479666
0.00720743
0.00719811
0.0042244
0.00121209
0.00745181
0.00104111
0.00456374
0.000225099
0.00235898
0.00116812
0.00588168
0.00746811
0.00721432
0.00743473
0.00444479
0.00682947
0.00716143
0.00505513
0.00131429
0.00749
0.00465768
0.00749893
0.0033114
0.00263259
0.00193901
0.00710539
0.00719745
0.00440221
0.00472175
0.00577382
0.0011166
0.00704559
0.0010349
0.00725448
0.00674437
0.0074301
0.00408087
0.00751273
0.00747414
0.00214088
0.00586705
0.00645171
0.00239667
0.00698462
0.000329782
0.00707487
0.000754801
0.00461038
0.00648839
0.00476557
0.00746793
0.00610731
0.00359382
0.0037593
0.00656344
0.00445607
0.00742776
0.00351525
0.00747872
0.00747572
0.00365956
0.00105241
0.00304414
0.00713597
0.00649861
0.0071601
0.00639203
0.00531944
0.00365184
0.00509611
0.00287114
0.00504643
0.00604241
0.00682633
0.00742392
0.0049052
0.00567343
0.00246464
0.00508707
0.0061731
0.000525902
0.00736344
0.000406747
0.00398994
0.00433196
0.0036391
0.000287344
0.00403242
0.00492167
0.00706315
0.00753269
0.00720843
0.00734257
0.0012093
0.000513093
0.00747737
0.00121543
0.00344376
0.000865981
0.00122433
0.00428786
0.00484166
0.00490766
0.00512493
0.00141126
0.000363199
0.00561546
0.00683818
0.00748314
0.000303267
0.00742985
0.00636176
0.00744698
0.00733686
0.00678067
0.0065293
0.00121894
0.00254771
0.00682808
0.00747243
0.00571909
0.00425294
0.00474836
0.00734421
0.00716007
0.00583274
0.00499791
0.00717478
0.00471113
0.00551293
0.00304749
0.00749594
0.00713973
0.00320802
0.0023916
0.00706034
0.00714901
0.0041843
0.00745801
0.0057808
0.00592159
0.00743036
0.00424911
0.00597982
0.00617693
0.00559395
0.00202911
0.00409205
0.00398386
0.0021299
0.00355004
0.00670318
0.0040974
0.00239836
0.00173123
0.0073214
0.00294289
0.00701102
0.00521949
0.00589112
0.00498841
0.00352841
0.00749278
0.00228865
0.00382382
0.00201108
0.00317482
0.00231776
0.00206445
0.00447681
0.00685209
0.00751536
0.00367975
0.00744119
0.00721604
0.0056924
0.00582275
0.00748747
0.00509531
0.00755074
0.00241734
0.00572106
0.00742159
0.00402807
0.00751299
0.00749554
0.00314394
0.00386212
0.00734482
0.00316965
0.00745439
0.00510085
0.00279792
0.00625426
0.00367924
0.007465
0.00603883
0.00618208
0.00458548
0.00488375
0.00255521
0.00200662
0.00719662
0.0027189
0.00213555
0.00269877
0.000543469
0.00208051
0.000669124
0.00088661
0.00684656
0.000879247
0.0030618
0.00469169
0.00449696
0.00355097
0.00415863
0.0030056
0.00691887
0.000708922
0.00668377
0.00737569
0.00654996
0.00582646
0.00362864
0.00329318
0.00740119
0.00560826
0.00454883
0.00411607
0.00738387
0.00408014
0.00641898
0.000917053
0.000811721
0.000523726
0.00750464
0.00727977
0.00752556
0.00346611
0.000748756
0.00425213
0.00306368
0.00156692
0.00491766
0.00352487
0.00313915
0.00418629
0.00191077
0.00177077
0.00754801
0.0061287
0.00740125
0.00440348
0.00749163
0.00486607
0.00626488
0.0069693
0.0052089
0.0051444
0.00110052
0.00515781
0.00486381
0.00300681
0.00759841
0.00117669
0.00701598
0.00731806
0.00693428
0.00749632
0.00744867
0.00747013
0.00690274
0.00717524
0.00689349
0.00645332
0.00729183
0.00475739
0.00431294
0.00738694
0.00733029
0.00582042
0.00722025
0.00723388
0.00315234
0.00486837
0.00754902
0.007113
0.00387118
0.00190606
0.00653879
0.00452259
0.00410489
0.00736401
0.00710877
0.00288772
0.00736982
0.00539112
0.00745637
0.00289174
0.000688717
0.00472907
0.00751981
0.00192717
0.00749887
0.00693626
0.00401528
0.00504011
0.00750488
0.00560614
0.007454
0.0074953
0.0048183
0.00422022
0.00439347
0.0043197
0.00697009
0.00713634
0.00437068
0.00723554
0.00738661
0.00457435
0.00652792
0.00574008
0.00720582
0.00595703
0.00398674
0.00211178
0.00731724
0.000804277
0.00740254
0.00245567
0.00503965
0.00359537
0.00360679
0.00725152
0.00256417
0.00736528
0.00385473
0.00737045
0.000998864
0.000943326
0.0074244
0.00368484
0.00464924
0.00436614
0.00456985
0.00473346
0.00500835
0.00410964
0.00534843
0.00745699
0.00348241
0.00547386
0.00716515
0.00341344
0.00532086
0.00696739
0.00100338
0.000339093
0.00721793
0.000508888
0.000408025
0.00411944
0.000456179
0.000637107
0.00706634
0.00484805
0.00519609
0.00515224
0.00107607
0.00409749
0.00712149
0.00693794
0.00551233
0.00536282
0.00441021
0.00449232
0.000888708
0.000793222
0.00144952
0.00542005
0.00124608
0.00505443
0.00674519
0.00732699
0.00655998
0.00731228
0.00425875
0.00479544
0.00285079
0.00533784
0.00749072
0.00474284
0.00632661
0.00458665
0.00722267
0.00596528
0.00555345
0.00526777
0.0056273
0.00345521
0.00298351
0.00618162
0.00435789
0.00723671
0.00105769
0.00288082
0.00246388
0.00736997
0.00273688
0.00287222
0.00383905
0.00747877
0.00488608
0.00716796
0.00547201
0.0036183
0.00350412
0.00495559
0.00394919
0.00681672
0.00247919
0.000944244
0.00740276
0.00192642
0.00644179
0.00189946
0.00720414
0.00695703
0.00746819
0.00535506
0.00675661
0.00325468
0.00609985
0.00734715
0.00750662
0.00725335
0.00487286
0.00283443
0.00475949
0.00752076
0.00635685
0.00683924
0.00680639
0.00632575
0.0051384
0.00525517
0.00323764
0.0047367
0.00373949
0.000669154
0.00596135
0.00528126
0.00666847
0.00741682
0.00180394
0.00164591
0.00471501
0.00699023
0.00454726
0.00528671
0.00723156
0.00173299
0.00749994
0.00252407
0.00264205
0.00310409
0.00628467
0.00291567
0.00755148
0.0051112
0.00526233
0.00742575
0.00752491
0.00710735
0.000848184
0.00609276
0.00258606
0.0074249
0.00176711
0.00724006
0.00637194
0.00246692
0.00266318
0.00516709
0.00749021
0.000640483
0.00682105
0.00647107
0.00695177
0.00705687
0.00743333
0.00267789
0.00356658
0.00736991
0.00693188
0.00537866
0.0074876
0.00157067
0.00742659
0.00590234
0.000513374
0.00502722
0.00747981
0.000646516
0.0014066
0.00751651
0.000223892
0.000271556
0.00518025
0.00733311
0.00701493
0.00755471
0.00444864
0.00408105
0.00163927
0.00755056
0.00288458
0.0069196
0.00204552
0.00248332
0.00443055
0.00535079
0.00157156
0.00288129
0.00705043
0.00400938
0.00439598
0.00343833
0.00306388
0.00308411
0.00712968
0.00392673
0.00286584
0.00495569
0.00549502
0.00336124
0.00425329
0.00725882
0.00278782
0.00392235
0.00488645
0.00297958
0.0035359
0.00582298
0.00493649
0.00668775
0.00205094
0.00519203
0.00710369
0.00735071
0.000293139
0.00459552
0.00602373
0.000523198
0.000749778
0.00751981
0.00485433
0.000207029
0.00216208
0.000936795
0.00217344
0.00316554
0.000568909
0.00645312
0.00725423
0.0058912
0.00336291
0.00338458
0.00334671
0.00740086
0.00323688
0.00570415
0.0046025
0.00698764
0.00447804
0.00480735
0.00226442
0.00057148
0.00309798
0.00339681
0.00425799
0.00756694
0.00349433
0.00722297
0.00595143
0.0056338
0.00538966
0.00747379
0.00207723
0.00473359
0.00736125
0.00173525
0.00202642
0.000930801
0.00146232
0.00414359
0.00755518
0.00492487
0.00746078
0.000931205
0.00517843
0.000901068
0.00441928
0.00498331
0.00666561
0.00512918
0.00592031
0.00449082
0.00237114
0.00422008
0.00694261
0.00193004
0.00522718
0.0074872
0.00517023
0.00408823
0.000772752
0.00668685
0.00189348
0.0045315
0.0074792
0.00742641
0.00264497
0.00462265
0.0048901
0.00732604
0.00556647
0.00515614
0.00483521
0.00451955
0.00458891
0.00570086
0.00107953
0.000674515
0.00516581
0.000914918
0.00556319
0.00320072
0.0038665
0.00734697
0.00678153
0.00643987
0.00499424
0.00456222
0.00749591
0.000592506
0.00157315
0.00370767
0.00540786
0.00734168
0.00400102
0.00705529
0.00259589
0.0071209
0.00118055
0.00427505
0.00742008
0.00466506
0.00724948
0.00609879
0.00521589
0.00721837
0.00400447
0.00743661
0.00734149
0.00482578
0.000973757
0.00755341
0.000555638
0.00204642
0.00245353
0.000473387
0.00446329
0.00407929
0.00262273
0.00460656
0.000871471
0.000449411
0.000831998
0.00439217
0.00629071
0.0047536
0.00312336
0.000955239
0.00277105
0.00397753
0.00680442
0.00534348
0.00540604
0.00325728
0.00634582
0.0044609
0.00130912
0.00235487
0.00552983
0.00246894
0.00122526
0.000792403
0.00522166
0.000350025
0.00143101
0.000665304
0.000818599
0.00452041
0.00311855
0.00746196
0.00729675
0.00500463
0.00042817
0.00183943
0.00497612
0.00498597
0.0075113
0.000876078
0.000466912
0.00754225
0.00231494
0.00397231
0.00749676
0.00227956
0.00751471
0.0075474
0.00505892
0.00506558
0.00166594
0.00712518
0.00756819
0.00627715
0.00538239
0.00536604
0.00116817
0.00175189
0.00749826
0.00149608
0.00720304
0.00749743
0.00741237
0.00187071
0.00467959
0.00248214
0.00316862
0.00681043
0.0073905
0.00150025
0.000785349
0.00495567
0.0042734
0.00173454
0.00565492
0.00562209
0.00319909
0.00297
0.00295509
0.00206572
0.00239559
0.0011606
0.00742289
0.00125605
0.00683518
0.00408671
0.00748672
0.00217771
0.00288849
0.00750558
0.0019409
0.00134776
0.00425721
0.00162142
0.00563351
0.00691389
0.00508514
0.00361637
0.00509598
0.00359897
0.00078413
0.00539015
0.00319336
0.00182281
0.00181172
0.000664538
0.00178031
0.00426178
0.0005662
0.0074187
0.00733183
0.00392686
0.0022947
0.00413532
0.0016053
0.00143243
0.00344251
0.00625375
0.00552412
0.00337384
0.00368135
0.00407085
0.00306969
0.00159171
0.00442685
0.00619942
0.00213391
0.00171117
0.00195841
0.000540955
0.0040562
0.00539108
0.00390096
0.00406752
0.00416662
0.00743941
0.00345319
0.00391737
0.000905925
0.00319903
0.00529584
0.00389137
0.00687323
0.0035626
0.000866041
0.00465397
0.00225133
0.00688393
0.00236982
0.00287208
0.00376911
0.00547984
0.00534734
0.00360153
0.00142057
0.00406407
0.00173975
0.000736655
0.00609117
0.00735437
0.00646789
0.00127259
0.0063029
0.00232044
0.00680853
0.00175701
0.00109355
0.00313214
0.00396852
0.00436832
0.00746088
0.00516245
0.00323464
0.000865694
0.00252017
0.000673094
0.00742604
0.00281912
0.00338775
0.00245028
0.00423625
0.00254148
0.00171497
0.00167822
0.0046976
0.000741406
0.00408306
0.00445476
0.0051772
0.00611236
0.0052907
0.0052764
0.0014979
0.00383008
0.00376851
0.00624122
0.00672782
0.000778634
0.00151944
0.000757705
0.00185954
0.00127879
0.00210046
0.00404969
0.00138608
0.0043584
0.00136648
0.00203734
0.00206924
0.00155362
0.00394181
0.00634675
0.00532593
0.00754257
0.00169463
0.00378149
0.00375583
0.00488616
0.00168642
0.00682498
0.00472985
0.00709448
0.00745828
0.00298931
0.00232783
0.00302682
0.00414836
0.00681029
0.00235304
0.00748257
0.00395813
0.00351336
0.0073861
0.00286884
0.00161358
0.00558289
0.00266255
0.00474956
0.00208544
0.00208721
0.0029876
0.00335429
0.000221614
0.000357189
0.00172126
0.000404928
0.00353365
0.0042008
0.000513201
0.000517887
0.00667084
0.00122302
0.00345337
0.00430168
0.000428652
0.00267221
0.00694342
0.00329425
0.00186376
0.00715336
0.000739472
0.000355589
0.00259279
0.00076059
0.00247314
0.000922146
0.000729763
0.00629539
0.00472278
0.00279927
0.00145255
0.00387681
0.00711535
0.0024377
0.000616766
0.00694713
0.00179053
0.00557629
0.00220246
0.00723247
0.00660112
0.0022457
0.00229179
0.00444217
0.00203197
0.00600088
0.00101708
0.00745646
0.00732725
0.00334074
0.00201181
0.00505658
0.00745776
0.000769651
0.00134398
0.00197264
0.00379522
0.00394976
0.00235908
0.00101799
0.00479543
0.000942934
0.00175186
0.00665829
0.00386902
0.00237535
0.000786952
0.00270372
0.00213868
0.00614717
0.00722051
0.00254479
0.0046065
0.00247382
0.00553513
0.00740633
0.00731942
0.00521812
0.00207739
0.000718371
0.00519798
0.000471138
0.00463641
0.00498566
0.00284588
0.0068043
0.00418122
0.00568717
0.00551023
0.00197642
0.00687795
0.00151826
0.0075643
0.000366535
0.0010486
0.00194849
0.00201147
0.00561216
0.00565044
0.00360463
0.00699422
0.00072696
0.000678364
0.00352922
0.00199389
0.0008196
0.000845596
0.00224094
0.00112348
0.000495463
0.00388059
0.00720988
0.000435777
0.00447794
0.00629283
0.00495416
0.000710933
0.000493874
0.00457367
0.00508372
0.00147457
0.00208157
0.00109793
0.000694794
0.00341041
0.00100749
0.0010665
0.00349156
0.00474072
0.00083753
0.00682824
0.000985133
0.000224513
0.00745084
0.00570864
0.00463242
0.0065886
0.00313711
0.00371469
0.00724482
0.00309918
0.00420323
0.00099093
0.00185389
0.00612708
0.00131715
0.00566092
0.000363184
0.00682282
0.0039527
0.00205403
0.00713848
0.00100415
0.00421088
0.00321102
0.00243301
0.0023604
0.00419926
0.00211626
0.0021414
0.000777403
0.00695268
0.00101233
0.000743083
0.00116198
0.0046723
0.0010715
0.00217721
0.00479158
0.00507032
0.00114957
0.00189206
0.00253595
0.000698504
0.00259319
0.00110032
0.00118123
0.00297019
0.00240037
0.000959269
0.00243239
0.00728828
0.00238954
0.00432945
0.00255982
0.00241187
0.000586949
0.00625391
0.00452636
0.00576618
0.00148868
0.00565816
0.000525294
0.00232738
0.00566346
0.00728822
0.00202447
0.00199406
0.000961873
0.00176613
0.00285317
0.00139681
0.00100525
0.0045807
0.000901475
0.00141039
0.00349358
0.000549421
0.00129299
0.00309464
0.00333856
0.00560892
0.00183787
0.000577939
0.00206353
0.00179343
0.00289554
0.00700374
0.00224069
0.00524723
0.00382709
0.00624335
0.00127813
0.00201467
0.00156163
0.00484408
0.00185262
0.00458501
0.00301883
0.00134274
0.00194779
0.00247674
0.00294478
0.00652073
0.000396727
0.00147852
0.0017872
0.00136168
0.00198574
0.00668034
0.00106312
0.000424562
0.00173486
0.00338702
0.00346161
0.00272911
0.00242498
0.000962737
0.00636109
0.00137046
0.00173227
0.00692273
0.00154071
0.00353214
0.00260705
0.00294077
0.00160017
0.00246631
0.00732416
0.00061845
0.00349451
0.000670059
0.00270529
0.00528368
0.00305746
0.00234511
0.00166582
0.00389877
0.00501755
0.0035225
0.00120312
0.00498062
0.0056499
0.000571048
0.00749323
0.00444525
0.000765554
0.00425398
0.00259063
0.00131236
0.00252716
0.00112618
0.00488319
0.00020513
0.0022528
0.000813193
0.00260216
0.00135957
0.00370278
0.000942901
0.00144813
0.00126722
0.00393174
0.0041328
0.00730059
0.00422896
0.00417015
0.00294233
0.00056501
0.00391939
0.00644969
0.00590841
0.00614699
0.00378523
0.0043611
0.00734478
0.00746282
0.00310771
0.000947336
0.00743389
0.00291361
0.00262425
0.00563764
0.00727174
0.00295754
0.00304269
0.00746405
0.00666099
0.00355062
0.00378506
0.00732497
0.00396855
0.00102969
0.00404922
0.00465563
0.00657454
0.00755077
0.00136315
0.00549367
0.00677057
0.000850084
0.00114495
0.000933985
0.00737424
0.00087751
0.000456699
0.00726132
0.000261649
0.000810988
0.000524327
0.00407353
0.00534285
0.00447427
0.00172181
0.00752038
0.00462618
0.00471452
0.00404085
0.00314228
0.00415894
0.00356118
0.00125182
0.00449627
0.00297867
0.000839034
0.00413183
0.000354796
0.00219935
0.00126345
0.00738083
0.00313389
0.00206217
0.00712879
0.00540746
0.00196569
0.00755367
0.00178338
0.00185729
0.000372433
0.00678694
0.00125935
0.00657893
0.00318363
0.00350357
0.00643737
0.00139667
0.00606978
0.00239004
0.00653394
0.00123271
0.000246898
0.00467801
0.00751991
0.000699351
0.00500008
0.000218762
0.00472219
0.00388157
0.00503965
0.00497779
0.00638953
0.00701298
0.00482332
0.002189
0.00607007
0.0022336
0.00424921
0.00440261
0.00744483
0.00241784
0.000761425
0.00411248
0.00143083
0.00679208
0.00530054
0.00313879
0.00447728
0.00503211
0.00653398
0.00246701
0.00275544
0.00746507
0.00419384
0.0053805
0.00536079
0.00390776
0.00153227
0.0011077
0.00480371
0.00414408
0.00297137
0.00408486
0.00689562
0.00561041
0.00717095
0.00219504
0.00228144
0.0019638
0.00373914
0.0051484
0.00519814
0.00136422
0.00678768
0.00696003
0.00604391
0.00162248
0.00301051
0.00126279
0.0012525
0.00121656
0.00421017
0.00565999
0.00556864
0.00516791
0.00706171
0.00126277
0.00524874
0.00734775
0.00447546
0.00341973
0.00511596
0.00111277
0.00525867
0.00240346
0.00282131
0.00360606
0.00685911
0.005131
0.00409382
0.00403306
0.00544918
0.00317355
0.00409219
0.00337824
0.00441181
0.00510078
0.00488431
0.00235567
0.00205435
0.00582419
0.00442203
0.0026986
0.00388735
0.00231502
0.00741736
0.00694727
0.00267279
0.00557838
0.00665006
0.0048344
0.00735886
0.00745752
0.00477031
0.00473459
0.00150618
0.00513348
0.00278685
0.00730819
0.00529425
0.000741876
0.00451427
0.00435531
0.00639654
0.00590868
0.00416007
0.0043918
0.000312165
0.00353412
0.00163029
0.00712697
0.00621862
0.00515966
0.00747844
0.0071828
0.00358909
0.00432331
0.00709575
0.00744389
0.00224233
0.000938614
0.00142543
0.00312764
0.00175916
0.00363953
0.00529625
0.00363278
0.00218257
0.00206599
0.004148
0.00455245
0.000836838
0.00564538
0.00448511
0.00414192
0.00423093
0.007431
0.000342319
0.00542358
0.00386493
0.00722585
0.00288979
0.00344677
0.00034234
0.000242522
0.00533982
0.006797
0.0074657
0.00415197
0.00389479
0.00641913
0.000231347
0.00102128
0.00571926
0.00262509
0.00137252
0.00582934
0.00711659
0.00257065
0.00748607
0.00604162
0.00723188
0.00499507
0.00310541
0.00422386
0.00458536
0.00675581
0.00239306
0.00491404
0.0074296
0.00114577
0.00566735
0.00410322
0.00263658
0.000967189
0.00126654
0.0035867
0.00288827
0.0061083
0.00285108
0.00303226
0.00753804
0.000571918
0.00135736
0.00288379
0.00427482
0.00343036
0.00406672
0.00406746
0.00108876
0.00751083
0.0073265
0.00573368
0.00538357
0.000993213
0.00145042
0.00105297
0.00162939
0.00362487
0.00289498
0.00751224
0.00751282
0.00457978
0.00614438
0.00532257
0.00663753
0.00755893
0.00100589
0.000390872
0.00741744
0.00749695
0.00357574
0.00129015
0.00367225
0.00750796
0.00608791
0.00138949
0.000893797
0.00395984
0.00182721
0.00211704
0.00218196
0.000438913
0.00292958
0.00698695
0.00755011
0.00613858
0.000898727
0.00674734
0.00437343
0.00454488
0.00751305
0.000748114
0.000176734
0.000235691
0.00176321
0.00103895
0.00695908
0.00738697
0.00303604
0.00480518
0.000754176
0.000926217
0.000509749
0.000422013
0.000571048
0.0019885
0.00729554
0.00086136
0.00731044
0.000365819
0.00396046
0.000692324
0.00461984
0.00203026
0.00727039
0.00375645
0.00225803
0.00228198
0.00717346
0.00557297
0.00402782
0.000990667
0.00132098
0.00500223
0.00527007
0.00045076
0.000337736
0.00452216
0.00140963
0.000757968
0.00110975
0.00546443
0.0074277
0.000539531
0.000529646
0.00128818
0.00751667
0.00112679
0.00708887
0.000598159
0.000935542
0.000235856
0.00220493
0.00691806
0.0020017
0.00739178
0.00499534
0.00428912
0.00245226
0.00642193
0.00440642
0.0062389
0.00393645
0.00474187
0.00745786
0.00730921
0.00445552
0.00718127
0.00697086
0.00462883
0.00635088
0.00196955
0.00405117
0.00249113
0.00413918
0.00708496
0.00608662
0.000921381
0.00449994
0.00369023
0.00229013
0.000654212
0.00493011
0.00218476
0.00423668
0.00105066
0.00267645
0.00137457
0.00660089
0.00738747
0.00470542
0.00386752
0.00671039
0.00382514
0.00354029
0.00428603
0.00710818
0.0055038
0.00677031
0.00515029
0.00341776
0.00569535
0.00381034
0.000696344
0.00400769
0.0043586
0.00476209
0.00321134
0.00120258
0.0023161
0.00442659
0.00538151
0.0034351
0.000992222
0.00115729
0.00471247
0.00347829
0.000353976
0.00160732
0.00208451
0.00414028
0.00155014
0.00327847
0.00415232
0.0037842
0.00111271
0.00483549
0.00424315
0.00306337
0.00672817
0.00238218
0.00306855
0.00333771
0.00346957
0.00198355
0.00478682
0.00601486
0.00750905
0.00231225
0.00372138
0.00448703
0.00207169
0.00577925
0.000989481
0.00299907
0.00353412
0.000407508
0.00212298
0.00734085
0.00357734
0.000742475
0.00168089
0.00248525
0.00745497
0.0029149
0.00139396
0.00667506
0.00755214
0.000675694
0.00203294
0.00159911
0.0017975
0.00702719
0.00531655
0.00118151
0.000535878
0.000766357
0.00630668
0.00602052
0.000520357
0.00740259
0.00201253
0.00311104
0.00136516
0.0014367
0.00716304
0.00382336
0.000930631
0.00410364
0.00454715
0.00539801
0.00373607
0.00569302
0.00111397
0.000294831
0.00451355
0.00365596
0.00035172
0.000611125
0.000642245
0.0025471
0.0010677
0.00225109
0.000525638
0.0035871
0.00356162
0.00076211
0.00286584
0.00245139
0.000567793
0.000806156
0.000341477
0.00748297
0.00722028
0.000477297
0.00658802
0.0043428
0.000688061
0.00625612
0.00308787
0.00538473
0.00372172
0.00513854
0.00693118
0.000471238
0.000426735
0.00169766
0.000631362
0.00241097
0.0044227
0.00449192
0.00534054
0.00335336
0.00580266
0.00660264
0.00491839
0.00572021
0.000477692
0.000408685
0.00604202
0.00212098
0.00675388
0.00387022
0.00300723
0.00361051
0.00376603
0.00543802
0.00056405
0.00129478
0.00441494
0.000583384
0.00285811
0.00125802
0.00303404
0.00400547
0.000890182
0.00284561
0.00121035
0.00178976
0.00292974
0.00294223
0.00687507
0.0012444
0.00749837
0.00650748
0.00275654
0.00440908
0.0014806
0.00357307
0.0021936
0.00355388
0.000792932
0.00434638
0.00350819
0.00374272
0.00746528
0.00383002
0.00502798
0.00164552
0.000540124
0.00368084
0.000601525
0.00344896
0.00526242
0.00195054
0.0053185
0.00597891
0.00596519
0.00321146
0.00125168
0.00194743
0.00156701
0.000651776
0.00182779
0.0054462
0.000163069
0.00106388
0.00608073
0.00276361
0.00149971
0.00413477
0.000801135
0.000436826
0.00271527
0.00123291
0.0014362
0.00312686
0.000835073
0.00206321
0.00724669
0.00358379
0.00100301
0.000908137
0.00741057
0.00100997
0.00739418
0.00269547
0.00644001
0.00269189
0.00197577
0.00102969
0.000959172
0.00582734
0.0056562
0.000223271
0.00750418
0.00483402
0.00110636
0.00673312
0.00296173
0.00218299
0.00428251
0.000469498
0.00152212
0.000348902
0.00137519
0.00316159
0.00129938
0.0071477
0.00628857
0.00122786
0.00739432
0.00399725
0.00265831
0.0058078
0.00150979
0.000552616
0.0074107
0.0026632
0.00726288
0.0008528
0.00527769
0.000580661
0.00294714
0.00240778
0.00691901
0.00265972
0.00268105
0.00714445
0.00624075
0.00360167
0.00753512
0.00118855
0.00396825
0.00360047
0.00645963
0.0048432
0.00359883
0.00301665
0.00295197
0.00258312
0.00330403
0.00493122
0.00519527
0.00177819
0.000624633
0.000746565
0.000752096
0.00123943
0.000827356
0.000865244
0.00329206
0.000285716
0.000553403
0.00131459
0.00227194
0.00287543
0.000785234
0.000983135
0.00236874
0.00126588
0.00215043
0.00639823
0.00291244
0.0012105
0.00424963
0.000389943
0.00286494
0.000375343
0.00219773
0.00117571
0.00136319
0.000597557
0.000547226
0.00210244
0.000525376
0.00285958
0.00169729
0.00503766
0.00180925
0.0057695
0.00662495
0.00101861
0.00371012
0.000840892
0.00148428
0.00568543
0.00238708
0.00540716
0.00127947
0.00099464
0.00729162
0.00572731
0.00179876
0.000864709
0.00382535
0.00280602
0.00117334
0.00112751
0.00595079
0.00734365
0.00401337
0.00506285
0.000795951
0.00748202
0.000960996
0.000316687
0.00562866
0.00312604
0.00529444
0.00469143
0.000661082
0.00280727
0.000715132
0.00413001
0.00567324
0.000578019
0.000809844
0.00638928
0.00250787
0.00640186
0.00721636
0.00110183
0.00270739
0.00070131
0.00465339
0.00707868
0.00224435
0.00656312
0.00582659
0.00624696
0.00557621
0.00279592
0.00217616
0.0012904
0.00325247
0.00128723
0.00372708
0.007355
0.00221285
0.00127093
0.00079279
0.000939161
0.00103829
0.00206343
0.000982881
0.00104076
0.000832931
0.000954072
0.00372211
0.00302571
0.004229
0.00145145
0.00470888
0.00267251
0.00338721
0.00174842
0.000527782
0.00351209
0.00195987
0.00352861
0.00591612
0.00344716
0.00605871
0.00624396
0.00551949
0.00269029
0.00336977
0.00290237
0.00650934
0.00313079
0.00137918
0.000801725
0.00471715
0.000614296
0.00724311
0.00390127
0.00746944
0.00474198
0.00105799
0.00274833
0.00130479
0.00387167
0.00440379
0.00413155
0.00464662
0.00582423
0.00297499
0.00367729
0.00407478
0.00686993
0.000900974
0.00336655
0.00149835
0.00296639
0.00117256
0.00699089
0.00468002
0.00366359
0.00408836
0.00297917
0.000949622
0.0072657
0.0053183
0.000694321
0.00248859
0.00243437
0.00318095
0.00245201
0.00272061
0.00218845
0.00616132
0.00705485
0.00671341
0.00201499
0.00191246
0.00561488
0.000353989
0.00558868
0.00173875
0.00705376
0.00709537
0.00195991
0.00445133
0.0063381
0.00110713
0.00739817
0.00434654
0.00174483
0.00204458
0.00747629
0.00125573
0.00708184
0.00698525
0.00129141
0.00380937
0.00289735
0.000851434
0.00750272
0.00157992
0.00157352
0.00174105
0.00103132
0.0011973
0.00596754
0.00576878
0.0029418
0.00643855
0.00237212
0.00232027
0.00651813
0.00725664
0.00350053
0.00126511
0.00302052
0.00413124
0.00214089
0.00348865
0.00215497
0.00736902
0.00210542
0.00137872
0.00381554
0.00550445
0.00546888
0.00620817
0.00391204
0.00438818
0.00230426
0.00400918
0.00052351
0.0047477
0.00727206
0.00090853
0.00288846
0.000681602
0.000898629
0.00613292
0.00434308
0.00131276
0.00311279
0.000445764
0.00152169
0.000725598
0.00167038
0.000411656
0.00286195
0.00152429
0.00180878
0.000609209
0.00106191
0.00304534
0.000558815
0.000375661
0.00172468
0.000352009
0.000876005
0.001587
0.00117062
0.000569924
0.000874285
0.00752079
0.00381354
0.000971296
0.00087593
0.000947247
0.00152671
0.0015635
0.000705824
0.00297457
0.00376357
0.0047758
0.00739221
0.0033039
0.00723145
0.00102777
0.00302054
0.00444169
0.000755203
0.0041912
0.00234113
0.00554281
0.006793
0.00324745
0.00528217
0.00179398
0.00731848
0.00230265
0.000577989
0.0057535
0.00730812
0.00421918
0.00597022
0.00143351
0.00327479
0.00611528
0.00660843
0.000615965
0.00721691
0.00503763
0.00692501
0.00198241
0.0035736
0.00467542
0.00645473
0.00585657
0.00128587
0.00436766
0.00255285
0.00702843
0.007267
0.00734816
0.00519553
0.00495129
0.00376851
0.00696997
0.00363388
0.00380919
0.00309089
0.00115154
0.00134714
0.00399936
0.00203478
0.00439119
0.00277321
0.00350178
0.00378438
0.00707188
0.00319783
0.0043539
0.00654171
0.00199564
0.00478008
0.00315339
0.00120444
0.0049619
0.00290082
0.00142263
0.00399021
0.00118373
0.00211769
0.00107027
0.000384229
0.0029289
0.00622015
0.0024601
0.000488562
0.00291956
0.00702251
0.00713885
0.00720548
0.00431324
0.00485374
0.00745034
0.00748061
0.00437296
0.00312727
0.00732012
0.00723487
0.00751762
0.00635629
0.00323622
0.00196775
0.00318286
0.00666451
0.00422945
0.000906247
0.00627272
0.006747
0.00366542
0.000500556
0.000697387
0.00378451
0.00535813
0.00598565
0.00329243
0.00397406
0.00058956
0.00199169
0.00544458
0.00410612
0.00723081
0.00395153
0.00206602
0.00358235
0.0033138
0.00413603
0.0014097
0.00197769
0.00141725
0.00108698
0.000281643
0.00158339
0.00194513
0.004151
0.00424179
0.00366592
0.00333246
0.00705952
0.00473849
0.000442739
0.0074347
0.0018765
0.00106723
0.00344293
0.00304063
0.000414207
0.00201191
0.00460345
0.0039484
0.0075119
0.00312647
0.00094046
0.00396559
0.00179797
0.00354175
0.00285863
0.000568777
0.000853
0.00383981
0.00386668
0.00111589
0.00536309
0.000709717
0.000706828
0.00116579
0.00742027
0.00734029
0.000233736
0.00685997
0.000482025
0.00230246
0.00345314
0.00117405
0.00100413
0.00711152
0.00745906
0.00100914
0.00712142
0.00684808
0.00560266
0.00732297
0.0044617
0.00506804
0.00242667
0.00657536
0.000353037
0.00334293
0.00599745
0.00424274
0.00030856
0.00442516
0.000536276
0.00557181
0.00428932
0.00418112
0.00117569
0.0057527
0.00420675
0.00575352
0.000819845
0.00214859
0.0021561
0.00143015
0.00298995
0.00705029
0.000854541
0.00314818
0.00338941
0.00313362
0.00597887
0.00336681
0.00382951
0.0073758
0.000400615
0.00157059
0.00498748
0.00574892
0.00198487
0.00537968
0.00302524
0.00378326
0.00599818
0.002404
0.00554661
0.00621736
0.0044327
0.00133877
0.00502745
0.00547062
0.00574213
0.00373424
0.0072973
0.00537376
0.00661745
0.00283492
0.00534197
0.00275436
0.00259329
0.00421836
0.000446303
0.00579648
0.00352705
0.00084567
0.000736677
0.00123394
0.00407343
0.0022898
0.00197271
0.000362583
0.00401561
0.000962549
0.00405173
0.00728344
0.0030968
0.00182991
0.00396426
0.00605955
0.00725561
0.00651665
0.000327502
0.00644541
0.00703079
0.00276994
0.000483034
0.00042828
0.00424937
0.000260382
0.000777585
0.00105302
0.00118461
0.000728722
0.000416121
0.00616406
0.00075577
0.00408063
0.00706021
0.00331088
0.000478638
0.00220218
0.00713931
0.00688247
0.000894039
0.00582361
0.000468766
0.00714432
0.00295103
0.00610911
0.00300973
0.000612531
0.0072515
0.00321179
0.0029556
0.00661762
0.00373352
0.00704631
0.0029849
0.000588833
0.000566043
0.00059979
0.00167513
0.001842
0.00692944
0.007104
0.00613624
0.00376535
0.00733732
0.00175854
0.00749846
0.00106118
0.00425129
0.0072174
0.00673556
0.00481703
0.00717418
0.00398349
0.00313265
0.00741223
0.00329206
0.000899316
0.00726135
0.00129205
0.000884771
0.00660466
0.000253299
0.000520842
0.00290383
0.00299101
0.0045615
0.0013325
0.00458157
0.00221
0.00169697
0.00636804
0.00178146
0.00681976
0.00248581
0.00482063
0.00267455
0.00201854
0.000662316
0.00334062
0.00414098
0.000723357
0.00158047
0.00217906
0.000939671
0.00563191
0.00135387
0.00465666
0.00195288
0.00292309
0.00603
0.0013136
0.00272222
0.00290378
0.00672389
0.00059206
0.000892095
0.000433578
0.00665516
0.00506409
0.00100501
0.000542213
0.00275474
0.00448411
0.00254745
0.00126327
0.000615701
0.00204482
0.00658078
0.00319769
0.00444188
0.00641607
0.00407984
0.000649833
0.00657078
0.00217721
0.00319609
0.00724804
0.00271909
0.0028032
0.0070038
0.00445547
0.00318544
0.00231699
0.000730516
0.00508973
0.00141806
0.00262349
0.00191925
0.00310609
0.00203973
0.00162868
0.00368335
0.00694082
0.00657693
0.00673226
0.00068688
0.00455007
0.00107627
0.00396795
0.00486492
0.00619596
0.00376136
0.00731955
0.00254297
0.00747593
0.00247046
0.00241613
0.00369582