/*--------------------------------*- C++ -*----------------------------------*\
| =========                 |                                                 |
| \\      /  F ield         | OpenFOAM: The Open Source CFD Toolbox           |
|  \\    /   O peration     | Version:  2506                                  |
|   \\  /    A nd           | Website:  www.openfoam.com                      |
|    \\/     M anipulation  |                                                 |
\*---------------------------------------------------------------------------*/
FoamFile
{
    version     2.0;
    format      ascii;
    arch        "LSB;label=32;scalar=64";
    class       surfaceScalarField;
    location    "0.020811";
    object      phi;
}
// * * * * * * * * * * * * * * * * * * * * * * * * * * * * * * * * * * * * * //

dimensions      [0 3 -1 0 0 0 0];

oriented        oriented;

internalField   nonuniform List<scalar> 
92401
(
0.147494
-0.0950794
-0.00751074
-0.0449039
-0.0634898
0.0601465
0.0378957
-0.0345524
0.022225
-0.0389532
0.0425462
-0.025818
0.00629917
-0.0123405
0.0122673
-0.00622598
0.00132421
-0.000469213
-0.00560978
0.00475478
0.0194398
0.00983501
-0.0256024
-0.00367246
0.00543705
-0.00447803
0.000365184
0.0323993
-0.0258778
0.0129184
0.0487857
-0.0389336
0.0319545
-0.0418065
0.000710614
-0.00118536
-0.000321535
0.000796276
0.00478822
-0.0417952
0.0383164
0.0256614
0.0235271
-0.0875048
-0.0164336
0.0104734
-0.000104598
0.00606473
-0.0342736
-0.0399871
-0.0165731
-0.0161805
0.0554091
-0.0226555
0.00157038
-0.064141
0.0625706
-0.00221356
-0.00765582
0.00197391
0.00333364
0.00234828
-0.000922225
0.00140712
0.000348947
-0.000833839
-0.0046422
0.0101834
8.41288e-05
-0.00562529
0.0158772
-0.00552483
-0.00458908
-0.00576331
-0.0403582
0.00842951
0.036622
-0.00469338
-0.0393297
0.0108768
-0.0555934
-0.053798
-0.00351355
0.0556255
0.00168608
0.091401
-0.089627
0.0233342
-0.0251083
0.0502193
0.0603609
-0.0713806
-0.0391995
-0.0323548
0.0509208
-0.0578957
-0.00252818
-0.00106174
0.00386163
-0.000271713
0.0315412
-0.0635367
-0.000359283
0.0615823
-0.0612696
-0.0323186
0.0320059
0.01257
-0.0171978
0.000916221
0.00371159
-0.0366787
0.106811
0.0605764
-0.130709
-0.084261
0.108869
0.00750172
-0.0321097
-0.130028
0.0317178
0.030112
0.0681982
0.0156929
-0.0620555
0.0372816
0.00908099
0.0618127
0.010247
-0.0563668
-0.0442528
0.0104596
0.00215621
0.031637
-0.050156
-0.041355
0.06504
0.026471
-0.0335076
0.0399491
-0.0137557
0.00731413
-0.0206422
-0.101539
0.0655312
0.05665
-0.0862161
0.0857299
0.000486216
0.03177
0.00112083
-0.0759799
0.0430891
-0.0012953
0.0286081
-0.030553
0.00324019
0.0273983
-0.0504487
0.0230504
0.00017457
-1.82805e-05
-6.90931e-05
-8.71966e-05
-0.000211218
-0.0592103
0.0594216
-0.0688983
0.0429334
0.0626158
-0.0366508
0.0899612
-0.0256389
-0.0126624
-0.0516598
-0.000720812
0.070299
0.00122853
-0.0708068
-0.0468846
0.0732654
0.0381733
-0.064554
0.000498423
0.000994753
-0.000343623
-0.00114955
-0.00215743
-0.00392148
0.000699715
0.0053792
-0.0384321
0.0843792
-0.0462174
0.000270173
0.000375785
-0.000867004
-0.000685057
0.00117628
-0.0542154
0.0539294
0.000286044
0.0749848
-0.00698853
-0.0197384
-0.048258
-0.0977502
0.0888812
0.006301
0.00256809
-0.0546705
0.0267658
0.0119804
0.0159243
-0.000914656
-0.01603
0.00635174
0.0105929
-0.0129366
0.025313
0.0381322
-0.0505086
0.00102202
-0.000353381
-0.000292853
4.43326e-05
1.76068e-05
0.000797516
-0.000859456
0.00124177
0.000231632
-0.000845279
-0.000628126
0.00401593
-0.00902439
0.00522586
-0.000217396
0.0681509
0.00503235
-0.0174644
-0.0557188
-0.0148304
-0.00451445
0.0100386
0.00930627
-0.0399766
-0.0527493
-0.0557126
0.148438
0.00370621
-0.033106
-0.00379999
0.0331997
-0.00042586
0.000551502
0.000706868
-0.00083251
0.0052694
0.00382151
-0.0285237
0.0194328
0.0184869
-0.007014
-0.00932236
-0.0021505
0.0410152
-0.0759261
-0.0275317
0.0624426
-0.0279789
-0.00345705
0.0101838
0.0212522
0.0117971
0.00791684
0.0128978
-0.0326118
-0.00106484
-0.000434602
-3.62142e-05
0.00153566
0.0246107
-0.00928995
0.0367419
-0.00132412
0.000924045
-0.0015573
0.00195738
0.0449597
-0.0333902
-0.0683442
0.0567748
0.000622245
-0.000276329
-0.000345916
-0.00105508
-4.55497e-05
0.000554326
0.000546305
0.00101852
-0.000627022
0.00121882
-0.00161032
0.0224074
-0.021888
-0.0628931
0.0623737
0.00123781
-0.0128355
0.00258125
0.00901639
0.0440707
0.0566378
0.0188122
-0.119521
-0.116445
0.024926
0.129247
-0.0377283
-0.00548975
-0.0434996
0.0042201
0.0447692
0.0522293
-0.0290424
0.0255186
-0.0487055
0.0261288
-0.00416341
-0.151918
0.129952
0.00604813
0.0159468
-0.0255417
0.00354683
0.000690222
-0.000241939
-0.000691825
0.000243541
0.0374941
0.0128356
-0.00205482
-0.0482749
-0.00196802
0.082388
-0.0841535
0.00373349
-0.0189857
0.049479
-0.115376
0.0848826
0.0415512
0.00495729
-0.0519983
0.041988
-0.00043683
-0.00239592
-0.0291945
0.0417153
-0.0101249
0.0709915
0.0167357
-0.0312968
-0.0564305
0.127989
-0.141056
-0.0294288
0.0424963
-0.0141674
-0.0458872
0.0576587
-0.0813318
0.00063092
0.0807008
0.00164033
-0.0992881
0.165257
-0.0676096
-0.00235112
0.00332037
-0.000502274
-0.00046697
0.0885754
-0.148635
0.0309023
0.029157
0.00159141
-0.000258493
0.000758383
-0.0020913
-0.0851263
0.143426
-0.105521
0.0472215
0.028373
0.00368905
-0.0397564
0.00769435
0.0872451
-0.0170908
-0.0791666
0.00901229
0.00611629
0.0311208
-0.0514045
0.0320315
0.0290074
-0.135692
0.0746528
0.0850792
0.113527
-0.0778248
-0.120781
0.00092158
-7.32971e-05
-0.0021823
0.00133402
-0.0952375
-0.028151
0.111109
0.0122792
0.00223787
-0.00565395
0.0144803
-0.0110642
-0.0138376
-0.0336672
0.057593
-0.0100883
-0.0052262
0.0164309
-0.0138461
0.00264149
0.000290166
-0.000621235
-0.000500178
0.000831247
0.0209843
-0.0250061
-0.00120442
-0.00172039
-0.000754832
0.00142338
0.00105184
-0.0571964
0.0595233
-0.00232691
-0.00239114
-0.00602906
-0.00199727
0.0104175
-0.0356791
0.0281701
-0.00632859
0.0191636
-0.0478031
-0.0556215
-0.0512674
0.0418915
0.0979578
-0.0885818
-0.00743426
-0.00160471
0.00481198
0.004227
0.0470437
0.0121404
0.00137775
-0.0605618
0.000299191
-0.00883608
0.0067209
0.00181599
-0.0375415
-0.054617
0.011685
0.0804736
0.0646369
-0.0387705
0.0262523
-0.0521187
-0.00842574
0.0591648
-0.058122
0.00738298
-0.0597448
-0.034044
0.0089385
0.0848503
0.0172033
0.00515637
-0.0339734
0.0116137
0.0595943
-0.0578945
-0.00169981
0.0019694
0.00186676
-0.00112231
-0.00271385
0.0414473
-0.0436994
0.00225208
-0.0499276
-0.0424726
0.108707
-0.0163067
0.000881779
-0.00960193
0.00934183
-0.000621682
0.00315183
0.00593729
0.00236801
-0.0114571
0.00157018
0.00614007
-0.00741106
-0.0259305
-0.0568253
-0.00922652
0.0919823
0.0250852
-0.00704963
0.0165584
-0.034594
-0.0851114
0.0929256
-0.102905
0.0950913
0.0736963
-0.0493294
-0.0243669
0.00128276
-0.0342019
-0.0100418
0.0429609
0.00778476
-0.00560991
-0.00864772
0.00647287
0.0457283
-0.0691584
-0.0613684
0.0847985
0.0746041
-0.0648513
0.0289031
-0.0386559
-0.0131877
-0.00819967
0.031392
-0.0100045
-0.059283
-0.0874798
0.0569201
0.0898427
-0.0410263
0.0534737
-0.0111646
0.0983085
-0.0489671
-0.0493413
-0.0038328
0.0144935
-0.00287598
0.00093011
0.00061999
-0.000689968
-0.000860133
0.0481534
-0.0166949
-0.00527423
-0.0261842
0.00350415
-0.00174725
-0.00052457
-0.00123233
0.00556011
-0.00977869
0.00851507
-0.00429648
0.0726232
-0.0423172
0.0256748
-0.0559808
0.00840242
-0.000188382
-0.00692209
-0.00129195
0.00159165
-0.000554931
-0.00103672
-0.0632588
0.0636109
-0.000352057
0.011121
0.00497813
-0.0951266
0.0790275
-0.0108678
0.0137843
-0.0100578
0.00714124
-0.0727465
0.0165051
0.0833355
-0.0270941
0.0190966
-0.0977669
0.0749437
0.00372663
-0.0516562
0.0418002
-0.00791736
0.0177733
0.00858831
-0.00175412
-0.00289272
-0.00394147
8.25084e-05
-0.0010014
0.000918893
0.0239209
0.17251
-0.240819
0.0443884
0.000227711
-0.000274033
-0.0243575
0.0606971
-0.053506
0.0171665
-9.69074e-05
0.00512103
-0.00417268
-0.000851449
0.000821878
0.00181503
-0.00326393
-0.0721107
0.000636582
0.0714741
-0.0331408
0.114743
-0.048182
-0.0334205
0.000120247
0.00102994
0.0093246
-0.0104748
-0.00115481
0.0909911
-0.0898362
0.00232926
-0.00162985
-0.00110161
0.000402208
0.00128166
0.000584492
-0.000600128
-0.00126602
-0.036629
-0.00167663
0.032401
0.0189694
-0.064307
-0.0721084
-0.0162128
0.00562725
0.0826939
-0.000573445
0.00185511
-0.0988041
-0.0416539
0.112478
0.02798
0.0273132
0.167057
-0.0840071
-0.0577394
-0.0253101
-0.0177538
0.118762
-0.0439656
-0.057043
0.0418751
0.0296456
0.037084
-0.108605
0.105947
-0.246856
0.10676
0.0341486
0.00150502
-0.00131739
-0.00143819
0.00125055
-0.0121994
-0.0358856
0.0563525
-0.00826742
0.0250866
0.0406122
-0.0253268
-0.040372
-0.0353807
-0.026437
-0.0195078
0.0813256
-0.0546743
-0.0127977
0.0552725
0.000756102
-0.0116892
0.00766049
0.0032726
0.0556407
-0.0286955
-0.0510542
0.024109
-0.0882484
0.10396
-0.0502233
0.0345117
0.0156828
-0.0225797
0.00700843
-0.000111609
0.0521326
-0.0606993
0.0642073
-0.0568819
-0.00328298
-0.0148605
0.0750254
-0.00531257
-0.0122631
0.00208723
0.0154884
-0.000780091
0.0576049
-0.0571957
0.000370926
0.136067
-0.0545153
-0.00239288
-0.0791585
0.0586711
-0.00766611
-0.0480698
-0.00293524
0.0533839
-0.0211673
-0.0757604
0.0435438
-0.00945146
-0.001998
0.014478
-0.00302855
0.0052219
-0.00170218
-0.00476847
0.00124876
0.00206605
-0.0425782
0.0392581
0.0012541
-0.000948841
-0.0863315
0.00403315
0.0189971
-0.0127657
-0.0627912
0.0476377
0.0151534
-0.0599842
-0.0165003
0.0101427
0.0663418
-0.0983033
-0.00370883
0.103901
-0.00188833
0.00380112
0.0228255
-0.0124991
-0.0141275
-0.0697635
0.149928
-0.0667952
-0.0133688
-0.00505862
0.0139873
0.0224735
-0.0314021
-0.0504577
0.0960313
0.0377103
-0.0832839
0.027269
0.00226064
-0.0145409
-0.0149887
-0.0354871
0.03656
0.000993237
-0.00379192
0.00680533
-0.0096317
0.00661829
-0.000568683
-0.00401742
0.0101462
0.0369687
0.0378953
-0.074864
0.00108611
-0.00183433
7.17288e-05
0.000676488
0.0188913
0.00808019
-0.0182401
-0.00873133
0.0225364
0.00875662
-0.00282212
-0.0284709
-0.0510057
-0.000930556
0.00681287
0.0451234
0.000386539
-0.0429648
-0.000916331
0.000581968
0.00142048
-0.0525261
0.03776
0.0514692
-0.0367031
-0.0432643
0.0290956
0.0183141
-0.00414545
0.00131435
-0.0030745
-0.00953169
0.0112918
-0.00820551
-0.00485096
-0.00366984
0.0167263
-0.042461
-0.00451233
0.0114862
0.0726532
0.0401296
-0.0730005
-0.0397824
-0.0439185
-1.38878e-05
0.0439324
0.0868727
-0.048445
0.0586726
0.00375526
-0.00788519
-0.0384415
0.0425714
0.0362008
0.0111153
-0.00569221
-0.0416239
-0.000476862
0.000294937
0.000980681
-0.000798756
-0.0167323
-0.0447934
0.0615257
-0.000274605
-0.00125734
-0.00446419
0.0321176
-0.0238982
0.00600791
0.0279108
-0.0418039
0.096132
-0.0899336
-0.00127913
-0.00491926
-0.0215095
0.100295
-0.0187808
-0.0600044
-0.0312175
0.00673209
0.0155612
0.00892424
-0.0390019
0.0352201
0.0144126
-0.0106308
0.0317761
-0.0251188
0.00137566
-0.00803292
0.0188136
0.0716087
-0.120867
0.0304451
0.0746538
-0.0734575
-0.0240125
0.0228162
-0.142704
0.00310629
0.00276839
0.136829
0.0301413
0.0127409
-0.0413398
-0.00154243
0.0399989
-0.0580543
0.0193502
-0.00129483
0.00204085
-0.00121033
0.0002347
-0.00106522
-0.01429
-0.00157511
0.0736452
-0.0415327
0.0189587
-0.0510712
-0.0113388
0.0470652
0.000602098
-0.0363284
0.00531525
0.0966299
-0.0930463
-0.00889884
0.0506538
-0.0983542
0.0573181
-0.00961772
-0.0495454
-0.000519604
0.0387262
0.0154136
-0.00470338
0.008823
-0.0195332
-0.0235973
0.0481445
-0.0133541
-0.0111932
-0.0495049
-4.05175e-05
-0.00608237
-0.122653
0.176321
-0.0475854
0.00982205
0.00895527
-0.061715
0.0429377
0.0505691
0.00541607
-0.0461631
-0.0121848
0.00647661
-0.0035597
0.00926792
-0.0553086
0.00038671
0.0549219
0.109302
0.0427579
-0.134594
-0.0174651
-0.0088502
0.000378838
-0.00371347
0.0190143
-0.113088
-0.0235065
0.11758
0.0124489
0.0656486
-0.0691423
0.00289643
-0.0537496
-0.0108618
0.000464739
0.00180966
-0.002549
0.00193376
-0.00178553
0.000316511
-0.0511796
0.0266069
0.073847
-0.0492744
-0.00188628
0.000945937
0.000894795
-0.0352052
-0.00783329
0.0459349
0.000227963
-0.000304586
0.000331224
-0.000904804
7.5013e-05
0.000498567
9.22682e-05
0.00206945
-0.00165124
0.00132121
4.47018e-05
0.000285327
0.000432488
-0.000223608
0.000813139
0.104158
0.120074
-0.0767383
0.000186054
-0.000952366
0.0011988
-0.0529238
0.0532874
-0.000363641
-0.010417
0.0751518
-0.0702452
0.00551035
0.00179146
-0.0188388
0.00498922
0.0120582
-0.0596386
-0.0037022
-0.0168944
0.0042133
0.0470415
-0.0343604
-0.0644576
0.000351109
0.0641065
-0.00623293
-0.0158229
-0.012343
0.0343988
0.00024246
-0.00032244
-0.000439779
0.000519759
-0.00400928
-0.00758064
0.00895794
0.00263198
0.0549794
0.0438925
-0.0174888
0.0470086
0.0883949
-0.0375849
-0.0978185
-0.0117615
-0.044086
-0.0214745
0.0210528
-0.0566845
0.0571063
-0.00992553
0.0285513
-0.00768065
-0.0109452
-0.0155401
-0.0131633
0.014205
0.0144984
0.0972144
-0.0950794
0.0176612
-0.0197962
0.00102144
-0.00424519
-0.000239726
0.00346348
0.000465523
-0.0651285
0.064663
-0.072952
0.003454
0.0662055
0.0032925
0.0398523
0.0376037
-0.077456
0.0191265
-0.0600886
0.0292005
0.00231755
-0.00142786
0.000912336
-0.00180203
-2.95763e-05
-0.000530295
0.00191516
-0.00135529
-6.16832e-05
0.000408249
-0.000907188
0.000560623
0.0637559
0.0554718
-0.0392107
-0.0800171
0.00585719
-0.0858272
0.0819789
-0.00200888
-0.0134897
0.000106954
0.0265079
-0.0131252
0.0517027
-0.0515235
0.019639
-0.0198182
-0.000454684
0.00123516
-0.000606083
-0.000174394
0.0203279
0.0483051
-0.0495065
-0.0475629
-0.00170967
0.000848333
0.00152607
-0.000664741
-1.94178e-05
0.0798854
-0.079866
-0.0500557
-0.0151725
-0.0232663
0.0884945
-0.0504115
0.000355842
0.011855
0.0171401
0.0158419
-0.044837
0.000412838
-0.00277212
0.000144975
0.00221431
-0.00161884
-0.000691799
0.00060097
-0.108718
-0.00764635
-0.044861
0.161226
-0.0103577
0.00680273
0.13938
-0.135825
-0.0385235
0.0428557
-0.0637713
0.059439
-0.0781114
0.0761987
0.00191278
0.00166601
-0.0508827
-0.0301633
0.0654562
0.018773
-0.00546954
-0.0787597
0.0510865
0.0918641
-0.154928
0.0119772
0.0428653
0.0148332
0.0326087
-0.0903072
0.104471
-0.107507
0.0428878
-0.00334393
0.0126453
-0.0114934
0.00219199
-0.00235372
0.000387006
-0.000873064
0.00283978
-0.00264682
-0.00550985
0.00147544
0.00668123
0.0603784
-0.00577153
-0.0179196
-0.0366873
-0.0565112
0.0283992
0.028112
-0.0920002
-0.00730716
0.0122338
0.000210743
-0.000278346
-0.00228612
-0.11742
0.0235242
0.00665786
0.0872378
0.000717851
-0.0535707
-0.00978876
0.0626416
0.0460847
0.028047
-0.101116
0.0269846
0.0385485
-0.0431863
-0.0194089
0.0240466
0.047405
-0.0590605
0.0502041
0.0300071
-0.056177
0.0500896
-0.0239197
0.0340366
-0.0357883
0.000926376
0.00082528
0.0156966
-0.144081
0.0918412
0.0365432
0.000873439
-0.0599309
-0.00338493
0.0528185
-7.64397e-05
-0.107413
-0.0336601
-0.0094796
0.00658632
0.0365534
-0.0481799
0.04481
0.0497465
-0.0463766
-0.0419035
0.0816129
-0.0397093
0.0104382
-0.101798
0.0481732
-0.0169945
0.00770184
0.0241393
-0.0148466
-0.0882141
0.0933368
0.0370699
-0.0421926
0.0574776
0.0338513
-0.0808545
-0.0104743
-0.0482506
0.141193
0.00548496
-0.0984276
-0.00036038
0.00313077
0.00333513
-0.00610552
0.0548348
-0.0731108
0.0836191
-0.0653431
0.00887249
-0.0403965
-0.00866515
0.0401891
-0.0432581
0.0298637
0.103741
-0.0903465
-0.0504128
-0.0271333
0.0550483
0.0224978
-0.0105009
-0.000746594
0.00673623
0.00451122
-0.00923592
0.0204818
-0.0173436
0.00609776
0.000180554
0.0736678
-0.0738484
0.0148177
-0.0441116
-0.018886
0.0486348
-0.033579
-0.00207943
-0.0129764
0.00144488
-0.0242589
-0.0205829
0.0433969
0.0355743
-0.0351838
-0.000390527
0.0627746
-0.0414071
0.0625572
-0.0839247
-0.099514
0.0970226
0.0997058
0.000247026
-0.0107904
-0.00190621
0.0124496
0.050392
-0.000222436
0.000125923
0.000320128
-0.000223615
-0.000228614
0.0466861
-0.107923
0.0614658
-0.00866029
-0.000261344
0.00487314
0.00404849
0.0268635
0.0100122
-0.0368757
0.00110816
-0.00114692
-0.00862152
-0.0313587
-0.0353507
0.0167817
0.0574422
0.000668777
-0.058111
0.0726712
-0.0437859
-0.0511856
0.0223004
0.00185652
-0.0249535
-0.0211558
0.069309
0.0429606
-0.0395984
-0.00798057
0.00933576
0.136126
-0.120491
0.0354954
-0.0511303
-0.0455575
0.0374244
0.022046
-0.0139129
-0.052624
0.05202
0.000603963
-0.0481941
0.0300349
0.0106462
-0.0467659
-0.0106031
0.0467228
-0.00259217
0.159694
-0.158887
0.00178504
0.108635
0.0158885
-0.0156548
0.0505544
0.00867107
-0.0514707
-0.00775473
-0.0142403
0.00443454
0.010458
-0.000652217
-0.00955822
-0.00516366
0.00478692
0.00993496
0.0673607
-0.0384669
-0.053464
0.0245701
0.0298136
-0.0160589
0.0232296
-0.0369844
0.0271575
-0.095077
0.0907537
-0.0228341
-0.00559412
0.000418931
-0.00906513
-0.0949018
0.108173
-0.0233831
0.0101124
-0.0111684
0.0476299
0.0142047
-0.0506662
-0.00440486
0.000113418
0.00309649
0.00119495
0.082934
-0.0063301
0.0520313
-0.128635
5.65205e-05
-0.000716083
1.08342e-05
0.000648728
-0.0667843
0.057826
0.0747157
-0.0657574
0.00349448
0.0013903
-0.00205095
-0.00283383
-0.0775865
0.0754348
0.00215167
0.0622469
-0.0591659
-0.00308097
0.0598776
0.00011599
-0.0599936
-0.0132002
0.12367
-0.000653808
-0.109816
0.00998273
-0.0312076
0.0330799
-0.0236734
-0.000411535
-0.0563325
-0.0674496
0.0122641
0.0673191
-0.0121335
-0.0130526
-0.00209978
0.000414357
-0.000654346
-1.28737e-05
0.000252862
0.00110321
-0.000262814
-0.000228832
-0.000611563
-0.0637405
0.007455
-0.00163592
0.0579214
0.00050363
-0.00532783
0.00175877
0.00306542
0.0119229
-0.0144354
0.000114388
0.00239814
0.00795999
-0.00667865
0.0106415
0.0559863
-0.0102835
-0.0224341
-0.0232688
0.0364376
-0.00541027
-0.0362425
0.00521516
0.000465368
0.0669563
-0.000389296
-0.0670324
0.00747924
-0.071427
0.0193412
0.0446066
-0.0431995
-0.0321888
0.0423389
0.0330494
-0.0331076
0.0187223
-0.0905356
0.104921
-0.00082195
0.0148866
-0.00769562
-0.00636901
0.0493357
-0.0588629
0.0471766
-0.0376493
-0.0627528
-0.00726267
-0.00681299
0.00067743
-0.000136817
0.00408611
-0.00462672
-0.0116182
-0.00282009
0.00170442
0.0127339
-0.0077826
-0.00898883
0.0106722
0.00609925
-0.000109292
-0.00213177
0.00129175
0.000949306
-0.000461733
0.000508911
-4.71783e-05
0.000861838
-0.0705514
-0.025557
0.0952466
-0.000134704
-0.000194725
-0.00127795
0.00160738
7.17719e-05
-0.000488279
-4.52256e-05
0.00108724
-0.0655448
-0.000168811
-3.14482e-05
0.000709171
0.000649181
0.000103136
-0.000424759
-0.000327558
-0.0288655
0.0637473
0.0776451
-0.112527
-0.00889846
-0.00222156
0.00707059
0.00404942
-0.0142974
-0.000259719
0.00565861
-0.00502669
0.00538939
0.0126821
-0.0130448
-0.000651373
0.000643586
-0.000161024
-0.0665313
0.0661577
0.000373633
0.0309587
0.0470689
-0.0600976
-0.0179301
0.0124683
-0.0752785
-0.0222277
0.0850379
-0.0131586
0.00277836
0.00535351
-0.00455606
-0.00615004
-0.00245246
-0.0167628
0.0587449
0.0127908
-0.0547729
0.068786
0.00454791
-0.053263
-0.0200709
0.000164077
0.000429295
-0.000786209
0.000192837
-0.000459625
-0.000119976
-0.00263589
-0.00112983
-0.00117725
0.00494297
0.0659797
-0.0462112
0.0115538
-0.0313223
-0.000768069
-0.00267319
0.00147743
0.00196383
-0.016281
0.0109937
-0.00394734
0.00923457
0.00144358
-0.102007
0.102495
-0.00193227
0.00296785
0.000627512
-0.0102301
0.00663478
0.00971141
-0.0102667
0.00157522
-0.00101996
0.00978022
0.00367862
-0.010491
0.0378394
0.0560738
-0.0279334
-0.0273604
0.0549246
0.0283012
-0.0558654
0.0277231
-0.0550835
-0.000232421
-0.000215289
-0.0330599
0.0124399
-0.0100191
0.0792221
0.0246173
0.00701149
0.0689613
-0.053533
0.0967201
-0.112148
0.00462414
0.0927589
-0.097383
-0.00670803
-0.00671047
0.013027
0.00039147
-0.0339888
-0.0875629
0.0276147
0.093937
0.0226645
0.0622381
-0.0258082
-0.0590943
-0.0233595
0.114782
-0.0535829
-0.0421458
0.0451006
0.0519698
-0.0559414
0.0552447
0.000696759
-0.0382638
0.036591
0.00167275
0.04071
-0.0802131
0.0736167
-0.0341136
0.0658655
-0.0826283
-0.00932355
-0.00802563
0.0106412
0.000893099
0.000648971
-0.000596066
-0.000946003
-0.00608667
-0.0429886
-0.00686614
0.001265
0.00137677
-0.0024543
-0.000187469
-0.0563682
0.0512276
0.0863388
-0.0811981
0.0342326
-0.0323829
-0.00184964
0.00994321
0.0266063
-0.013751
-0.0227985
0.00416705
-0.000559346
0.00224958
-0.00585728
-0.0646961
-0.000901348
0.0206778
0.0449197
-0.00282961
0.00671999
0.000276664
0.0414176
-0.111259
0.104125
-0.0342832
0.0452197
0.0136275
-0.0588644
1.70794e-05
-0.00359398
0.00690327
0.00155513
-0.00486442
-0.00113595
0.0609176
-0.0597817
0.036546
0.00608766
0.0143681
-0.0570017
0.0041171
-0.00728159
0.00260514
-0.181509
0.0279533
0.162202
-0.00864622
0.0389929
-0.0110801
-0.0279128
-0.00103985
-0.0016067
-0.00122043
0.00386698
-0.0410088
0.0443977
0.124372
-0.127761
-0.00174034
0.000666596
-0.00212008
0.00319382
0.0898911
-0.00174185
-0.0429295
0.000439811
-0.00115409
0.00205041
-0.00133613
-0.0182302
-0.116262
0.0151136
0.119379
0.00352733
0.0518289
-0.00372831
-0.0516279
0.0492912
-0.0702331
0.0596876
-0.0387456
0.0320682
-0.0368613
0.0490566
-0.0442636
0.00874337
-0.00238552
0.00608968
-0.0124475
0.00138851
-0.0444941
0.0534998
-0.0538298
-0.0365312
0.0965961
0.0183808
-0.0252676
-0.0897094
0.0473044
0.0175643
-0.135041
0.0701721
-0.00147416
-0.00856014
0.00624673
0.00378757
0.0278659
-0.050163
-0.00330528
0.0289546
-0.0269666
0.00755092
-0.00576386
0.000147643
-0.0019347
-0.0873453
0.00296899
-0.00185571
0.0736426
-0.150383
0.0785961
-0.0269929
-0.0866248
0.0414073
0.0722104
-0.0716874
0.0207393
0.00268983
0.0482583
-0.0431054
0.0291545
0.0102784
-0.0833817
0.0960613
-0.0126796
-0.0208299
-0.00972374
0.11737
-0.0868161
-0.00346496
-0.00390235
0.00600712
0.0013602
-0.0259094
0.0594798
0.0410337
-0.0721731
0.0283871
-0.000650692
-0.00040254
-0.00098374
0.00203697
0.0466736
-0.0482234
0.0543683
-0.038125
-0.00706134
-0.0449448
-0.123486
0.0470654
0.076421
-0.0431164
-0.0326757
0.027598
0.00304666
-0.00209481
0.00061632
-0.00156817
0.00251472
-0.000269487
0.000801425
-0.0859474
0.00311609
0.0828313
0.0597941
0.0140373
-0.121848
0.0480169
-0.0717171
0.00021114
0.0715059
0.0011538
-0.00167077
0.00818776
-0.00767078
0.0487544
0.153752
-0.221935
0.0194283
0.00169014
-0.00227282
0.00152746
-0.000944772
-0.0918
0.0659451
0.0252086
0.000646305
-0.00292906
-0.0011342
0.00337682
0.00068643
-0.000774551
0.00836508
-0.00808373
0.000493195
0.00815927
0.00814352
-0.0158072
-0.000495633
0.0412544
0.0108243
0.00294126
-0.00264788
0.00139676
-0.0974924
0.105238
0.00683179
-0.0145774
0.0118424
-0.0667867
-0.0223577
0.077302
0.000738463
-0.00257112
0.0880879
-0.0862552
-0.0431585
-0.0368655
0.0890546
-0.00903058
-0.0406225
0.0247444
0.0403935
-0.0245154
0.0530898
0.0216112
-0.0728128
-0.00188818
-0.00216498
0.000349655
0.00210124
-0.000285914
-0.123198
-0.0429152
0.0395923
0.126521
0.0485001
-0.0378539
-0.0319263
-0.037416
-0.0317006
0.101043
-0.00191789
0.00423724
0.000257123
-0.00257648
-0.0307766
-0.0799777
0.0276931
0.0830612
-0.0297979
-0.028631
0.0203039
-0.000892505
-0.00312019
-0.001641
0.00338477
-0.00362774
0.00188397
-0.00545085
0.00535859
0.0249668
-0.0768131
-0.0847708
0.136617
-0.000268773
-0.000435615
0.00043278
0.000271608
0.0563378
-0.0599658
0.0478567
-0.0442287
-0.0143161
0.0424172
-0.00698476
-0.0211164
0.0865438
-0.0860612
-0.0191916
0.018709
0.0261555
0.022901
-0.0632794
0.0142229
-0.127538
0.0741406
0.019262
0.0341353
-0.00511848
0.00277426
0.000103364
0.00224086
-0.00769861
0.00929357
-0.000441155
-0.0135452
-0.00369435
0.018562
-0.00132246
-0.0637427
-0.00405629
0.0148485
0.0529506
-0.00960302
0.104558
-0.00677368
-0.0881814
0.00756503
-0.0470836
0.0808744
-0.0413559
-0.00169992
0.00412454
-0.00170279
-0.000721829
-0.0149277
0.000536882
-0.0025222
0.0169131
-0.107647
0.00305198
0.0128052
0.0917895
0.000126052
-0.000257319
0.00058151
-0.000450244
0.0369925
0.00818748
0.0274733
-0.00555075
0.0461786
0.0536458
-0.0942736
4.67096e-06
0.000734954
-0.000613573
-0.000585567
0.00211092
-0.00140976
-0.000115595
0.0175061
0.111058
-0.0479868
-0.0805777
-0.000160932
-9.63865e-05
0.000239938
-0.00040087
0.0619703
0.0167388
-0.0921358
0.0134267
-0.15533
0.0855498
0.0760275
-0.0062475
-0.018315
0.000973094
-0.0518255
0.0691674
0.0250266
-0.0148737
0.017425
-0.0275778
-0.0657309
-0.0244188
0.0901496
-0.0770228
0.038166
0.0388568
-0.00222526
-0.000241469
7.23429e-05
0.00239438
-0.0394831
0.0420999
0.0077942
-0.010411
0.0477423
-0.0554694
0.0077271
-0.0605583
0.0341279
0.0452893
-0.0188588
0.004333
-0.00222615
-0.0019485
-0.000158356
-0.00313543
-0.00258826
0.000605206
-0.0421245
-0.0429869
0.0458853
0.0145547
0.0018893
-0.0623293
0.00207202
-0.000266616
-0.00160473
-0.000200669
-0.000938035
0.00752088
-0.0129221
0.00633929
0.00674482
0.0219142
-0.0399361
0.0112772
-0.019285
-0.0164023
-0.00829541
0.0439827
-0.0741398
-0.00972514
0.0289043
0.0549606
-0.00156015
0.0148844
-0.00846004
-0.00486417
-0.0529646
0.000492236
0.0331875
0.000322752
0.0259231
-0.134022
0.126406
-0.0183075
0.0278598
-0.0338846
-0.0511716
-0.0274364
0.0551595
-0.000113187
0.0391629
0.0030247
-0.0420745
-0.0575685
-0.0598812
0.11745
-0.00301523
-0.000969461
-0.00174905
0.00573375
0.00317281
-0.00465272
0.00167423
-0.000194318
0.0361211
-0.00534243
-0.0284543
-0.00232437
-0.00316553
-0.00216848
0.00231878
0.00414348
-0.0121572
0.0683889
-0.0603753
0.0755344
-5.98011e-05
0.0278481
0.00930175
-0.0064437
-0.0307062
0.058524
0.000124484
-0.0586485
-0.0544148
0.113547
-0.0288845
0.0602417
0.0203904
-0.0517476
-0.0148603
-0.0240916
0.0157402
0.0232117
0.00334072
0.00362946
0.000729366
-0.00769955
-0.0335205
-0.0388501
0.0991545
-0.0267839
0.0430602
-0.0350717
-0.000162306
-0.00782614
-0.0526171
0.114749
-0.0487432
-0.0133885
-0.00160079
0.00187305
-0.000204443
-6.78193e-05
-0.000979133
0.0215071
-0.00381431
-0.0167137
0.00274177
0.00375706
0.000156273
-0.0066551
-0.000251404
-4.40336e-05
-3.55824e-05
0.00033102
2.81119e-05
7.19877e-05
-0.000351503
-0.0088908
0.0223181
0.0703058
-0.083733
0.0810342
-0.0809174
-0.000116742
0.000307776
-0.000365284
5.75081e-05
-0.0128405
0.000969093
0.00222624
-0.00142495
-0.00177039
-0.00860918
-0.00660001
0.0039518
0.0112574
-0.0557521
0.0268677
0.000228139
0.000320545
-0.000808985
0.000260301
0.0341272
0.0546893
-0.0346794
-0.0541371
0.0144018
0.155616
-0.180005
0.00998767
0.0584411
0.0645139
-0.0627133
0.00196629
-0.012959
-0.00171026
0.012703
-0.0327771
-0.0297554
0.0625325
0.0316547
-0.0644319
-0.0543334
-0.0449468
-0.0652184
0.164499
0.050697
-0.0563872
0.00569013
-0.0730907
0.134374
-0.0715662
0.0327808
-0.0302218
0.0861913
-0.00369246
-0.0690214
-0.0134774
0.0695592
-0.0705031
0.0106612
-0.0097173
-0.000275617
-0.00592753
0.00747393
-0.00127078
0.00256901
-0.0057829
0.00598106
-0.00276716
-0.000165646
4.95953e-05
0.000810144
-0.000694094
0.0219835
0.0224339
-0.0335665
-0.0108508
-0.00515515
-0.00538303
0.00611389
0.00442429
-0.0113163
0.0327105
-0.0434048
0.0220106
0.000835279
-0.0083869
0.0109687
-0.00341711
0.0502393
-0.00469953
-0.0455397
0.0390054
0.035086
-0.126585
0.0524934
-0.0986845
0.0607282
0.0769618
0.0329401
-0.0999699
-0.0464252
0.108721
-0.0388419
-0.0234535
0.00192847
0.00883093
-0.0123838
0.00162436
0.0280465
-0.0034487
-0.0245978
-0.0301299
0.0444329
-0.00371811
0.0195859
-0.0314079
0.00127196
-2.38387e-05
0.000859937
-0.00210806
0.011887
-0.0388536
-0.0011842
0.000184718
1.53326e-05
0.000984154
0.00265017
-0.000246239
0.000932373
-0.00333631
-0.00060548
-0.0026457
-0.0773211
-0.0143446
0.00159789
-0.0109847
0.0237314
0.0197089
-0.0900705
0.0218648
0.0484968
-0.00309764
0.0575501
-0.0822545
0.027802
0.00102271
-0.000788837
0.00138649
-0.00162037
0.0786598
0.0127101
0.00213334
-0.0935033
-0.00100857
-0.000776271
0.00207247
-0.000287622
0.00288989
0.00161533
-0.0688948
0.0643896
0.006335
-0.00100264
-0.0046397
-0.000692654
0.00618594
0.00442745
-0.00344002
-0.00717337
-0.111531
0.097429
-0.0879632
0.102065
-0.0554969
0.109945
-0.054448
0.00313984
-0.0452038
0.00914756
0.0329164
0.00349081
-0.0037332
0.00089029
-0.000647904
0.0482304
-0.00241958
0.00125441
-0.129181
0.00209409
0.0726722
-0.0334154
-0.00025182
0.00136829
0.0303676
-0.0247528
-0.00698314
0.0778592
-0.0301469
0.0339046
0.00386616
-0.00483946
0.000166477
0.000806826
0.0337429
0.0230178
-0.0739644
0.0172036
-0.000641079
0.000200815
0.000665003
-0.000224738
-0.000401537
0.00140607
0.00518141
0.000327512
-0.00767422
0.0061383
0.00540208
0.0752054
0.0408299
-0.037191
-0.0788444
-0.132177
0.141609
-0.00853093
-0.000901614
0.0311015
-0.0315285
0.000426984
-0.0360049
7.39789e-05
0.000258086
-0.00300444
-0.0020931
0.0148441
0.206822
-0.157896
-0.0637698
0.0289675
-0.0605411
-0.0179531
0.0495268
-0.00298869
0.0388818
-0.000634936
-0.0856728
0.0474259
-0.0224544
0.00946738
-0.0380183
0.0475131
0.0464244
-0.0559192
-0.0666124
0.0891563
-0.152034
0.12949
-0.000117092
0.000151484
-0.00146693
0.00143254
0.000251999
0.00217169
-0.000724214
-0.00169947
0.0449581
-0.0157872
0.0402117
-0.0693825
-0.00350335
0.000407489
0.00318692
-9.10608e-05
-0.0120078
0.0106679
-0.0366785
0.0121616
-0.0459348
0.00567972
-0.00283996
0.0178462
-0.020686
-0.132316
0.0155921
0.126564
-0.0098401
0.039336
-0.0259604
-0.0189555
0.00557988
0.0348812
-0.053585
0.00669599
0.00474154
0.0077141
0.0511457
-0.0636013
0.0248803
-0.00728071
-0.025381
0.00778137
-0.0797065
-0.00771906
0.014679
0.00120011
-0.000949064
9.57119e-07
-0.000948115
0.00509495
0.00124923
-0.00539607
0.0182084
-0.0323556
0.0390276
0.0169305
-0.142923
-0.0228144
0.148807
-0.111867
-0.0152953
0.0263595
0.100803
0.0578873
-0.03501
0.0286664
-0.0515436
0.109193
-0.0062344
0.00455457
-0.107513
-0.017687
-0.0376012
-0.00403282
-0.015576
0.00755451
0.0120543
-0.00132858
0.000494421
0.000123866
0.000710296
0.0148468
-0.0768222
0.0619755
0.106484
-0.00748558
-0.112198
-0.026906
0.0560233
-0.0468044
0.0400643
-0.122332
0.0135458
0.0687222
-0.00451463
-0.0120329
-0.0275199
0.0440674
0.00280576
0.0490636
0.0814962
-0.129706
-0.000853513
0.0497113
-0.0833439
0.0895148
-0.0558823
-0.0966892
0.0949774
-0.00646342
0.00817523
0.00161606
0.00332872
-0.0943297
0.0893849
-0.00145926
0.00358772
0.00585675
-0.00798521
0.000126236
-0.000851677
-0.000222679
0.000948119
0.0879711
0.00153187
-0.018586
-0.0709169
-0.000607277
0.000715061
-0.000472524
0.00036474
0.000866285
0.00321763
-0.00223934
-0.00184457