/*--------------------------------*- C++ -*----------------------------------*\
| =========                 |                                                 |
| \\      /  F ield         | OpenFOAM: The Open Source CFD Toolbox           |
|  \\    /   O peration     | Version:  2506                                  |
|   \\  /    A nd           | Website:  www.openfoam.com                      |
|    \\/     M anipulation  |                                                 |
\*---------------------------------------------------------------------------*/
FoamFile
{
    version     2.0;
    format      ascii;
    arch        "LSB;label=32;scalar=64";
    class       surfaceScalarField;
    location    "0.0440925";
    object      phi;
}
// * * * * * * * * * * * * * * * * * * * * * * * * * * * * * * * * * * * * * //

dimensions      [0 3 -1 0 0 0 0];

oriented        oriented;

internalField   nonuniform List<scalar> 
7683
(
-0.0027606
-0.015578
0.00735728
0.0109813
0.00154136
-0.000345878
0.000840989
-0.00203647
0.00297265
0.00594624
0.00262107
-0.01154
-0.0322486
0.0067964
0.0149564
0.0104958
0.000338235
-0.000898595
0.000106245
0.000454115
-0.0106263
0.0292843
-0.00683663
-0.0118213
0.00214475
-0.00124791
0.000629584
-0.00152642
-6.80093e-05
-0.00097112
0.000627839
-0.00431195
-0.000284205
0.00321721
0.00137895
-0.00185185
0.000666667
-0.00200473
0.00318992
0.000486333
-0.00120951
0.00205232
-0.00132914
0.00851856
-0.00188718
0.00594156
-0.0125729
0.0279028
0.0093115
-0.00636722
-0.0308471
-3.90995e-05
-0.00615081
0.00736864
-0.00117873
-0.000216201
0.000158125
0.000726505
-0.000668429
0.0223047
0.0230068
-0.0339204
-0.0113911
-0.00523374
-0.00516578
0.00618036
0.00421915
0.0279962
-0.00299576
-0.0250005
0.00107661
-0.00011483
0.00101286
-0.00197464
-0.000183388
0.000716541
-0.000773609
0.000240455
-0.00102874
-0.004702
0.00166049
0.00407025
0.000362121
-3.12669e-05
0.00181389
0.000454075
-0.00134816
0.00266053
-0.00176644
-0.00350504
0.00125447
0.00116002
0.00109055
-0.00654794
0.00198147
-0.00695208
0.0115185
-0.000865177
0.000218248
-0.000511426
0.00115836
-0.000866441
0.00152558
-0.000584035
-7.51061e-05
0.000438759
-0.00413499
0.0032377
0.000458531
0.0140911
-0.0049854
-0.00499613
-0.00410961
0.00229147
-0.000272983
-0.00734582
0.00532733
0.000250977
4.7976e-05
-0.00302247
0.00272352
-0.000460436
0.00176855
-0.000263293
-0.00104482
-0.00132417
0.00164503
0.000139418
-0.000460281
-0.000365126
0.00272464
0.000450857
-0.00281037
-0.0126866
0.00309868
0.00254345
0.00704448
0.00020409
0.00250684
-0.00185889
-0.000852037
0.000878147
-0.000278392
0.000187916
-0.000787671
0.000355039
-0.00130555
-0.000872374
0.00495887
-0.0155644
0.0125349
-0.00192938
-0.00367419
-0.00285451
-0.0100986
0.0166273
-0.000229355
-3.33259e-05
0.00026082
-0.0512749
0.0157275
0.00201501
-0.00258935
0.000229536
0.000344805
-0.0290513
-0.0222236
0.0423388
-0.0204761
0.0114707
-0.0333334
0.000986325
-0.000488492
0.000356104
-0.000853937
-0.000322247
-0.000682002
0.00100425
0.0155765
-0.00538483
-0.00701961
0.000849541
-0.000483081
0.00164855
-0.00114032
-0.000420138
-8.72365e-05
0.00164769
-0.00281829
0.000128923
0.00295605
-0.000266679
0.00076565
-0.000488421
0.000600918
-3.60671e-05
0.000362593
0.00304256
-0.00151188
0.000133153
-0.00122846
0.0005455
0.000549805
0.00705479
0.0155559
-0.0210887
-0.00152196
0.00367423
0.008222
-0.00365638
-0.00823985
0.00681227
0.00544603
-0.0123346
7.6323e-05
0.0245464
0.00335634
-0.024091
0.000318977
0.0330836
1.00266e-05
0.0013914
-0.00111037
-0.000291058
-0.000184545
0.000884763
-0.000690191
-0.00248101
-0.000618748
0.00114848
0.00195128
0.00021811
-0.0028623
0.000163182
0.00139146
0.0145958
-0.0234008
0.00741362
0.00158047
0.00157193
-0.00422285
0.00107045
-0.00103209
-0.00386123
0.00225528
0.00263803
0.000979692
0.00188893
-0.00341085
0.000542233
-0.000244475
-0.000756837
-0.000339303
0.00134062
-0.0115432
-0.00303971
-0.0018339
-0.00118807
0.000910917
0.00211105
0.00476767
-0.00391887
-0.00387503
0.00302623
0.000544158
0.000625389
-0.000802519
-0.000367028
-0.00704688
0.0125541
-0.0138147
0.00830741
0.0011258
0.000373229
-0.000866642
-0.000632387
0.000761858
0.00411793
-0.000616135
-0.00426365
-0.000473469
0.000311935
0.000490686
-0.000329153
-0.000244083
-0.00176698
0.00171574
0.000295323
0.00326581
-0.0080181
-0.00276371
0.007516
0.00336123
-0.000455752
-0.000938944
-0.00196654
-0.00190025
-0.000902624
0.0108264
-0.00802354
-0.00208183
0.00203666
-0.00197254
0.0020177
0.0021978
-0.00177404
0.00237744
-0.0028012
-0.0103991
0.0015322
0.00363315
0.00134213
-0.0010676
-0.00133501
0.00106047
-0.00116046
0.00224195
-0.00139392
0.000312437
0.0044351
0.00273648
0.00961368
-0.0167853
0.0300803
-0.00321237
0.00380234
0.000148274
-0.000322641
-0.000624431
0.000798799
-0.00701183
0.000692349
-0.00105468
0.00737416
-0.00111901
0.00132124
0.00161446
-0.00181669
0.00203417
-0.00143529
-0.00105932
0.002099
0.00114382
-0.00073765
-0.00250517
-0.00237119
-0.00140689
0.00251845
0.00125964
0.00249173
-0.00279299
0.00386208
-0.00356082
-0.00246857
-0.00114803
0.00281954
0.000797067
-0.000611187
0.000722034
0.000474619
-0.000585466
0.000986757
0.000468168
0.00167879
-0.00313372
5.0457e-05
0.000824897
-9.44342e-05
-0.00078092
0.00193381
-0.00491079
0.00192399
0.00105298
0.0105229
-0.00888492
-0.00167711
-0.00510078
0.0105072
0.0129387
-0.0183451
-8.08727e-05
0.00062345
-0.00171054
0.00116797
-0.000166675
-0.00731907
-0.00113636
0.0121596
0.0012109
0.00443712
-0.0178076
-0.000588225
-7.66163e-05
0.000211316
0.000453525
-0.00116169
-0.00189004
-0.00159635
0.00464808
0.000192436
-0.000168005
-3.72589e-05
1.28276e-05
0.000221395
-0.00053691
0.000315515
-0.00306378
0.00159333
0.00248597
-0.00101552
-0.000628312
0.000449082
-5.38314e-05
0.000233061
0.00205337
0.00057854
-0.00617058
0.00353867
-0.000542084
0.00134237
0.000335132
-0.00113542
0.00321857
-0.00358915
-0.00321483
0.00881413
0.0232783
-0.00689589
0.000353365
-0.000529761
-6.99188e-06
-0.000148653
-6.17104e-05
0.000563728
-0.00240874
0.00271418
-5.44578e-05
0.00735277
-0.00593469
-0.00501803
0.00359995
-0.000354527
0.00194065
-0.00199632
0.000410195
0.000387076
-0.000768239
0.000442781
-6.16183e-05
0.00125656
-0.00041945
0.000349951
-0.00118706
0.0195122
-0.00556007
-0.0108323
-0.00311979
0.00465956
-0.000295617
-0.000678569
-0.00368537
0.000413229
-0.00311655
0.00286239
-0.000159074
-0.000902714
0.00274685
-0.00323131
0.00138718
-0.000188243
0.000504049
0.00231223
-0.00262803
-0.0427435
-0.0308425
0.0266798
0.000530893
0.000608961
-0.000508338
-0.000631516
0.000825798
0.000985435
-0.00143099
-0.000380243
0.000971296
0.00857233
0.00208983
-0.0116335
3.39131e-05
0.00128668
-0.00652929
0.00520871
-0.00292318
-0.00104771
0.0046221
-0.000651214
-0.0147926
-0.00707318
0.0178517
0.00401412
-0.00238393
0.0051765
-0.00357055
0.000777989
-0.00357972
-0.00266897
-0.000317754
0.00656645
0.00217711
-0.00919212
-0.00590245
0.0129175
0.0119391
-0.0031348
-0.0164326
-0.00390828
0.00436713
0.0130023
-0.0134611
-0.000164318
-0.00176507
0.00131723
0.000612155
-0.000946581
0.00272599
0.000819155
-0.00259856
-0.0021947
0.00115953
0.00202193
-0.000381482
-3.64544e-05
-0.000308485
0.000726422
-0.000781019
0.00072954
-0.00108884
-0.00439359
0.000387244
0.000138558
0.00324742
-0.00336015
-8.80341e-05
0.000200774
0.000286808
0.000915208
-0.0102586
0.00905655
-0.000831299
0.00109732
0.00107611
0.000934354
0.000284878
-0.00121923
0.00219527
-0.000158291
0.00116801
-0.00320498
-0.000545145
-0.000757725
-0.00179287
0.00309574
0.00205242
-0.000670616
-0.00184382
0.000462013
-0.000157359
0.00102029
-0.000862926
-0.000532549
0.00132787
-0.000864219
6.88947e-05
-0.00179259
0.00192847
0.000226237
0.00284798
-0.00302017
4.81247e-06
0.000167371
-0.00165969
0.000407909
0.000470764
-0.00136868
0.00111239
-0.000134675
0.000390965
0.00144304
-0.000476537
-0.000280611
-0.000685889
-0.000296162
-0.00146282
0.00157444
-0.0158092
0.0187717
-0.00663664
-0.000607467
0.000673457
0.000305107
-0.000371098
-0.00804949
-0.00254333
0.0141335
-0.00354068
-0.00142788
-0.0034543
0.00305638
0.0018258
-0.000341942
-0.000821013
0.000784764
0.000378191
0.000666702
-0.0035818
0.00432742
-0.00141232
0.00352443
0.0051941
-0.00832428
-0.000394248
-0.0041856
0.00444323
0.000181244
-0.000438873
-0.00475987
-0.00133493
0.0053406
0.000754197
-0.0219136
-0.017764
-0.0137695
0.00553985
0.00219791
0.0060317
0.00246822
0.000763402
0.000755516
-0.00398714
-0.000824204
0.00245795
-0.000891819
-0.000741927
-0.00129623
0.00422847
-0.00293223
-0.0013816
-0.0022223
0.0036039
-0.00519207
0.000403247
0.00492836
-0.000139532
0.0182478
-0.00631054
-0.00976019
-0.00470763
-0.0047595
0.00147645
0.00799069
0.0014167
-0.0022462
0.000347143
0.000482358
-0.000419751
0.00128475
-0.00208454
0.00121954
-0.000262725
0.00158355
-0.0014733
0.000152477
-0.000226509
-0.000250456
-0.000955123
0.00143209
0.00053401
-0.00367213
0.00162482
0.0015133
0.00141315
-0.0065375
0.030922
-0.0257977
-0.00706857
0.00752157
-0.00539429
0.000684075
-0.00580044
0.00307769
-0.000284489
-0.00602269
0.00538484
0.00092234
-0.00226585
-0.00167597
0.00716039
-0.000498164
-0.000915539
0.000740102
0.000673601
0.00361219
-0.00355778
7.67184e-05
-0.0340108
0.00701426
0.0269965
6.84336e-05
-0.00141123
-6.78286e-05
-0.000421139
0.00019877
0.000290197
0.00066271
-0.00113945
0.00128973
-0.000812991
-0.000551969
-0.00050034
0.000172191
-0.00411427
-0.00454556
0.00289671
0.0088745
0.00476859
-0.00920799
-0.000163881
0.000403365
-1.20364e-05
0.00432778
-0.00576753
0.00302022
0.0172938
0.000888207
-0.0176124
-0.000569665
0.000951344
0.000212599
0.000402875
-0.00156682
-0.00170789
-0.0007087
0.00125613
-0.000120159
-0.00543041
0.00369872
-0.00122882
-0.00226811
-0.00123713
0.00473406
-0.00210884
0.000776595
0.000504202
0.000828039
0.00139692
0.00182426
-0.00299263
-0.000228552
0.000168845
-0.00163247
0.000517158
0.000946462
0.00129036
-0.000743454
-0.00247021
0.0019233
0.000877133
-0.00223484
-0.000350178
-0.00112957
0.000866826
0.000377637
-0.000114893
0.000505863
0.00214139
0.00201743
-0.00466469
-0.000903932
0.00201059
-0.00244078
0.00133413
0.000816956
-3.83956e-05
0.00043652
-0.00121508
-0.00453757
0.00523618
-0.00362179
0.00287253
9.76317e-05
-0.00232465
-0.000645513
0.0177732
0.0109794
-0.0205345
-0.00821799
0.000577813
-0.000844005
-0.000200785
0.000466977
0.00116538
-0.00197294
0.00120144
-0.00039388
-0.000907785
0.000675417
0.000171778
-0.00211942
0.00162568
-0.000334506
0.00082825
0.00261877
0.000513389
-0.000616232
0.00320298
0.000687849
-0.00327459
-0.000749855
0.000485127
0.000590715
-0.000325987
-0.00309028
0.0015615
0.000902407
0.000626371
0.00118856
-0.000867067
0.000209399
0.000701467
-0.00169099
-0.00103462
0.00202414
0.00288908
-0.0105795
0.00453137
0.00315902
0.00763797
0.00365439
0.0050355
-0.000525128
0.000481881
-0.0029887
0.0055645
-0.00889739
0.00632158
-0.00398254
0.00780113
0.00223253
-0.00605112
0.000612554
-0.00140152
0.000391533
0.000397434
-0.000412269
0.00072137
-0.000158573
-0.000150528
-0.00861532
-0.0230116
0.0287825
0.00284446
0.000497646
0.00360753
-0.00390273
-0.000202448
0.015893
0.0086603
-0.00504113
-0.000407352
0.0207541
0.00194545
-0.0222922
-0.00332476
0.00329429
0.00146599
-0.00143552
0.00031862
0.000317944
-0.000249488
0.000164053
0.00159924
0.00108469
0.000282361
-0.000852214
0.000203974
0.000365879
-0.00150302
0.000313186
-0.000134326
0.0103909
-0.00224834
-0.0134201
0.00527759
0.00036679
3.19666e-05
-0.000132093
-0.000266664
-0.00195345
0.00123648
-0.00172372
0.0024407
-0.0113911
0.0060372
-0.00223082
0.000302125
-0.00109768
0.00556323
0.00430555
-0.00305611
-0.00013529
-0.00111415
0.00372419
-0.00138402
-0.00107145
-0.00126872
-0.00563348
0.0116227
0.0138533
0.00130202
-0.00332262
-0.0118327
-0.00085678
-0.00655809
0.00310292
-0.00752855
0.0254526
-0.00598501
0.016171
-0.000438487
0.00454224
0.00272558
-0.000336541
-0.00270115
0.000312109
-0.0011701
-0.00274175
0.00250767
0.00140418
-0.00138767
0.000539732
0.000236753
-0.00309798
0.00362049
0.000347163
-0.00086968
0.00121132
-0.000617712
0.000535942
-0.00112955
0.00204131
0.00070824
-0.00039267
-0.00235688
-0.00197112
0.0010127
0.000533637
0.000424779
-0.000225179
0.000146271
-6.01963e-05
0.000139104
-0.000481019
0.000825136
-0.000344117
0.00520876
-0.00665432
0.0136052
-5.90621e-05
-0.000159283
0.000552093
-0.000333748
0.00062173
-0.000112703
0.000540213
-0.00104924
0.00310285
0.000149778
-0.000464998
-0.00278763
0.00510388
0.00267315
-0.00243049
-0.00534654
0.00294784
-0.00278659
0.000732244
-0.000893499
0.000690993
-0.000673731
-0.000263156
0.000245895
0.000434313
0.000311379
-0.00036857
-0.000377123
0.00464372
-0.000793479
-0.00354812
0.000132078
0.000174195
0.000194465
-0.000500739
0.000906933
7.93915e-05
0.00204992
0.000797829
-0.00062701
-0.00222074
-0.000606081
-0.00313637
0.0199135
0.003547
0.00764934
-0.00246277
-0.00873356
-0.00216857
-0.00732686
0.000303306
0.00113682
-0.00376276
0.00227226
0.000353679
-0.0018884
0.00134771
0.000376367
0.000187097
0.000165294
0.000109705
-0.000462095
-0.00196189
0.00418691
-0.00417847
0.00150189
-0.0023336
0.000799547
3.21626e-05
0.00447523
-0.00016248
-0.000217851
-0.0040949
0.00154466
9.10897e-06
-0.000852298
-0.00559536
-0.010131
0.0186237
-0.00289734
-0.000134172
0.000402998
0.000577887
-0.000846713
0.000816134
4.67248e-05
-4.31697e-05
-0.000819689
-0.00762262
-0.01182
0.00363344
0.00132254
-0.00225837
-0.00217533
0.00202496
0.00361289
0.000994191
-0.0018815
-0.00018153
-0.000460538
0.000310203
0.000331865
-0.00807297
-0.000214191
0.00521608
-0.00510941
-0.000772454
0.00193523
0.00394663
-0.000759767
0.00191277
-0.00134599
0.0050719
0.00236052
0.000421166
-0.00391842
0.00519214
-0.00169489
0.00571859
0.00407134
0.00214772
0.0134179
0.00333885
-0.000674548
-0.00368793
0.0220456
0.000815291
0.000668078
0.000340531
-0.0018239
0.0123543
-0.00928849
-0.00685238
0.00378653
0.00149897
-0.00024816
0.00353705
-0.00478786
-0.000885818
-0.000302749
0.00173282
-0.000544255
0.00019776
0.00352255
0.00168852
-0.00540883
-0.000314696
0.000621077
-0.00030638
0.000128812
-0.00427697
-0.000241811
0.00438996
-0.00106359
0.00103962
0.00114977
-0.00910411
0.0101764
-0.0107057
0.00963344
-0.00973869
0.00153051
0.00241248
0.0057957
-0.00458303
-0.0141958
0.00279332
0.0159855
-0.00124824
-0.000893919
0.0147354
-0.0125932
0.000746115
-0.000178707
-0.000603863
0.000140702
-0.00130581
-0.00265036
0.00381547
0.0013245
0.000793138
-0.00219851
0.0162334
-0.0180075
-0.005278
0.00705209
-0.00519925
-0.00282357
0.00443077
0.00359206
-0.00257678
0.0364989
0.00267762
-0.00017449
0.00255454
-0.00505767
-0.00232487
0.00444962
-0.000834385
0.00111881
-0.00407783
0.00465843
-0.00169941
-0.00399856
0.00013591
0.0018046
0.00205805
0.000391486
0.0036302
-0.00166999
-0.00235169
0.00340067
-0.0012184
-0.00272741
0.00332815
0.00506241
-0.00605446
-0.00233611
-0.00276271
0.00226713
0.00124275
-0.000747171
0.00152603
-0.000791458
-0.00305009
0.00231551
-0.0038094
0.00086394
0.000513037
0.00243242
0.000918216
-0.00066105
-0.00113142
-0.000695344
0.000404715
-0.000505691
0.000796319
-0.00456822
-0.00192442
0.00663125
-0.000138618
0.0019722
-0.000498454
0.00318581
-0.00321043
0.000355826
-0.000285073
0.00313968
0.00102044
0.018473
-0.0199008
-0.00133187
-0.00068572
-7.77044e-05
0.00209529
-0.00333122
0.000678593
0.000769529
0.0018831
-0.0038752
0.00243614
0.00194502
-0.00050595
-0.00377115
0.00228178
-0.00352522
0.00501459
0.000573349
-0.000801182
-0.00195543
0.00218326
-0.00015822
0.0015534
0.00385226
-0.00524744
0.00612765
-0.00299732
0.00150794
-0.00463827
-0.00194444
0.00578909
-0.00302745
-0.000817195
0.00865083
-0.00334699
-0.00428309
-0.00102075
-0.0023317
-0.000304514
4.68593e-05
0.00130766
-0.00209065
0.00184603
-0.00106304
-9.70923e-05
0.000378613
-0.000506147
0.000224627
0.000658922
0.000364576
-0.00127912
0.000255617
-0.00237394
0.00235503
0.0234142
-0.0233953
0.000571976
-0.000228376
-0.000884471
0.00054087
-0.00525638
-0.00221554
0.00501108
0.00246084
0.0243169
-0.0133534
-0.000759855
-0.0102036
-0.000105238
-0.00117645
0.00128169
0.000247192
-0.00231236
0.000757454
0.00130771
0.000361303
0.00041376
-0.000775063
-0.00124926
0.0034918
-0.00152549
-0.000717046
-0.00515278
0.000900176
-0.000556341
-0.000402897
0.00152772
0.000468173
-0.000579189
0.00435641
0.000290963
-0.00275121
-0.00189617
-0.00210545
0.000401566
-0.000575514
0.00227939
-0.00125932
-0.00197275
0.00111265
-0.000941534
0.000668894
0.00027264
0.00280328
-0.00334354
-0.000181047
0.000721313
0.000374761
-0.00194765
0.00354509
-0.000895263
0.00188888
0.0022538
0.0024102
0.000889689
-0.00391864
-0.000194917
0.00991853
-0.000849106
-0.00199047
0.00253106
0.00178615
-0.00232674
0.00135306
-0.00167222
-0.000142072
0.000461229
-0.00317505
-0.00116641
0.00195194
0.00238953
0.00108195
-0.000315553
0.00147555
-0.000186259
0.000330245
-0.000912347
0.000768361
0.00259887
-0.00531206
0.00560227
-0.00111559
0.000391091
-0.000201544
0.000926045
-0.00219425
-5.88809e-05
-0.00125191
0.00255931
-0.00103142
-0.00277716
0.00286379
-0.000583719
-0.00363485
0.00135478
0.00116711
-0.000575352
0.00282203
-0.00341379
0.000156217
-6.29079e-05
-5.45264e-05
-3.87825e-05
0.000200301
9.59792e-05
-0.00029628
9.9145e-05
-0.000246438
0.000697035
-0.000549742
0.00409069
-0.00334287
0.00276658
-0.0035144
-0.00347582
0.00104658
0.00193079
0.000230924
-0.00232631
0.00190714
-0.000105767
0.000693345
2.13824e-05
-0.000584931
0.0015807
0.000169609
-8.75985e-05
-4.53473e-05
-9.22337e-05
-0.00122058
0.000479384
-0.0010685
0.00180969
-0.00295869
0.000375036
0.00340945
-0.000788693
-0.00032017
-3.23153e-06
0.00111209
-0.00290865
0.00134384
-0.00372154
0.00709819
-0.00255177
-0.000824887
0.0069462
-0.00167965
-0.0002895
-0.000468524
0.000758024
-0.00961718
0.0108341
0.00895899
-0.00410941
-0.00884095
0.00399137
0.00125918
-0.000398715
-0.000777612
-8.28532e-05
0.00197352
-0.00123449
-0.000900528
0.0034059
0.00340841
0.000468095
-0.00728241
-0.000815295
-4.14456e-05
0.000750974
-0.000276605
0.000460682
-0.0016871
-0.00342366
-0.00193991
0.00248488
-0.000572826
0.00411605
-0.00963318
-0.00376242
0.00927956
-0.000425039
0.00027087
0.000375563
-0.000206144
9.97255e-05
-0.00105525
0.000107649
0.00021245
0.000735151
-0.00435446
-0.000538522
-0.000661788
0.00555477
0.0061657
0.00961727
-0.00212291
-0.0017552
-0.000364757
0.00424287
0.00012672
0.00283312
-0.00254661
0.00221444
-0.00201771
0.00184458
-0.00746261
0.0047856
-0.0200859
0.0227629
0.0241548
-0.00340071
0.02377
-0.0441389
-0.0022759
-0.00108485
-0.00103608
0.000429626
0.0016913
0.0163592
0.0286526
-0.0115059
0.00459104
0.0177298
-0.0108149
-0.0202667
0.00657616
-0.00387814
0.0175686
-0.00113469
-0.00172057
-0.000293072
0.00314833
-0.00550616
0.01724
-0.0232398
0.00425681
-0.00700171
0.00342907
-0.0109809
0.00613089
0.000958548
-0.00244206
0.00443136
0.00176866
0.00127696
-0.00226055
-0.000785073
0.00106426
-0.000130486
-0.000664726
-0.000269049
-0.000692025
0.00159998
-0.00115243
-0.0048215
-0.00288219
0.00570089
0.00200279
9.38427e-05
3.74216e-05
-0.000296934
0.00413971
-0.0038802
-0.00359503
-0.0014963
-6.05787e-06
-0.00499364
-0.00595794
0.00930727
0.00164431
-0.00713987
-0.0102383
0.00258554
-0.00279673
-0.00958003
0.00870118
0.00367559
0.0146494
-0.012182
0.00249145
-0.00344131
0.00704865
-0.00282678
-0.000780562
-0.00201736
0.00187769
-0.00264691
0.00337074
-0.000112756
0.000250865
-0.00350885
-0.00332646
0.00116643
0.000142665
9.44381e-05
0.00390669
-0.00395315
-0.00254315
-0.00230214
0.000685512
0.00415977
-0.00170694
-0.000690091
-0.0018631
0.00426013
0.00479299
0.0122115
-0.00105965
-0.0159448
0.00757837
0.00199648
-0.0116526
0.00207773
0.016527
0.00211927
-0.00804414
-0.00395843
0.0120475
-4.49716e-05
-0.00230061
0.00029017
-0.00131601
-0.00278552
0.00115031
0.00121545
-5.74555e-05
-0.000458523
0.00126041
-0.000744428
-0.000348844
0.00100353
-0.000439977
-0.000214705
-0.000382959
0.000739165
0.000460749
0.00307309
-0.000688911
-0.0032799
0.000895722
0.00323437
-3.24698e-05
0.00243013
-0.0031701
5.10563e-05
0.00132402
-0.00108813
-0.000208095
0.00409616
-0.001846
-0.00204206
0.00176228
0.00150024
0.00104304
0.000327258
-0.000133451
-0.00295652
0.00325894
0.000449667
-0.00186039
-0.00184822
-9.99113e-05
0.00371564
-0.00134859
0.00120452
0.00303411
-0.000744311
0.00338435
0.000270892
-0.00291093
0.000765586
0.00234522
-0.000450275
0.000994136
-0.00244352
-0.00123063
0.00268001
-0.00262648
0.00301914
-0.00174893
0.00135627
0.00662676
-0.00676264
-0.00128931
0.0014252
0.000842486
0.00191343
0.00387085
0.0025138
0.00133027
-0.000489705
-0.00335437
0.00158797
0.00269741
-0.00177157
0.000942419
0.000303834
-0.00191671
0.000670457
-0.00175445
-9.37824e-05
0.00273509
-0.000886858
-0.000209205
-0.00213022
0.000584969
-0.00166462
-0.00102155
0.00259238
-0.00234057
0.000466743
0.00096092
-0.0011392
-0.00382028
-0.00153786
-0.000284722
0.00126508
0.000557503
0.00303257
9.13642e-05
-0.00216301
0.000113858
-0.00149943
0.00287344
-0.00148786
-0.00273986
0.00144791
0.000476038
0.000815919
0.000473024
-0.000409899
9.98201e-05
-0.000162945
7.26785e-05
-0.000129415
-0.000493961
-0.000565809
0.000153042
0.000906728
0.00104364
-8.03505e-06
-0.00019814
-0.000837468
0.000222235
0.00109688
-0.000275478
0.00102405
0.000522682
-0.000197927
-0.00134881
-0.000967851
-0.00103344
0.00176953
0.00023176
0.000273531
-0.00157865
0.00271617
-0.00141106
-0.00202258
0.00204922
0.000774789
-0.000801432
-0.00252516
0.0010647
0.000581413
0.000879041
-0.0220716
0.00721403
-0.0018273
0.000418572
-0.00168155
2.95824e-05
-0.000943778
0.0005082
0.000405996
0.000141462
-0.000588899
0.000794335
-0.000346898
0.000580424
-0.000983696
0.000917345
-0.000514073
0.000538614
0.000448455
-0.000475815
-0.000511254
0.000324745
3.23387e-05
0.000735938
-0.00258805
-0.000801271
0.00265338
0.00299749
-0.000708911
-0.00155264
0.0043734
-0.00600806
-0.00342639
0.00506105
0.0064341
-0.00506998
0.0163942
-0.000335159
-0.0164966
0.00043756
0.00151617
0.00587429
-0.000956355
-0.011237
-0.00213569
0.013206
0.00233946
0.00841335
-0.00846134
0.00290924
0.0164963
-0.00974276
-0.00966276
0.00372833
0.00416629
0.00361383
-0.000567889
-0.0141859
0.0113819
0.00337194
0.0305391
-0.00432851
0.0126798
-0.0169861
0.0125176
0.00390059
-0.00418272
-0.0100604
5.71447e-05
0.00355476
-0.00420256
-0.0163383
-0.0118549
-0.00296077
0.00357868
-0.00198374
-0.00497989
-0.00102956
0.00799319
-0.00946906
-0.0043696
0.00110777
0.0214951
-0.0300655
0.00283232
-0.000219323
-0.00355958
0.00327108
0.000247583
-0.000686344
0.000988665
0.00232016
-0.00232014
-0.000988677
-0.00186217
0.00197682
-0.000690825
0.000576173
-0.00128641
-0.00112489
-0.00242146
-0.00109903
0.00306372
0.000456769
0.00202578
0.00193032
-0.00345024
0.000720354
-0.000556745
-0.00347974
0.00137494
0.00237849
-0.00027369
-0.000934044
0.000846876
-0.00127975
0.00136692
0.00354212
-0.00293781
-0.000899927
-0.00311428
0.00238572
-0.00026891
0.000997465
-0.000349132
-0.00240067
0.000390678
0.00235912
-0.00472455
0.00117115
-0.000911404
-0.00112663
-0.0021304
0.000142756
0.00259762
-0.00324981
0.00288102
-0.00222883
0.000715094
0.00170225
0.00018028
-0.00112276
-0.00014593
0.000503729
0.000764957
0.00240058
4.36343e-05
-0.000278165
-0.00216605
0.000997486
0.00110789
7.48712e-05
-0.00218025
-0.0011083
-0.00271953
0.00232698
0.00150085
0.00117626
-0.00138085
-0.000867586
0.00107217
0.000307028
0.000612374
0.000256863
0.00239998
0.000481547
-0.00217329
2.87624e-05
0.000898251
-0.000844194
-8.2819e-05
-0.000345098
-0.000636781
0.000301033
0.000680846
-0.000542075
-0.000339454
0.000478086
0.000403444
-1.43828e-05
-0.000335596
-0.000192096
0.000540169
-0.000918042
0.000660234
-0.00393398
-0.00203418
0.00398738
0.00198077
-0.000196078
-2.10184e-05
0.00100094
-0.000783844
-0.00110648
-0.00034232
0.00125272
0.0011351
-0.00069748
0.000721268
-0.00115889
0.00138225
-2.7686e-05
-0.000219464
0.0146418
-0.000923436
0.00251511
-0.0020585
0.0181134
-0.0060733
-0.00327046
0.00281227
-0.00311059
0.00438901
0.00146338
-0.00199889
0.00181952
-0.00128401
0.0039133
0.00036235
-0.00027941
0.000794276
0.00255832
-0.00307319
0.000528346
0.00180938
-0.00261714
-9.30862e-05
-0.00222323
-0.00156363
0.000244615
-0.000866355
0.00106276
-0.000441022
-0.000259279
-0.000607599
0.00021058
0.000656298
0.000738433
0.000272596
-0.000430605
0.000154302
-0.00029984
0.000842906
-0.000697367
-0.00055049
-0.000188591
-0.000519532
-5.7147e-05
0.00188655
0.00057058
-0.00193852
-0.00204362
-0.000394598
0.00437674
-0.00138857
-0.000553872
0.000149856
-0.00118694
-0.00198039
0.000140509
0.000331737
-0.000636128
-0.000885304
-0.00272728
0.00222401
0.000219682
-0.000574581
0.00021987
0.00013503
-0.00098869
0.00125461
0.000568436
-0.000834361
0.000384654
-0.00151911
0.00127497
-0.000221607
0.00235883
0.000735308
0.00209244
-0.00181507
-0.00105312
0.000775744
-0.00330498
-0.00077038
0.000402547
0.00367281
0.00111449
-0.000812824
0.000272
-0.000573669
-0.00482324
0.000765875
0.000944176
0.00098505
-0.000652499
-0.00127673
-0.000217084
0.000729249
-0.00432157
0.000560895
-0.000225772
0.00034777
-0.000682893
0.000769304
0.00227078
-0.00197046
-0.00106962
-0.000546747
0.00104509
7.36282e-05
4.41273e-05
-0.000755914
-0.00012766
0.000839447
0.000808391
0.000395162
-0.00101505
-0.000188505
0.000153819
-0.000144819
6.21408e-05
-0.0027491
-0.00277466
0.00325565
0.00621435
-0.00763341
0.00587281
-0.00445376
0.000105276
-0.000779556
0.000415001
-0.000946005
0.00144263
-0.000117215
-0.000379407
0.000241051
9.71574e-05
-0.0014018
-7.33352e-05
-0.000235602
-0.000548534
0.000857471
0.00544152
0.000228353
0.0022219
0.00142597
0.000582329
-0.000148242
0.000326266
-0.000760353
0.00145202
0.00147811
0.000672215
-0.00360235
-0.000245152
0.000119287
-1.83471e-05
0.000144212
-0.0026956
-0.000442143
-0.000925109
-0.0023499
-0.0010231
-0.00367591
-0.00046849
0.00391098
0.000233416
0.0054792
-0.000493471
-0.0011956
-0.00284538
0.00418168
0.00144802
-0.000414213
-0.000304265
0.00154552
-0.00216619
0.000788185
0.000621437
0.000304884
0.00128043
-0.000797132
-0.00569623
-3.24946e-05
0.00681258
-0.00108385
0.00294367
-0.00410007
2.97622e-05
-0.00151365
-0.0069024
0.00271981
0.00101531
0.00164605
-9.23622e-05
-0.00256901
-9.32623e-05
7.53737e-05
-0.000190148
0.000208036
0.000269187
-0.00163082
0.00128498
7.66553e-05
0.0002023
-0.000449633
-6.18204e-05
0.000309154
-0.0174998
0.0117655
-0.008215
-0.00025417
-0.00852725
0.00374108
0.0204137
0.00191082
-0.0203724
0.0175381
-0.00808975
0.021404
0.0112322
-0.0115238
0.0143636
0.00432881
-0.0122922
0.00633326
0.00163009
-0.000286809
-0.000760729
-0.000923581
-0.00715464
-0.00373038
0.00803051
0.000305903
-0.00142722
0.00103759
8.37245e-05
0.00696741
-0.00900622
0.0141416
-0.0141545
-0.00554713
-0.0108395
-0.0231713
-0.000421657
-0.00196142
-0.000921904
-0.00196427
0.00207411
0.00104368
-0.00115352
-0.00464051
-0.00120594
0.00479874
0.0169276
0.00630897
-0.00932101
-0.0139156
-0.0185337
0.00878917
-0.000447417
-0.000925819
0.00105856
0.000314674
-0.00199452
0.000766319
-0.00109946
0.00232766
-0.00108765
-0.000695448
-0.00123707
-0.00216115
0.00514791
-0.00206705
0.00111043
0.00240864
-0.00477544
0.00151211
0.00385067
-0.000587348
0.000574829
0.00169371
0.000227058
0.000964792
0.000251188
0.000460581
0.00047077
1.88102e-05
-0.000950161
-0.00024035
2.0077e-05
0.000171906
4.83674e-05
0.00210458
-0.00151204
0.00114844
-0.00174098
0.0012885
-0.00351489
0.00184319
0.000383196
-0.00673059
0.00396657
0.0055005
-0.000568298
-0.000339134
-0.000222139
0.00113782
-0.000693657
0.000513357
5.09362e-05
0.00216274
-0.00219701
-0.00308888
0.00312315
-0.000485383
-0.00225537
0.00244591
0.000294841
2.3033e-05
-4.16566e-05
0.000557282
-0.000538658
0.000217989
-0.00109969
0.00653357
0.0041681
0.00338946
-0.00247833
-0.00119868
0.00121813
-0.00071278
-0.00242337
0.00191802
0.00212278
0.000490329
-0.00123684
-0.00137626
0.00340511
-0.00273064
-0.00411666
0.00344219
-0.000621435
-0.00203872
0.000425316
0.000730666
-0.00198478
-0.00142443
0.00266281
-0.000846899
0.0233276
-0.00417996
0.0025376
0.000191568
-0.000102516
-0.00262665
0.00346818
0.000231391
-0.00521322
-0.000715545
0.000868587
0.00378291
-0.00393595
-0.00414494
0.00160876
0.000142477
-0.000880148
0.00131908
-0.000581404
0.00232222
-0.00159665
-0.00271604
-0.00147119
-0.000545382
0.00241995
0.000774265
0.00144725
3.2359e-05
-0.00225387
-0.0161322
-0.0113331
-0.00423224
0.00319837
-4.98337e-05
-0.00264159
-0.000506952
0.0299167
-0.00195439
0.00740273
0.0145703
0.0201649
-0.0225389
-0.000312528
-4.31662e-05
0.000220556
0.000135138
0.00444313
-0.00166016
-0.00182442
-7.82643e-06
-0.000252576
-0.0022727
-0.000305515
-5.53622e-05
-0.000982664
0.00134354
-0.000282923
-0.000752282
0.000208968
0.000937641
-0.0100773
0.0214629
0.0277768
-0.0128692
-0.000135921
-0.000318841
0.0002695
0.000185262
0.00108849
-0.00117197
0.000114773
-3.12862e-05
6.70637e-05
-0.000446952
0.00144511
-0.00106523
0.0003006
0.000145411
-0.000637693
0.000249008
-0.000155601
-0.000459219
0.000681885
-0.00807336
0.00441619
-0.000106995
0.000515624
0.000228071
-0.0006367
-0.00758309
0.00433123
-0.00714723
0.0145953
-0.00255166
-0.000668656
-0.011375
-0.00413156
0.00619928
-0.00140102
-0.0010484
0.000853471
0.00117314
-0.00097821
-0.0013664
0.00264292
-1.12387e-05
-0.00126528
0.00108653
-0.00339789
0.0128197
-0.0211028
-0.0193705
-0.00395411
0.00298819
0.00030071
0.00298827
0.00648841
0.00205263
-0.000174152
0.014832
-0.00372401
-0.00208586
-8.87725e-05
0.00195755
0.000251971
-2.71087e-06
0.00215199
-0.00240125
-0.000483257
-0.000376335
-5.17539e-05
0.000911346
-0.00163056
-0.00190692
-0.00258463
0.0026502
-0.00115322
0.00564315
-0.00769424
-0.0022158
-0.00112152
0.00112822
0.00220909
-0.00471733
0.00247409
0.000395267
-0.0014635
0.000160036
0.0009082
0.000803226
-0.0133626
0.000224745
0.0016679
0.00173983
-0.00159834
-0.00256454
-0.000662374
0.00258822
0.000638701
0.00738244
-0.00799732
-0.00154628
-0.00214196
-0.000730947
0.00118192
0.000415399
-0.00414058
4.92789e-05
0.00270149
-0.00644653
0.0043613
-0.000616259
-0.0219172
0.00796803
0.0229684
-0.00726684
-0.00115418
0.0011994
0.000350045
0.00116155
0.000211958
-0.000985052
-0.000388459
0.000129401
0.000837931
0.000194221