/*--------------------------------*- C++ -*----------------------------------*\
| =========                 |                                                 |
| \\      /  F ield         | OpenFOAM: The Open Source CFD Toolbox           |
|  \\    /   O peration     | Version:  2506                                  |
|   \\  /    A nd           | Website:  www.openfoam.com                      |
|    \\/     M anipulation  |                                                 |
\*---------------------------------------------------------------------------*/
FoamFile
{
    version     2.0;
    format      ascii;
    arch        "LSB;label=32;scalar=64";
    class       volScalarField;
    location    "0.0563527";
    object      omega;
}
// * * * * * * * * * * * * * * * * * * * * * * * * * * * * * * * * * * * * * //

dimensions      [0 0 -1 0 0 0 0];

internalField   nonuniform List<scalar> 
3923
(
140.185
94.4453
176.943
1663.79
754.674
1024.79
1159.95
905.005
741.546
890.805
1350.12
264.125
82.6044
409.698
114.696
53.3557
70.9739
87.5919
87.0695
83.0746
248.222
284.733
120.222
239.469
104.329
323.851
268.429
218.372
235.031
313.334
220.549
221.247
297.429
1081.75
1019.12
1043.43
679.845
692.354
962.019
411.344
1366.26
47.2643
1130.82
1162.35
722.592
795.033
59.2788
523.822
99.071
796.892
771.863
631.602
207.675
89.6651
203.044
80.0094
80.9625
48.4215
403.239
251.913
246.689
748.679
125.867
157.395
53.494
99.554
244.302
400.915
563.747
395.711
49.0225
508.307
439.861
573.504
262.229
546.09
108.639
584.288
557.33
519.021
408.006
757.651
148.915
312.183
1069.04
377.729
140.999
182.099
428.722
478.931
108.968
633.147
234.649
637.635
88.4463
111.864
130.364
111.443
177.17
255.356
104.795
574.946
80.8557
217.14
310.481
381.539
390.387
730.223
1231.73
1208.87
790.932
646.981
82.3303
123.258
833.955
728.151
663.77
503.029
977.751
737.761
67.8945
1082.92
455.15
106.459
477.543
386.201
577.281
560.788
429.451
579.01
313.097
420.147
488.388
76.1231
141.816
68.4604
331.04
555.081
166.811
163.674
363.795
393.693
296.195
223.434
108.936
46.8559
403.472
493.608
105.792
63.7752
66.8323
297.814
485.351
166.044
92.9407
492.105
90.9385
86.7072
262.885
2082.48
242.463
658.942
458.567
646.086
849.305
152.495
112.178
157.337
82.7968
456.602
75.8633
86.6625
406.448
1024.46
1025.05
117.839
129.32
608.213
462.645
158.312
473.312
1007.26
123.218
555.824
402.117
328.067
63.907
237.704
103.94
96.7719
580.332
351.17
107.891
102.423
189.839
628.879
1496.96
447.98
437.382
610.673
648.372
372.388
622.247
321.965
145.609
1008.95
75.3046
564.57
193.631
460.497
424.05
156.318
1059.06
103.607
939.373
790.15
59.0329
111.903
565.057
626.392
502.333
503.385
574.089
598.009
714.322
72.0653
124.144
99.2877
117.549
91.9437
129.236
82.2918
111.582
146.912
126.059
222.267
126.353
92.7297
150.89
130.683
96.6872
88.5329
952.003
138.851
614.967
709.544
1381.61
129.875
143.464
149.855
634.233
312.248
156.624
220.332
224.604
146.107
546.487
1346.32
93.8049
166.439
878.287
911.553
161.179
213.751
132.05
145.875
558.121
361.738
263.427
239.275
186.127
644.045
130.949
158.015
121.215
85.7528
143.837
90.1928
119.268
91.815
177.835
193.153
149.639
89.3265
549.454
66.5403
185.207
267.889
59.1697
255.505
325.397
214.193
217.312
217.447
116.547
1299.09
1124.27
741.909
811.371
901.648
488.594
636.524
723.894
824.481
828.197
976.378
1754.12
1352.59
561.208
554.108
563.727
574.278
549.599
560.494
504.133
521.458
563.898
516.085
207.438
181.427
402.681
444.859
394.152
460.221
363.481
536.222
167.769
651.401
1410.44
269.233
250.855
135.338
443.07
171.981
145.052
134.1
103.479
230.197
236.035
164.091
256.229
305.304
214.144
331.855
394.115
256.052
262.958
188.587
181.301
217.71
286.027
321.224
195.946
85.2467
85.2372
77.3645
144.371
82.4401
68.9404
95.6446
137.685
75.0382
101.396
88.9523
80.9255
77.7884
84.018
75.1138
73.9635
57.2592
51.0167
352.731
288.177
353.56
1333.53
1345.18
1190.76
495.315
492.296
494.71
453.355
383.636
362.811
139.47
154.491
145.9
131.731
131.933
94.7104
461.837
444.247
531.559
180.193
291.987
258.989
473.652
268.891
507.451
892.18
275.375
243.92
256.305
301.386
273.262
294.019
292.783
159.111
203.269
234.244
188.988
298.726
260.166
417.931
493.963
496.762
455.012
388.603
378.694
461.189
186.381
176.024
389.631
202.981
92.0567
428.739
186.807
213.688
160.002
115.138
494.032
203.567
748.992
107.894
397.194
156.373
780.477
1097.31
1005.03
516.534
241.679
599.699
66.6314
138.82
652.333
47.8239
47.5027
202.655
1221.57
158.637
445.089
913.853
461.436
471.999
667.945
199.54
74.0234
1499.69
81.2444
145.57
176.547
716.335
301.872
384.371
88.1614
924.536
468.774
83.6148
155.227
541.876
1003.85
83.1627
91.3764
544.635
83.8005
184.369
1218.45
1400.48
453.936
75.0062
98.8958
176.996
839.313
421.647
804.67
579.576
157.925
155.926
123.983
168.161
567.326
2170
1454.75
140.251
1971.51
251.635
261.514
157.55
849.686
463.945
1287.25
215.503
72.5394
120.569
81.9242
311.332
48.8969
628.909
289.707
86.9068
81.7549
76.4574
766.203
245.352
550.111
234.219
1110.03
58.708
46.4728
241.379
360.103
736.469
271.867
462.263
137.18
159.039
487.34
374.567
548.143
1342.01
340.171
428.8
907.13
163.047
399.784
403.781
645.831
542.836
81.3689
1311.51
559.971
981.531
375.816
447.886
164.183
133.731
512.731
359.506
225.748
279.587
413.25
618.29
341.961
556.44
1279.77
120.877
657.053
591.095
173.75
731.205
386.094
117.103
998.143
560.127
497.406
163.367
245.838
489.3
682.574
247.287
346.143
285.524
314.206
76.207
229.643
337.578
858.419
310.854
183.984
200.497
224.033
206.661
281.914
398.369
897.546
631.704
1273.17
478.699
985.084
475.201
102.916
97.1219
545.652
94.6125
113.598
313.446
988.698
502.906
705.428
80.4676
592.223
395.593
154.609
207.288
125.635
597.655
199.618
525.885
296.531
142.617
358.044
132.951
476.414
280.429
405.583
309.495
448.386
495.375
738.678
685.458
889.802
422.504
724.115
604.482
646.07
446.858
644.011
76.4858
122.337
490.219
705.886
460.49
71.9912
473.056
103.771
132.74
121.845
738.35
666.124
511.263
92.83
583.667
479.603
150.152
826.627
152.216
645.226
89.6101
527.814
1061.31
466.091
581.207
1468.29
1335.1
793.143
482.177
644.887
546.1
442.807
1381.97
200.743
459.472
434.326
442.246
574.023
516.012
431.467
739.132
947.491
125.035
58.1731
47.1889
48.9542
113.254
73.1774
77.631
73.9269
139.671
777.805
738.721
66.4359
649.751
123.126
55.3235
46.8633
76.7848
56.1716
112.894
456.172
77.1647
177.428
259.693
76.9935
50.8029
76.6938
64.6316
47.0367
864.03
82.0019
58.5429
54.2083
456.795
402.323
399.032
181.545
1067.74
378.91
935.487
949.767
1066.13
1486.41
1074.1
874.905
165.756
424.416
628.336
754.736
511.919
1037.71
980.269
869.414
979.511
687.19
649.207
586.029
227.958
690.343
506.94
566.74
604.94
682.404
540.291
113.574
60.2463
92.2635
102.344
119.772
80.005
403.547
105.398
123.402
84.2921
339.072
89.4212
668.777
78.7283
72.5662
208.984
504.147
100.289
181.364
243.553
303.564
488.956
452.064
266
158.267
73.9118
154.691
89.6111
351.814
102.364
550.426
2425.97
401.179
107.506
214.675
539.086
428.081
533.582
487.318
219.885
148.663
1242.58
522.629
1089.05
614.549
656.657
940.315
165.851
619.509
72.6647
608.775
587.398
487.188
139.105
248.452
574.313
532.264
451.53
258.418
210.136
109.828
1329.61
212.701
138.463
740.324
510.552
561.786
217.484
196.479
281.465
134.198
181.297
550.273
185.852
83.8991
300.051
107.636
94.8573
152.003
78.784
70.616
222.669
1055.1
439.321
186.985
81.4572
914.02
230.151
860.121
116.237
113.437
1288.9
589.449
795.075
164.142
83.7276
100.509
207.709
143.722
112.816
78.2354
246.533
1144.43
777.971
454.242
516.851
563.906
611.827
632.061
306.93
158.583
649.802
670.075
116.519
406.975
73.6946
103.434
379.934
75.988
428.247
237.621
82.4958
187.976
161.164
157.686
111.754
884.336
190.832
202.486
289.226
274.454
86.2575
102.476
402.355
385.8
300.895
137.939
319.575
140.471
271.159
236.55
592.004
67.1415
81.3192
589.986
588.438
503.102
491.407
742.756
451.605
574.88
425.359
355.581
946.29
263.699
196.098
259.336
198.202
493.784
1309.76
492.648
1348.43
550.402
487.614
675.952
532.386
689.132
679.066
659.941
706.407
440.691
656.542
418.437
523.505
524.115
424.302
103.511
518.071
201.228
195.421
484.33
48.5658
69.5917
86.6232
550.416
877.534
562.422
68.7363
96.7075
120.495
1100.79
180.483
491.777
122.623
740.412
130.599
442.634
401.43
280.966
751.857
708.056
561.227
871.831
453.024
1439.73
647.791
1227.72
590.447
294.504
4562.73
978.433
1890.74
818.223
220.627
53.8683
457.514
826.614
295.093
458.327
404.697
263.024
505.727
977.239
756.339
1065.11
241.965
229.555
427.315
494.199
177.923
573.576
383.01
1097.91
610.33
326.617
874.028
568.653
446.058
394.478
561.364
197.588
162.59
807.759
119.597
71.9263
99.7119
466.103
423.225
106.36
449.646
247.954
136.335
503.692
137.446
140.238
93.3345
112.806
197.988
450.598
65.2831
106.336
131.54
107.687
77.468
574.965
435.707
66.4118
47.1118
67.753
238.704
379.402
80.9082
142.579
74.5713
382.815
326.034
125.631
95.0123
499.189
503.619
727.222
565.731
408.471
72.0094
274.799
167.599
444.351
709.858
285.318
459.306
1298.61
156.789
309.824
214.316
261.44
657.32
470.332
339.856
727.191
265.287
912.611
416.241
211.894
1351.32
1381.1
390.816
215.596
247.698
117.077
167.518
339.383
245.221
197.379
127.113
847.187
464.335
422.291
516.863
1860.74
431.125
411.405
414.66
599.274
174.046
394.179
259.203
1766.28
284.081
222.458
604.763
81.7223
100.648
223.272
300.279
256.494
124.739
227.75
242.741
848.202
854.103
109.469
463.885
575.563
333.581
371.415
98.2075
65.3802
199.012
1003.82
2131.6
282.579
1340.19
278.068
421.635
1252.59
443.91
449.59
594.806
830.6
579.947
766.358
219.656
381.502
513.573
102.637
593.146
121.93
457.025
231.217
223.438
225.482
531.001
298.921
334.256
339.264
342.583
480.923
493.528
373.45
375.641
510.884
379.181
422.057
511.409
322.419
1021.54
498.777
563.145
102.938
198.363
733.291
633.346
801.635
771.664
611.877
643.354
991.118
498.193
150.554
675.903
418.138
992.768
582.918
677.695
451.411
1042.31
237.743
1011.35
1327.06
403.232
279.44
346.992
256.221
776.901
616.74
609.971
459.988
661.255
490.59
826.259
461.991
177.459
618.932
561.548
223.378
153.787
644.946
276.94
235.929
230.669
585.041
90.5599
722.896
304.776
543.645
650.518
584.716
390.661
511.26
380.262
505.6
548.415
479.694
541.616
421.35
774.232
470.932
769.909
508.074
522.816
832.235
855.423
567.989
571.106
515.136
363.074
334.566
84.7403
68.5627
104.546
88.4497
65.0178
65.2143
62.7171
66.3035
47.5842
48.4256
59.517
69.8464
50.4335
93.69
49.835
93.5697
107.155
68.0528
65.6266
170.563
78.3544
260.983
218.854
169.845
703.937
979.379
92.5467
85.2237
67.2595
88.3816
85.1549
91.4644
428.239
1188.55
114.281
112.647
132.132
581.534
637.899
1204.35
486.253
422.623
553.815
452.111
1396.62
668.358
1260.82
1364.4
629.992
866.693
1832.16
1814.13
541.384
1388.43
493.463
774.501
1162.71
777.695
718.976
944.197
1060.46
361.053
607.295
266.873
860.832
746.831
582.998
163.705
968.721
1488.56
1202.59
591.566
472.138
124.266
147.14
97.0513
110.523
1005.84
289.444
704.231
618.988
758.713
1593.43
132.89
94.8952
485.923
84.9117
573.043
84.8954
562.055
582.218
698.437
418.728
477.867
104.267
101.828
119.659
268.692
138.332
543.28
556.084
561.38
75.4062
51.1144
93.5936
69.7126
90.6568
168.18
376.838
103.178
336.255
307.165
221.724
614.466
197.955
454.849
112.16
598.383
57.1339
61.1566
47.4159
584.917
64.5059
415.462
93.3478
100.8
169.938
85.8667
94.4987
157.576
384.457
586.96
477.279
425.135
122.667
583.718
368.61
699.59
474.917
483.265
252.132
63.2841
63.4851
267.585
46.9088
227.314
117.664
790.3
273.43
357.746
404.426
260.132
196.756
1122.11
409.156
1392.12
416.566
597.067
168.664
84.4105
106.624
784.179
104.649
309.532
241.058
217.195
358.155
473.61
516.975
48.0918
300.374
128.487
142.815
98.1161
101.501
73.5927
85.7738
86.6691
77.6818
1008.97
683.578
575.333
497.038
613.665
538.093
485.526
692.075
149.42
108.202
595.565
777.051
443.863
1089.08
671.077
683.189
1076.87
1101.24
610.859
562.733
675.569
630.078
735.81
426.431
369.461
378.22
363.463
421.052
84.0531
446.703
225.519
638.315
104.31
419.604
499.125
210.002
188.786
121.244
269.581
278.466
88.3188
57.9711
863.461
611.121
459.365
1384.7
244.993
92.3084
125.214
262.552
635.508
494.961
165.651
859.048
344.786
2138.84
570.081
534.226
857.869
1367.92
671.45
811.678
568.682
359.459
399.698
957.694
47.5203
196.945
184.106
774.618
394.08
139.352
76.2561
416.978
876.164
774.137
1324.24
707.439
408.058
439.805
252.265
56.7626
48.4218
144.682
143.774
330.585
58.3661
76.3048
295.014
759.472
296.987
97.6061
61.3661
118.021
82.0492
261.331
78.3946
75.3834
136.728
83.8981
315.533
134.791
868.689
130.945
193.62
415.476
164.835
163.253
69.6081
82.1268
296.503
274.605
405.959
214.151
1705.11
385.394
958.471
490.545
216.976
304.69
297.326
706.864
1540.83
738.17
536.51
899.3
356.078
416.31
439.349
503.345
436.576
809.392
1170.21
2107.41
550.624
825.354
92.3357
271.882
333.826
658.207
308.178
206.91
1158.95
830.798
193.466
651.761
132.182
438.585
94.9688
68.3334
94.0924
1096.74
1169.82
1052.02
59.0572
573.36
594.267
1171.27
254.863
445.198
1348.36
281.146
1840.61
464.934
496.218
83.9221
685.13
98.3723
348.38
615.525
287.421
368.04
402.564
433.526
158.307
176.645
1232.76
633.049
459.017
73.2231
431.18
484.855
545.3
1022.95
1572.26
57.8196
453.713
454.243
63.2243
468.85
588.679
62.1147
60.3605
693.517
1279.52
974.361
453.375
263.808
816.647
1324.6
514.858
509.56
614.59
812.891
366.755
600.625
509.163
237.511
88.3926
448.203
235.881
118.432
335.565
425.604
872.705
825.389
646.31
550.476
453.279
862.797
507.066
699.317
368.135
359.367
522.159
118.197
104.813
201.389
81.9591
155.392
245.259
585.794
602.935
604.987
983.576
499.56
477.069
508.243
607.282
705.647
890.67
685.901
537.376
524.357
491.298
245.577
448.146
523.649
409.552
439.885
739.577
359.064
263.859
684.749
557.968
490.231
1093.13
83.1427
92.0533
121.033
578.127
479.416
533.442
624.909
522.158
650.809
862.279
1181.14
427.146
541.975
471.339
840.355
1409.91
411.843
258.42
593.423
376.541
417.173
816.692
542.392
84.2152
215.101
188.277
183.18
578.691
89.6787
556.7
542.202
394.986
814.069
379.014
765.224
1003.7
641.213
849.83
196.131
605.355
106.748
93.8986
339.194
130.563
229.574
566.919
61.394
97.8484
69.7161
82.4931
81.9385
52.9829
58.8429
102.857
836.968
802.844
116.926
678.86
468.004
571.546
804.187
70.5015
85.2738
77.5687
84.9048
78.62
53.0855
142.315
107.293
115.117
209.722
351.032
140.314
95.1808
82.4907
71.5883
104.003
95.7301
74.6721
88.3321
53.7404
554.521
411.829
369.117
627.704
660.988
645.148
883.919
434.081
921.022
1045.4
378.875
695.339
476.652
575.069
661.646
432.184
989.555
1059.24
813.117
1842.33
827.286
530.923
876.798
2061.87
916.223
891.449
979.715
942.242
828.38
640.269
469.249
472.303
410.496
779.584
606.782
780.323
1133.53
584.638
837.165
698.443
689.205
692.585
193.871
81.5354
138.039
890.021
446.883
170.152
216.03
101.785
85.2224
53.8553
108.544
219.858
180.994
192.165
656.421
128.003
355.948
126.569
236.663
69.7434
121.585
192.631
274.476
294.737
128.008
124.245
60.2763
63.6372
102.194
72.2915
110.363
97.3341
131.565
47.8619
1208.05
798.163
514.52
249.874
438.203
347.054
388.838
926.151
447.598
246.96
425.471
252.361
407.659
459.267
428.481
496.112
814.006
554.025
472.041
275.667
676.509
399.599
391.818
377.132
445.997
522.578
634.361
552.102
75.7659
352.724
552.577
260.2
419.18
250.045
338.372
833.176
353.46
452.76
303.909
169.156
108.446
522.567
144.955
516.761
380.889
572.637
396.89
142.587
367.956
367.638
712.038
522.102
393.46
803.34
78.2404
94.2439
54.9638
114.207
67.4999
189.382
528.376
469.477
54.3488
726.143
446.304
530.117
100.945
259.073
98.4559
78.2589
570.465
428.606
78.1121
78.0792
261.434
1819.26
512.499
88.5236
217.352
2004.83
66.991
501.602
1499.13
258.761
592.187
330.461
1042.22
1183.62
1395.89
825.584
535.774
504.009
427.795
212.052
160.822
209.855
106.883
92.1426
256.183
444.057
251.452
95.5157
1451.24
425.183
619.141
326.329
453.764
68.7894
60.6512
59.5974
120.445
84.5489
89.6169
72.4657
63.1619
277.311
157.493
101.415
98.8218
153.893
1290.2
1558.22
890.029
699.923
641.677
484.986
973.479
1152.02
768.141
620.688
769.031
777.622
802.756
111.564
125.605
80.7853
118.059
584.728
274.376
445.761
258.742
1114.15
1023.25
1002.04
164.77
482.946
364.086
465.652
201.534
135.302
126.947
144.573
139.296
381.386
784.292
124.684
503.962
514.073
454.618
122.914
107.958
741.794
293.549
319.007
124.969
77.2117
46.728
92.4987
90.1133
98.7133
99.2707
65.1118
85.1805
83.8334
102.861
96.1052
96.1009
60.0124
557.067
828.516
501.046
1518.21
1838.43
1293.29
600.192
903.058
688.916
372.035
645.751
97.5093
115.477
209.253
312.889
466.637
696.732
667.032
125.69
570.474
463.687
450.349
454.345
443.527
506.759
285.619
351.703
156.522
573.382
419.045
92.3854
61.8424
474.213
303.698
263.013
274.24
263.673
209.745
365.947
562.445
79.1045
246.339
405.48
70.3141
74.6098
74.1911
101.637
759.546
632.871
733.818
665.92
718.262
733.49
694.894
633.495
546.015
528.753
562.519
779.429
554.885
332.505
481.838
292.7
107.699
1159.7
1379.37
411.137
817.516
156.69
252.788
225.8
355.739
112.767
222.153
864.829
59.7055
362.965
480.424
167.366
232.524
83.437
516.947
182.362
430.54
91.1745
423.931
349.587
236.169
676.811
101.566
72.3963
48.2482
224.013
148.29
61.4195
53.8246
184.217
52.6423
71.893
338.817
462.637
133.23
146.967
225.205
272.751
489.54
521.578
87.8608
1128.66
733.813
1021.96
367.386
967.298
511.382
1196.36
520.782
471.973
585.215
443.405
459.07
1312.91
461.289
441.018
72.2756
260.52
525.193
206.79
70.8163
160.67
67.0133
108.329
66.2524
103.896
120.638
311.368
120.683
142.07
160.816
222.61
558.083
85.4557
50.9099
379.117
349.294
307.731
411.774
343.864
67.0546
80.4793
213.165
897.929
99.1783
296.54
82.4737
163.886
296
77.7023
80.6631
368.494
88.8274
276.393
554.739
96.3666
1256.27
494.997
1109.06
311.363
293.676
382.928
365.526
560.496
932.124
500.091
506.51
708.742
224.883
469.337
467.135
786.566
609.7
883.649
57.1184
707.838
798.961
186.92
223.351
1043.71
212.99
591.651
144.194
696.584
158.017
136.964
94.1509
454.722
632.245
887.837
708.789
451.001
456.428
174.25
274.412
277.653
540.213
61.675
140.007
70.0807
90.3546
175.447
145.086
77.4079
123.208
71.1748
441.319
160.853
234.708
227.223
263.47
220.686
383.451
672.225
599.232
387.754
587.459
545.414
298.492
1055.72
884.423
82.7237
304.735
108.665
172.83
111.079
158.002
274.273
743.331
365.551
966.406
770.874
953.936
290.709
402.971
603.091
543.588
527.977
441.338
375.902
646.72
432.32
513.694
495.504
501.212
535.591
653.665
493.082
414.06
440.662
552.712
510.554
561.891
561.588
322.552
627.711
376.084
991.026
793.618
603.523
327.383
117.152
208.656
1059.68
174.953
392.08
87.5526
601.495
484.17
473.764
515.2
523.798
568.312
480.78
464.436
577.849
427.455
421.112
316.608
467.57
492.488
712.159
496.507
484.511
437.488
480.573
530.259
475.935
539.388
657.794
447.93
546.172
1338.33
882.905
1610.99
498.693
147.796
329.242
122.865
612.223
557.05
359.221
465.016
518.943
707.137
518.079
434.627
699.653
1086.35
1064.64
858.07
551.698
688.939
437.152
525.344
528.534
680.889
116.012
83.1253
82.2909
107.415
49.1211
97.9711
307.909
209.879
573.953
296.713
109.147
96.714
160.392
225.97
90.2956
94.3513
126.221
54.1003
52.5763
67.2166
75.5983
622.002
262.958
82.2628
262.277
782.537
441.926
447.579
597.363
85.0656
404.905
308.047
92.7219
129.002
530.686
1913.48
710.618
583.877
137.427
621.899
634.58
371.859
445.426
184.663
243.607
531.35
437.819
299.496
886.488
1633.83
662.124
1400.48
2210.96
1168.5
771.901
655.383
110.54
167.515
115.308
212.179
70.8214
74.1133
344.102
177.108
119.871
72.5217
149.988
142.482
140.051
169.011
779.3
445.398
471
145.865
46.673
685.685
100.03
133.55
275.507
505.013
521.86
601.537
559.213
55.9597
90.1315
95.435
249.937
415.149
97.6753
126.276
428.128
986.915
424.04
376.188
419.65
939.715
130.11
82.4135
758.885
374.113
509.054
645.673
437.324
175.02
137.3
596.681
693.129
736.323
85.5115
66.8984
129.965
66.6068
123.923
145.959
520.323
146.75
100.966
92.2428
107.19
148.669
67.6063
81.8533
466.83
98.3458
627.257
451.941
537.015
768.655
97.7448
642.753
52.088
184.219
130.49
85.3684
65.9275
180.655
78.3809
75.7338
116.589
108.007
385.323
483.992
264.612
176.289
554.512
512.816
364.963
510.974
527.517
475.802
123.988
121.788
106.919
135.403
68.4152
59.1816
54.3947
192.899
84.4971
79.8132
76.6682
103.313
72.9776
449.955
90.7974
105.409
267.293
201.763
205.929
176.4
77.502
160.528
471.078
553.449
946.11
603.376
104.585
101.374
124.371
229.838
162.004
600.054
154.69
885.635
130.926
980.902
251.776
275.317
88.0124
160.936
1022.39
1044.04
113.704
52.1373
50.9572
51.2669
56.9204
489.319
76.1634
57.8894
569.858
59.3128
489.073
590.366
75.5666
834.103
810.685
362.913
212.803
331.995
162.183
408.146
427.568
515.736
98.8815
118.009
96.9722
107.186
93.6866
55.1516
295.6
288.344
75.1996
239.26
157.329
226.751
180.669
242.472
202.826
192.533
193.186
103.299
409.92
103.457
83.545
141.72
159.202
373.047
459.568
538.841
570.086
390.215
1081.22
48.3323
340.514
2074.99
123.89
335.577
362.009
447.605
920.06
186.92
322.191
509.249
460.488
1010.26
974.745
696.668
518.169
361.6
58.7235
80.1394
596.91
124.857
335.998
303.312
563.598
700.262
281.397
531.772
303.099
289.055
411.853
142.359
406.75
2086.77
1139.2
868.602
1699.67
117.831
654.441
648.319
367.975
698.644
525.882
791.773
552.774
378.776
736.744
612.983
839.594
717.293
701.405
866.591
47.8986
77.6542
59.1379
67
76.2589
62.9945
58.265
640.502
48.5564
79.5353
104.894
284.831
88.3541
505.382
308.245
667.54
157.477
81.8932
152.275
146.579
109.971
220.474
223.182
152.75
218.273
147.427
81.0052
377.24
154.498
109.926
187.236
184.653
1006.82
288.53
140.489
182.003
413.946
202.826
138.135
149.841
111.743
126.229
357.128
610.932
250.313
190.56
470.705
127.993
493.902
621.255
808.47
927.683
531.498
97.6116
383.156
546.298
527.38
494.75
188.732
98.054
585.753
461.914
476.927
280.521
405.928
549.154
494.368
421.073
422.219
947.132
535.494
277.2
310.877
489.63
618.157
489.546
508.629
373.099
573.729
1719.47
1877.12
1230.57
1482.21
551.657
155.947
56.9454
123.984
417.571
284.475
177.503
461.453
561.778
154.356
217.272
2155
2228.05
1299.83
471.238
361.98
430.931
1188.92
478.303
475.916
751.84
113.194
597.834
281.184
506.836
266.896
294.942
207.756
568.678
296.538
364.033
137.028
1126
1033.9
543.683
972.537
423.847
573.095
373.434
406.336
586.772
429.124
570.38
559.3
489.798
737.543
806.561
703.888
649.369
638.121
445.381
67.1746
67.5547
66.7748
67.9567
77.6306
497.868
502.287
517.428
460.926
515.764
225.966
664.319
715.829
532.62
477.905
473.225
277.181
479.534
552.667
476.912
735.375
362.046
502.812
637.785
603.639
557.608
611.085
711.307
234.085
595.973
262.706
225.844
81.1664
88.1411
569.745
556.02
252.679
226.114
247.901
133.619
265.649
118.296
567.157
304.892
386.127
228.4
154.74
184.17
644.702
365.999
365.852
382.128
676.599
548.306
513.094
64.9511
594.955
517.366
407.072
171.858
497.944
249.934
374.079
235.206
69.8756
693.858
93.5537
71.3496
497.823
462.816
616.805
415.241
761.765
166.461
214.383
361.697
422.201
382.215
391.486
377.402
761.69
593.846
416.234
380.884
1220.76
645.089
661.737
518.387
515.602
739.155
667.394
585.702
950.475
472.432
897.479
967.172
1216.67
583.949
1177.65
259.242
505.867
1184.88
1497.41
1139.15
1254.35
680.185
354.616
727.6
632.4
642.387
555.657
611.311
1915.02
704.49
699.372
550.987
475.88
144.06
271.962
419.328
379.82
388.475
410.515
496.853
394.711
531.14
739.891
926.753
598.414
819.529
560.287
483.619
623.906
1026.17
386.885
598.183
432.339
267.274
377.692
243.585
679.698
481.065
424.44
413.224
411.876
47.0946
570.23
115.433
135.651
418.345
128.539
127.303
205.995
361.864
161.976
130.391
101.312
68.2267
542.693
492.418
424.242
448.003
824.703
82.7125
77.579
152.515
265.895
291.894
79.3317
134.693
64.6424
69.7083
469.042
78.6204
105.959
74.6816
379.889
455.228
650.954
638.41
663.952
58.9915
128.366
136.716
105.031
74.7931
448.491
96.9531
343.469
83.3339
220.453
46.6164
429.786
408.898
439.784
642.78
475.766
589.575
434.825
89.1734
67.3002
192.026
52.6458
57.7564
67.8899
60.7258
63.4931
62.0305
73.649
76.0019
64.8803
956.501
75.3023
701.102
51.0719
174.795
370.655
242.764
507.744
1037.81
900.876
582.913
980.954
63.1018
713.904
1471.37
236.49
99.3566
392.302
544.271
847.362
817.25
661.412
617.164
561.34
544.361
103.878
120.652
482.585
1238.59
641.373
652.218
731.937
829.926
1564.5
244.159
229.474
245.237
86.6462
82.4226
81.2808
717.478
86.6088
441.302
500.426
473.964
448.752
452.743
387.79
385.76
447.669
1370.12
148.222
90.4882
601.263
484.691
2167.18
1437.06
434.027
160.551
166.685
194.199
324.377
267.975
200.417
161.24
191.997
178.519
303.724
966.444
1147.05
294.492
653.349
670.347
218.324
214.02
792.938
209.852
688.602
423.567
260.284
359.984
272.969
141.789
277.469
143.741
118.576
747.886
138.346
142.481
65.114
65.5185
88.7737
60.6169
224.097
220.532
245.083
631.064
529.315
562.283
709.092
618.756
77.2858
59.3945
714.238
98.9201
500.357
499.639
582.1
463.4
418.884
1690.23
1072.88
829.754
1308.28
457.39
1011.4
471.509
633.601
417.327
358.302
411.153
511.434
999.732
769.805
1266.97
365.557
788.5
1292.99
496.183
425.519
1287.37
156.405
1983.31
639.202
358.152
118.65
694.026
723.997
182.845
273.515
301.022
708.256
974.481
248.744
450.419
454.482
620.242
638.401
114.048
878.684
449.497
386.596
268.342
487.535
346.616
410.475
121.819
485.204
180.847
87.2682
527.707
418.849
203.614
390.687
348.167
196.121
453.089
369.96
64.5071
103.934
80.1926
344.098
325.667
215.425
74.7605
218.11
370.56
456.849
475.349
162.288
188.118
249.607
590.821
615.265
397.868
478.807
338.287
86.0558
66.5935
174.432
639.009
273.969
80.7902
238.825
503.872
157.727
319.657
704.925
742.606
446.714
490.895
531.181
210.515
414.173
205.383
250.678
736.869
467.947
575.449
1093.95
1112.14
436.093
101.774
1081.04
465.986
115.419
210.234
292.458
120.183
334.986
193.933
801.312
528.305
466.701
287.721
270.943
383.898
310.533
225.657
121.443
97.2113
238.997
269.418
354.861
402.415
359.004
458.36
530.165
201.84
462.988
505.731
109.173
371.845
425.291
155.65
272.204
537.082
305.288
84.2216
289.21
60.5775
607.088
472.109
541.544
647.755
114.385
382.546
355.318
80.7936
470.357
91.3048
371.783
482.216
1858.48
1345.08
907.999
267.977
1000.96
1016.99
1706.55
83.4765
95.0405
70.5271
119.455
84.7599
232.53
66.1222
79.7099
87.7477
65.413
432.518
198.734
276.522
1259.45
292.609
1503.24
564.545
503.136
556.638
331.723
122.012
122.639
128.886
158.321
648.029
417.958
331.494
1034.29
240.703
334.568
94.424
211.614
141.273
192.934
124.69
210.086
83.8331
580.41
710.842
1259.37
470.056
116.827
371.687
418.073
475.461
127.478
292.637
574.723
180.502
95.8992
147.061
88.4426
800.644
1017.58
482.225
561.681
659.909
156.103
123.446
417.362
309.588
327.119
596.937
1061.49
929.075
487.581
419.154
408.503
530.32
328.739
693.095
88.0614
56.3454
1280.25
1070.6
954.943
89.6956
280.637
196.196
79.6819
67.1311
323.778
227.892
79.2987
108.085
76.7805
120.461
165.999
365.863
370.685
65.3785
59.6814
531.935
60.6022
85.5791
62.4022
498.294
240.924
86.4587
362.035
467.615
302.573
86.5974
546.407
83.7857
83.5258
89.7314
79.5978
79.0472
652.61
930.253
855.351
581.548
569.167
150.199
212.791
81.2451
109.237
81.857
188.09
132.363
471.723
515.222
129.301
104.933
150.444
116.042
467.309
283.324
363.629
322.17
135.113
136.957
126.949
311.232
444.669
256.556
302.326
466.936
520.508
563.575
653.014
420.281
71.4115
287.338
275.296
250.163
372.681
129.658
105.948
127.915
494.203
202.937
507.321
1076.73
538.681
159.205
111.322
74.6835
73.0793
74.9422
78.1847
869.876
2160.26
143.028
89.7912
180.576
208.884
82.5258
80.1257
173.821
123.032
78.4718
455.761
971.957
842.496
214.879
585.403
472.03
193.232
477.764
858.154
93.0676
1196.42
754.579
670.145
581.828
774.015
879.71
536.351
89.941
184.755
68.7279
53.3178
47.227
313.502
154.65
72.2183
197.488
418.483
428.622
56.3374
272.053
217.938
385.583
103.893
241.239
150.651
262.661
446.003
420.524
444.678
403.011
197.395
101.245
230.196
457.51
353.28
265.07
680.337
723.745
848.542
1109.25
894.548
1462.78
710.116
679.019
722.27
476.567
525.493
125.402
272.796
503.406
163.66
366.83
515.102
84.1492
283.034
141.835
243.565
165.061
69.0101
153.558
135.999
1068.77
659.281
2228.63
337.787
123.556
329.443
190.933
48.3307
90.1248
165.013
86.5611
143.402
70.3725
68.7249
846.327
72.1144
79.8605
173.275
234.806
247.902
99.9016
202.94
82.5432
603.812
67.6572
82.3698
610.014
78.5048
78.3657
71.4999
109.453
93.0139
109.126
120.587
91.1165
163.222
521.274
76.8018
97.8678
107.68
113.614
90.9858
290.218
347.66
203.705
274.616
349.397
273.034
576.331
458.33
603.662
1448.36
202.528
310.346
462.011
1213.27
482.827
190.028
75.2897
268.669
409.092
192.534
407.198
364.871
472.317
122.742
194.701
127.813
656.872
596.595
585.205
661.477
483.045
635.192
405.555
605.79
123.619
103.595
526.062
435.787
132.21
1362.11
514.212
490.03
753.849
260.962
120.49
55.8281
46.4478
68.1024
540.887
51.0831
265.188
579.596
83.6962
432.583
143.928
143.074
384.803
603.576
498.577
596.748
638.924
303.273
106.328
450.054
66.6196
360.498
70.551
60.6214
297.102
963.922
339.754
378.919
381.115
460.953
627.316
94.8777
397.419
325.12
483.995
292.106
715.973
738.701
1751.23
261.614
900.25
279.996
263.836
1647.62
297.522
1325.2
432.842
752.946
594.104
1786.25
1091.96
596.032
1009.14
495.194
593.882
464.795
383.61
580.163
223.397
728.572
884.999
200.259
473.778
776.671
85.4093
48.1558
267.672
81.696
98.9736
83.8565
54.954
419.232
619.707
72.5518
73.6344
836.33
1077.64
314.056
611.113
638.622
624.029
815.332
1260.77
853.792
329.783
918.193
489.228
357.687
423.93
397.873
1320.06
71.6022
497.354
417.457
403.522
359.714
184.947
271.666
343.796
1260.15
338.503
572.943
424.381
777.567
678.302
437.862
486.219
569.795
627.587
711.169
258.553
898.211
688.991
1215.68
375.579
453.088
532.292
121.107
716.794
447.288
911.388
623.601
436.045
52.5987
59.1736
264.771
786.066
397.156
108.948
689.324
61.0021
64.2189
354.214
542.629
218.939
648.572
516.595
498.971
544.669
937.794
599.467
641.993
568.219
859.477
108.843
1193.36
552.242
868.969
355.203
496.807
480.425
203.845
86.3945
272.945
466.792
406.606
463.633
509.971
401.925
563.34
497.328
597.638
404.274
504.426
484.475