/*--------------------------------*- C++ -*----------------------------------*\
| =========                 |                                                 |
| \\      /  F ield         | OpenFOAM: The Open Source CFD Toolbox           |
|  \\    /   O peration     | Version:  2506                                  |
|   \\  /    A nd           | Website:  www.openfoam.com                      |
|    \\/     M anipulation  |                                                 |
\*---------------------------------------------------------------------------*/
FoamFile
{
    version     2.0;
    format      ascii;
    arch        "LSB;label=32;scalar=64";
    class       volScalarField;
    location    "0.0380695";
    object      p;
}
// * * * * * * * * * * * * * * * * * * * * * * * * * * * * * * * * * * * * * //

dimensions      [0 2 -2 0 0 0 0];

internalField   nonuniform List<scalar> 
3946
(
1.33895
1.24507
-1.07947
1.28286
1.49079
1.26774
1.21152
1.27096
1.19364
1.28345
1.76519
1.35376
-2.357
1.45043
1.31414
1.42246
1.52726
1.40491
1.40258
1.73847
1.47761
1.53077
1.45636
1.15439
1.1789
1.09711
1.287
1.30061
1.25927
1.29872
1.80901
1.3537
1.09771
1.37027
1.38132
1.42814
1.53782
1.40456
1.43054
1.19944
1.24762
1.29645
0.895266
1.3853
1.2087
0.95657
1.5447
1.5959
1.21594
1.06736
1.19604
1.09075
1.52173
1.34305
1.18591
1.58201
1.36918
1.24036
1.296
1.20394
1.63917
-31.4862
1.51667
1.43875
1.56385
-31.5394
-33.1556
-31.0955
-31.1713
-0.204777
1.4135
1.53156
-13.7905
1.14405
0.71135
1.20112
1.22617
1.25516
1.11984
1.33259
-32.6726
-6.79668
1.25994
1.57584
1.21156
-35.9361
-10.7034
-31.4052
-33.4559
-33.9621
-50.602
-36.6988
1.36859
1.07349
0.959341
1.14045
1.4787
1.00999
1.09416
1.29532
0.962807
1.11886
1.23646
-26.1289
1.19603
1.3153
-6.84928
2.30271
1.15253
1.16171
-6.08375
1.37154
1.41341
1.43912
1.46326
1.38466
-5.81372
0.44302
-30.1407
-32.284
1.70731
1.02112
1.42236
2.77738
1.47959
1.80278
-48.4336
-7.41671
1.52859
1.56678
0.990276
-43.329
1.55026
1.08855
0.336174
-5.67127
1.30796
-42.6821
1.92858
-34.5786
-34.7218
-45.4842
-41.1509
1.34622
-6.54276
1.02172
1.49017
1.61471
1.03993
1.16889
1.38515
1.2123
1.65861
1.08994
1.39203
1.15179
1.25642
1.53417
1.71126
1.34053
1.35398
0.491394
-22.9559
1.23309
1.11053
1.13379
1.11963
1.356
1.26299
-19.2903
1.19936
-45.2061
0.911255
1.42263
1.31678
1.04211
1.47636
1.00785
-0.0689765
1.45888
1.36484
1.14562
1.59195
1.52271
1.24221
1.10626
1.59922
1.30464
1.71467
1.24368
1.01451
1.54704
-32.4569
1.35122
-33.9272
-33.9132
-32.9739
1.73344
1.59641
1.5373
1.19178
1.56838
1.58518
1.6537
1.74394
1.43362
1.30118
-0.0901328
1.45195
1.45817
0.990145
1.0441
1.78126
2.94961
2.31974
2.20412
2.15635
2.34809
1.96575
1.79335
-32.6547
-32.9215
1.37576
1.70698
1.30889
-32.2174
-32.4592
-0.00819375
1.1776
-31.7018
-2.77487
0.987183
1.94437
-5.05026
1.22873
1.37437
1.37649
1.3704
1.24979
1.49082
1.30981
-31.4541
-30.2897
-27.8581
1.17983
1.20671
1.27676
1.39187
-0.726555
1.24199
1.46986
-39.8386
0.847042
1.05613
1.47636
0.87326
1.36361
0.313962
1.35634
1.54379
1.85813
-30.3674
-34.2528
0.532233
0.881024
0.982588
0.948011
1.00402
1.07148
1.12424
1.20077
1.40507
1.37731
1.37231
1.08189
1.04645
1.11481
1.20913
1.08223
1.28417
0.988563
1.25747
1.7403
1.50371
1.44666
1.08976
1.34398
2.05685
1.26606
1.24614
1.26567
1.24742
2.4571
1.43245
1.4454
1.14457
1.2757
1.47506
1.39969
-31.8354
1.70379
-32.5422
-31.906
-32.3752
1.00111
0.62838
-41.522
-12.7363
1.98074
-37.6343
-38.1593
-32.4451
-31.4034
-31.6939
1.19338
-40.1043
1.207
1.09076
1.24563
-37.4857
1.20045
-48.4359
1.08738
1.12119
1.65866
1.14909
1.64147
-0.0914115
-0.163583
1.33759
1.17849
1.20049
1.15781
-45.162
-56.1526
1.12382
0.936306
-39.5226
-32.4769
-32.3562
1.92869
-37.3701
-34.6951
0.382997
-42.612
-9.88316
0.113031
1.97998
-11.2297
-40.065
-34.9072
-1.41211
-43.5398
1.84456
-36.0696
-32.375
-24.0461
1.34007
-47.1763
-33.3811
-30.7233
-35.8583
1.3172
-7.50426
-53.617
-40.6032
-6.52079
-36.6744
-40.6096
-37.1905
-33.9009
-40.6264
1.33615
1.32138
1.24259
1.97262
1.54981
1.53416
-1.71801
-17.8136
0.609513
-4.86039
1.21906
1.47991
-1.66796
0.787943
-1.0611
0.158611
3.04045
0.680087
-58.3719
1.16576
1.09444
-42.0144
-1.77574
-33.8037
1.31165
-4.45757
3.20308
1.43806
-0.145205
1.74827
1.26612
1.31332
1.22597
1.15916
-8.13704
2.09105
1.73652
1.01372
4.04161
1.30458
1.7776
1.34103
1.12552
0.994398
1.29401
1.09721
-0.202639
-3.31605
1.07537
-1.14611
1.43198
-31.9423
1.71253
1.5019
2.04572
1.42582
1.5423
1.3227
1.79073
2.42951
1.4767
1.55186
-3.07833
1.44321
1.10753
0.941669
0.931598
0.722765
1.11274
1.38479
0.938806
0.581551
0.773509
-43.8587
-38.5699
-0.33803
1.12541
1.55017
1.40407
1.34946
1.52539
1.36174
1.28574
1.32102
0.846176
1.43244
1.48153
1.57704
-0.992405
0.543109
-33.576
-36.054
-51.1851
-43.7909
1.72577
-10.1508
-49.7455
-5.5806
-0.93601
5.28192
1.25283
1.38875
1.32266
1.30324
0.963092
1.19834
-0.218601
1.00502
-35.5735
-44.0302
-42.9683
1.54786
1.1503
1.41395
-0.202607
1.72561
1.73961
1.56933
2.05185
1.80721
1.4751
1.62666
1.51483
1.44108
1.26628
1.1494
1.62094
1.54039
0.47278
1.23623
1.36612
1.34189
1.46818
0.50607
0.608656
-36.74
-33.69
1.36167
-36.8068
-37.147
1.32796
1.67497
-6.13167
-32.4898
-1.01753
1.15362
-0.908587
1.08585
1.40453
0.749673
0.931791
1.14304
0.546452
0.991611
1.62916
1.80002
-0.166954
-32.5745
-38.3984
-15.2556
1.24751
-42.4766
-33.9733
-11.4746
1.38067
1.13663
1.09191
1.22385
1.26326
1.36465
-4.52062
1.17004
1.36836
1.14538
0.518267
1.34159
1.43044
1.35658
1.02355
1.14421
1.11547
1.42987
1.15158
1.31854
1.11255
0.261506
1.32234
0.969744
1.41849
1.47779
1.76248
1.41721
1.31618
1.29748
-1.98545
1.1605
1.12024
-53.9769
1.18863
1.45557
1.50625
1.30223
1.22025
1.47177
1.13
1.28058
1.30249
1.72657
1.61707
1.74148
1.5014
1.9142
1.39946
1.19552
1.49192
1.60437
1.902
1.39308
1.17308
1.3836
1.34717
1.10447
1.29589
1.78199
1.15698
0.904506
1.29065
-9.86633
1.11039
1.19511
1.72841
-25.3583
1.55759
1.8134
1.10695
1.49812
0.965567
1.20806
1.25118
1.48198
1.2081
2.21915
1.57386
1.23946
1.4758
1.44397
1.40553
1.26506
1.20643
-47.9321
-45.0605
-41.5313
1.34176
1.36854
2.12838
1.17504
1.33153
1.53544
1.00831
1.17912
0.865654
-6.84764
-6.91269
-16.8548
1.08076
-1.66038
1.13897
-1.37999
1.25065
-3.67765
1.29349
1.48864
1.25716
1.54923
1.48638
3.10029
-0.422348
1.29472
1.24962
1.34551
1.40719
1.04154
1.39693
1.40491
1.46128
1.7371
1.55259
1.66467
1.33802
0.272373
1.43811
1.01406
1.17052
1.45187
0.0418512
-8.81437
1.33832
1.30407
0.700823
1.27919
1.11384
-37.9166
-37.2775
-36.6531
1.47721
1.63811
1.33613
1.44855
0.390577
-38.5485
1.13741
-37.4546
1.43144
1.18245
0.27911
2.95304
2.08701
1.5755
1.14125
1.33809
1.71396
1.25628
1.4628
1.82737
-42.4099
-44.7864
1.50459
-18.1391
-39.4125
1.28958
1.91877
0.877364
1.13952
1.49327
1.16315
1.1409
1.70229
1.33294
1.34772
1.68302
1.20622
1.44852
1.20293
1.01062
1.49461
0.935671
1.37445
1.15379
1.17046
1.31773
1.3024
1.37576
-0.0136616
1.19229
1.22168
-2.36978
1.32193
1.97791
1.3095
2.01263
1.27548
2.13927
1.24363
1.45492
1.80097
-0.570035
1.32023
1.30227
1.5246
1.23678
1.33316
0.836037
1.46193
1.16632
1.42416
0.811437
1.35918
3.08313
-34.9381
-42.8904
1.06421
-44.2067
-55.4661
-42.0416
-40.6659
1.77869
-38.2632
-36.0734
-43.5065
1.5627
0.835175
1.49448
-1.08852
1.40348
-31.9025
-1.47378
-5.29731
-2.82079
-0.76214
1.16606
0.277567
-42.5675
-33.4451
-44.7753
-32.8377
-35.8432
-43.4402
0.918083
-1.14155
1.2086
0.203749
1.23788
1.37831
1.51958
1.3918
1.14938
0.948276
1.25864
-29.3941
1.2921
1.51087
1.46121
1.54407
2.81411
1.11687
1.46221
0.501814
1.25729
1.54451
1.44483
0.749491
1.04219
1.48881
1.25093
1.44209
2.12632
1.75491
-1.36496
1.1349
1.23761
0.735641
0.975025
1.08368
1.81042
1.11621
-2.44057
-10.9211
2.5356
-1.56217
-1.76382
-1.31339
0.518604
-1.59508
2.16238
-3.36674
1.23071
2.64703
0.37085
1.26175
1.06332
1.58259
1.30077
0.1757
1.3342
-34.622
1.11183
-0.426962
1.50226
-50.1233
1.87821
1.3289
-6.32029
0.971667
-40.3297
-36.3879
-39.1019
-23.7354
-4.216
-42.0371
-33.8448
-8.85174
1.41946
-31.9532
-38.3855
5.90992
-1.45585
1.93373
1.52396
-0.0410799
1.41797
1.16298
0.628231
1.08573
1.25243
1.31965
2.58953
2.09047
1.16759
0.759578
0.452644
2.69871
3.34074
1.39064
0.903143
3.44961
1.38211
1.21263
1.32807
1.18197
1.28021
1.61979
1.22671
0.364311
0.932134
0.348661
1.88587
1.61342
1.74631
1.60642
1.50572
1.3593
1.62123
1.53749
1.55466
1.00722
1.42852
3.20809
4.29002
2.2962
2.26242
1.62925
1.78676
1.40167
1.75676
1.18615
-30.8724
-46.4552
1.51094
-9.79808
-35.6235
1.15227
0.483703
2.70213
1.41654
1.55104
-17.3943
0.542983
-37.2133
-46.0455
-17.473
-35.0288
1.3682
1.34994
1.24243
-31.8483
1.21079
1.2139
1.93985
-37.6978
-34.1963
-48.0754
-63.1318
-60.447
-33.13
2.29756
-17.9513
-45.5392
1.3904
-14.167
-41.5807
-17.6765
-3.78404
-33.8853
-33.5843
1.97003
-41.6479
-3.32735
-40.6084
-42.4763
1.35706
-53.7528
-36.4901
-45.585
1.27417
-7.30893
-35.4995
1.26031
0.711143
1.09077
-41.3114
-28.4782
-0.55503
1.91189
3.09297
1.76979
1.68735
-0.874683
-0.0561934
4.77596
0.122902
2.07968
-0.0637514
-22.2269
-13.1884
-13.9291
-11.8022
-41.3513
-50.3291
1.15337
0.0116438
1.10848
-4.52032
-7.90368
-0.771161
3.14726
2.10739
-21.8829
1.1089
1.30579
1.23007
0.990887
1.11644
1.08939
4.14673
0.376495
0.804726
0.380278
-0.805251
1.11603
1.02013
1.60949
0.560961
1.28825
1.31952
1.25967
1.39317
-67.0061
-35.0636
1.30755
-1.62593
1.53629
0.980368
1.55866
-2.69381
1.67182
1.69189
1.81432
1.5828
-4.39492
1.04837
-8.14791
-5.84536
1.47787
-18.8616
0.820585
1.21994
1.06514
1.15586
1.20947
1.44129
1.2332
1.38934
1.24283
-0.561135
2.1895
1.08738
1.14353
1.45571
-0.856857
1.92604
1.57476
-0.94741
1.49495
1.90872
-32.8029
-48.4601
1.89882
-16.0882
-38.1995
-15.8749
-44.2268
-3.44882
-51.5653
-25.4224
-45.683
0.813227
-1.89956
1.50527
1.37115
0.113861
0.474218
-18.8394
-37.3385
0.0522254
-0.116039
1.30178
1.68015
1.8344
1.93364
1.91232
1.65528
2.34127
1.20161
1.28382
1.1824
1.17237
1.74683
1.96995
1.48965
0.647496
1.41392
1.62848
2.62562
1.21591
1.46099
1.17928
1.05559
1.06346
0.54772
1.31921
1.46824
1.42881
1.2604
1.49374
1.34286
1.49719
1.02631
-36.6553
-33.6415
-9.18289
1.14699
-0.552175
-2.85646
1.07533
1.22613
1.30949
1.41381
1.50889
2.49138
1.83193
1.15579
1.18095
1.27933
-2.79291
-34.2883
-42.4264
-41.0642
-42.0177
-47.9131
1.08036
2.63952
1.11284
1.1845
1.32495
1.26473
1.15102
1.13715
1.31771
1.12052
1.27767
1.55915
0.923438
1.64836
1.06675
1.61411
1.82428
1.14318
1.14357
1.20802
-10.4909
-7.05311
0.856979
2.70763
1.08394
-4.47187
1.52314
1.53078
1.46329
1.3495
1.39451
1.47045
1.53084
1.57954
1.69258
0.938866
1.57279
1.9706
1.13441
1.14741
1.15094
1.23397
1.07365
1.50632
1.25953
1.15614
1.142
1.31849
1.26978
1.42123
1.76465
1.42991
1.07451
1.27541
1.3578
1.13723
1.81129
1.06997
1.69398
1.45444
1.21729
1.65204
1.61753
1.56058
1.56383
1.39291
1.26754
1.46678
1.42731
1.59735
1.5818
1.13999
1.2256
1.3069
1.06788
1.43855
1.21782
1.29174
1.07246
1.18622
1.66931
1.15133
1.62796
1.56018
1.65382
1.50606
1.66058
1.40904
1.14747
1.27502
1.43567
1.58495
1.44428
0.998296
1.24864
1.07049
0.631085
1.02692
1.17191
1.56014
1.26304
1.78863
1.43235
1.39191
1.99151
1.73808
1.42351
1.37361
1.5952
1.01508
1.14044
1.29319
1.06755
-34.2372
1.34012
1.30563
1.23484
1.77881
1.22286
1.30255
0.996391
1.10359
1.22073
1.22179
1.13076
1.44072
0.976054
1.46482
1.40114
1.75232
1.11488
1.48728
1.5153
0.962291
1.29775
1.0738
1.37057
1.29949
1.39605
1.19247
1.23141
1.39077
-30.7599
1.00594
1.36606
1.20283
1.20664
1.29633
1.2939
1.31815
1.30373
1.37371
1.15397
1.12268
0.867389
1.18422
1.46175
1.47393
1.11859
1.23204
1.20377
0.869423
1.12058
1.17371
1.61504
0.996587
1.09785
1.27892
1.25946
1.32145
0.949393
1.50599
1.32915
1.20411
6.61851
2.73651
1.52201
1.62926
1.53707
1.81894
1.91525
1.53965
1.98984
2.33987
2.29725
1.57588
1.66899
1.67389
1.37178
1.31967
1.09067
1.19857
1.41393
1.29659
1.48291
1.3714
1.24111
1.58927
1.29283
-5.15839
1.2974
1.88191
1.2378
2.04971
1.11161
1.15113
1.23162
1.14168
2.17395
1.37897
1.56243
1.55321
1.50921
-45.8902
2.00011
0.821044
-0.244545
2.35648
1.58066
1.47841
1.54276
1.22504
1.35768
1.26232
1.13193
1.23266
-25.4195
2.08804
1.4345
1.79396
1.37766
1.3941
1.6623
1.46439
1.04831
1.46364
1.34405
1.15947
-5.72457
1.23033
1.41131
1.20259
1.07863
1.34416
-32.7119
1.25854
-31.801
1.48486
1.50048
1.62337
2.59757
2.64559
1.54497
1.46566
1.4995
1.78999
1.57155
-6.02357
1.58751
1.34777
1.47744
1.48986
-34.8897
1.32413
1.01239
1.19653
1.06621
1.79294
1.39532
1.77491
1.28837
0.952233
1.46089
1.67219
0.33772
1.63246
1.10093
1.17085
1.45882
1.18636
1.51525
1.02496
1.26547
1.45659
1.20675
1.05796
1.04304
1.13295
1.12522
1.24751
1.91069
1.74185
1.16318
1.06435
1.33874
1.24168
1.19398
1.47408
1.22784
1.38609
-25.1083
1.7195
1.09597
1.38242
1.36511
1.55205
1.27447
1.83957
1.26183
-36.2972
1.38756
1.23633
-34.3228
-33.5211
1.25195
-47.3464
-38.0683
-44.3274
-42.4536
-38.5744
1.20796
1.06435
-20.0241
-11.7692
1.11921
-30.6096
-36.5904
-37.0521
-34.6123
1.25725
-7.16498
-41.457
-16.7613
-39.645
-20.6296
1.61235
1.14415
-41.8809
-32.3691
-38.374
1.19225
1.27528
1.1237
-40.0621
1.13534
-37.5541
0.700076
1.39654
1.86261
0.991708
2.68279
0.969899
2.1116
1.99256
1.15818
1.1604
-0.504019
1.29794
0.967166
1.05824
2.0283
1.20096
0.76102
1.34925
1.18472
0.703424
1.3181
1.81174
0.987379
1.01972
1.05037
1.72649
1.12066
1.47532
1.75133
0.244123
1.19141
2.29763
2.08779
2.70564
3.25494
-11.0604
2.36545
-24.5975
1.30505
1.78816
1.28339
1.01894
1.17401
1.29897
1.41989
1.69241
1.71519
0.902699
2.57188
1.30309
1.50206
1.39136
1.19387
1.35024
1.54712
1.42927
1.5835
1.81737
1.70847
5.04174
1.49128
5.60222
1.34735
1.65577
1.34993
1.30046
1.02903
1.8204
1.3688
1.18104
1.47202
1.53433
1.25668
-45.9537
1.28438
1.18708
1.28548
1.3522
1.31289
1.70475
1.17368
-37.7245
-34.9065
0.803857
-2.95045
1.2344
1.32313
1.10251
1.36537
1.31174
1.17606
1.56292
0.604374
1.01449
1.34084
0.985654
-48.5434
1.13529
1.20456
-0.0253442
0.318284
-45.7216
-15.1779
-0.382634
1.09583
-33.8286
1.14443
1.19099
1.42311
4.99836
2.40437
1.75471
0.969318
1.2731
1.12875
1.21127
1.48758
1.0041
1.44621
1.21664
1.39524
1.43777
1.12163
1.155
1.40423
1.26199
1.31683
1.3312
1.14581
1.07725
1.20862
1.1993
1.17204
1.12027
1.21566
1.29054
1.21724
1.58186
1.37826
1.54083
1.33285
1.77498
1.4574
1.45374
1.28202
1.47442
1.46614
1.50066
2.06449
0.830866
0.944179
0.971718
1.02147
0.986047
1.16831
1.34816
1.40728
1.42043
1.04235
1.49303
1.49192
1.2247
1.42718
1.37644
1.27814
1.22692
-25.1836
1.29939
1.41042
1.60468
1.33939
1.5769
1.38229
1.18032
1.34194
1.26768
1.27143
1.54678
1.87211
1.73968
1.59952
1.71825
1.55108
0.994962
1.26015
1.47648
1.34069
1.18158
-0.235862
0.616858
-1.01064
-0.548521
1.80095
-9.0686
-1.79478
1.5204
1.39689
-0.958363
-0.613801
-0.461448
1.09536
1.16453
1.14712
-20.7006
-41.1521
-36.318
1.48195
1.15165
-4.80952
1.38507
1.00881
-1.07294
0.821518
1.78819
4.48176
-38.3873
-5.58612
-44.6551
-47.3362
1.35661
1.48716
1.11823
1.56309
-33.8864
-39.3922
-43.583
3.51983
-33.174
-12.5211
-8.39796
-18.3768
1.77429
-71.3721
-48.7109
-41.086
1.07438
1.4502
1.59176
1.56582
1.50614
1.51829
-7.39242
-42.1696
0.47175
0.538564
0.168956
-32.9676
-41.3055
-19.4715
-0.571185
-33.732
-37.8455
0.850769
1.09751
0.504765
0.36881
-4.49123
1.56672
1.4755
1.07326
1.51186
-51.2678
-43.7062
0.174033
0.424143
0.76133
0.533948
0.689489
0.890754
1.32131
1.49979
1.15537
1.704
0.99155
1.15157
0.885413
-45.347
0.77643
1.28788
1.55262
1.12902
1.21812
2.89724
1.39562
1.15535
1.47879
-48.2142
-0.829436
0.976176
1.22846
-2.89663
1.15626
1.23306
1.57064
1.30933
-0.167731
2.65979
2.93451
3.77368
-1.81008
1.55539
1.48502
3.9256
-3.95003
0.311347
1.07781
1.4337
1.88159
2.28584
1.07763
1.29725
1.27782
1.27367
1.26781
1.42733
1.23126
1.73369
1.21491
1.22359
-0.459951
1.65376
1.24407
1.4238
1.36673
1.35648
1.24721
1.27567
1.75194
1.01104
1.5297
-11.0699
-10.8159
-10.6848
1.15989
1.13409
1.36121
1.33739
1.82885
1.42627
1.41504
1.56174
1.61201
1.36477
1.75448
1.75297
1.53956
1.51033
1.301
2.75955
1.4247
1.49849
0.259283
3.40093
2.47832
1.25406
-0.296766
1.63235
1.82676
2.06062
2.21534
1.79331
2.50831
1.26549
1.14161
1.21117
1.32289
-0.377283
1.81066
1.52564
1.44837
1.3907
0.0502847
1.38667
1.35938
1.55128
1.37831
1.1319
1.54449
1.37311
1.36422
1.23811
1.27083
1.06089
2.79713
3.12564
1.63536
1.52597
1.43467
-34.4742
1.22535
1.30128
1.45782
1.21548
1.27118
1.10897
1.31794
1.19827
1.46083
1.33752
1.95642
-48.8661
-39.5727
1.22694
1.17969
1.02961
1.1346
1.93111
1.95241
1.6516
1.19595
-42.8037
1.3146
1.34064
1.17932
1.12417
1.26875
1.06031
1.26578
1.28115
1.30188
1.25126
1.26202
1.34193
1.17084
1.13838
1.26368
1.16576
1.31209
1.11028
1.17884
1.08668
1.067
-13.5648
1.2892
0.3575
1.08357
1.31087
1.47434
1.63851
-24.4989
-25.2193
-34.5955
-21.289
-36.7677
2.21553
-43.3904
-24.8791
-38.6098
-32.5901
0.362839
0.572663
1.16124
-35.0029
-32.3323
0.899271
1.6729
-0.330894
-36.9749
1.65689
0.283805
1.34315
1.12676
1.02385
1.13434
1.39411
1.35977
1.36016
1.35992
1.50784
1.56913
1.61872
1.88582
1.0886
1.67066
1.05774
1.11655
1.20709
1.39857
1.0775
1.56105
1.16862
1.18588
1.44034
1.39383
1.2726
1.18503
1.20057
1.34153
1.29134
-8.80378
1.77483
0.990507
1.32675
1.11555
2.01271
1.18929
1.14759
-34.1164
-32.8402
1.6301
1.9623
1.6956
1.59058
1.49146
1.09147
1.47243
1.46796
-1.38643
1.34497
1.60713
1.52693
1.5747
1.4977
1.53476
1.56561
1.05804
1.09829
2.55459
1.3191
1.38065
1.29513
2.03407
1.26441
1.35907
1.30547
-1.65205
-1.67468
1.36345
0.923403
1.08172
1.05697
0.957023
1.57197
1.48588
-3.05187
1.3685
1.1765
1.05797
1.05104
1.17048
1.0744
1.69556
1.52322
1.21961
1.2601
1.28111
-37.5966
1.15212
1.16255
1.10182
1.43142
1.1617
1.17385
1.24385
-9.38148
1.31315
0.716539
1.37625
1.34317
0.554158
0.590177
0.689465
1.37632
1.27715
1.3181
1.29684
1.11395
1.46137
1.25738
0.853615
-1.89136
1.25064
1.4458
1.4656
1.50675
1.38986
0.363758
0.462239
1.46905
1.02072
0.514743
1.5088
2.1033
-0.0257147
1.6849
1.98969
1.52714
1.43649
1.55853
1.5264
1.52872
1.53534
1.52272
1.6493
1.82538
1.52735
1.48125
1.43181
1.5051
1.69834
1.51739
0.0787374
0.228182
1.82435
1.59886
1.43641
1.27755
1.28178
1.41868
1.72741
1.34043
1.25584
1.05382
1.16703
1.69318
1.34479
1.59075
1.48892
1.10952
1.5775
1.43072
1.19911
1.58036
1.6049
-39.5627
1.41901
1.48537
-0.267223
1.2896
1.21468
1.53803
2.13902
1.33672
1.53584
1.72301
1.25703
1.17645
1.50635
1.30634
1.40361
1.31469
2.50279
1.21733
1.66404
1.59606
2.0887
-35.3213
-32.4957
-40.7013
-43.0901
-33.1176
-47.5051
-39.1988
-42.1266
-35.9033
-37.4241
-34.0975
-32.8786
-36.1145
-39.0531
-31.9995
-34.7669
-33.4713
-40.2314
-35.3978
-32.8354
-36.1063
-42.7952
-38.6077
-32.1468
-35.2118
-31.6023
-43.5499
1.01899
1.01987
1.31653
1.61355
1.40641
1.19564
1.21435
1.36456
1.11401
1.31519
1.20067
1.14583
1.02695
1.24946
1.4251
1.30343
1.15173
1.11091
1.17393
-2.44589
1.58238
1.40943
1.80513
1.97839
1.09329
1.14746
1.10434
1.23095
1.20399
-3.71558
1.75121
1.35044
0.77681
1.52686
1.62887
-0.63406
-0.700439
1.8448
2.16419
2.24136
1.79998
1.5199
1.62321
1.85075
0.614254
-4.54423
1.18229
1.2816
1.53349
1.45639
1.1244
0.506501
-16.9066
1.2958
1.46787
1.08969
-0.0403748
0.383288
-1.68282
-8.07708
2.40353
3.47929
-12.3216
1.11556
1.08905
1.25796
1.07021
1.10288
-36.4138
1.57259
-34.7231
1.65442
-42.6157
-29.9054
-27.8325
-26.6865
-19.9376
-48.3516
-48.5739
-46.9454
-20.7435
1.73492
1.45807
1.69115
3.74702
1.31515
1.31412
1.45652
1.1982
1.52468
1.67523
1.964
1.80952
1.49373
1.70857
1.65088
1.08242
-34.3829
1.96103
-0.640585
-36.4583
-41.6057
-38.826
1.4766
1.61847
1.44579
-42.1258
1.6777
-37.9763
1.1105
0.139671
-10.9391
0.835268
-9.62377
-50.0519
-44.2649
-9.41004
0.953175
0.507275
-7.55349
-27.0111
-8.45138
-44.0731
-32.2362
-37.5916
-32.8738
2.31927
1.59622
3.23294
2.83928
-0.696901
-21.6859
-45.2382
1.41331
-53.9568
-32.6521
-13.8162
-14.0639
-8.9739
-46.3702
-10.2777
-7.09315
-44.809
-41.3259
-52.7661
-34.6256
1.98362
2.24664
-31.3945
0.748995
-23.5547
1.04302
0.596874
-2.04553
4.77964
1.23516
1.45748
1.55341
2.75574
-1.51952
-0.635461
0.630313
1.85134
-17.4872
-0.956713
-0.636668
-0.775738
1.27406
0.351185
-1.96964
0.131437
-0.915366
-0.0770294
1.87642
-0.210884
-0.714824
3.07881
-1.46157
0.903035
1.40992
1.50106
1.54706
1.70846
1.8578
1.62572
2.18733
1.30756
0.620444
1.3702
1.27004
1.26449
1.20283
-1.694
1.03631
-37.916
0.609757
-2.1155
1.27809
1.3382
1.36704
1.66824
1.16964
-2.15284
0.513642
0.660327
0.296559
0.971771
0.993774
1.26785
0.541842
0.962206
0.480046
1.12484
0.666509
1.23928
0.992955
1.1659
0.804324
0.892365
1.3526
1.5077
1.21523
1.56511
1.91841
1.55151
1.87555
1.42011
1.36907
-12.3176
1.74822
1.86662
1.15319
-33.8159
0.787028
1.75583
2.09635
-35.1006
-31.8387
-34.4434
-49.007
-39.8705
-37.0322
-46.432
1.18005
-39.336
-35.5698
1.51403
1.68433
1.60587
1.16703
2.23821
2.17614
1.34096
0.769984
0.705037
1.11306
1.27753
1.49401
1.33735
-38.7374
-36.8961
-34.8099
-32.8092
-36.6459
-38.5233
1.71442
-19.5102
1.38961
-1.09174
-36.291
1.41952
-26.4384
-36.3392
-37.5552
-35.7988
-44.7627
-31.0081
-48.5054
-46.5382
-43.855
-43.7237
2.36525
2.58694
2.33212
2.31111
1.34556
1.15442
1.06532
1.19655
0.995373
1.22087
1.42629
1.83777
1.17839
1.47316
1.38582
1.60032
1.27265
1.15366
1.37759
1.12939
0.904606
1.17866
1.2143
1.27237
1.3431
1.47019
-19.7062
1.59582
1.52297
1.48712
1.36243
1.06367
1.26784
1.36144
1.3018
1.04513
1.33622
1.30913
1.53586
1.32601
1.27168
1.3257
1.11582
1.40745
1.36497
1.42909
1.25425
1.26271
1.26299
1.51138
1.3715
1.66079
1.40435
1.48741
1.59149
1.58386
1.68979
1.691
1.72918
1.69028
1.56081
1.73809
1.08643
1.3966
-0.436383
-38.1547
1.33702
1.25628
-11.2923
-41.4933
-1.11874
-11.0525
-32.6034
-21.7908
-12.1801
1.0971
1.2563
2.0213
1.1072
1.22549
1.17486
0.891052
1.37176
1.36705
1.31943
1.37602
1.25936
1.24316
1.32143
1.31307
1.11058
1.19667
0.924722
1.27991
1.09216
1.56661
1.44836
1.32325
-0.712561
1.19101
1.15168
0.988707
1.07346
1.47245
1.26882
1.7667
1.58439
1.34875
0.81891
1.54192
1.48579
0.801185
2.16976
1.54026
1.61068
1.6855
1.61113
1.61601
1.80158
1.5877
1.48484
1.69726
1.76888
1.65592
1.77678
1.65079
1.35162
1.47022
1.26945
1.47087
1.10383
1.34356
-31.7339
-38.7712
-45.1886
1.05371
1.28225
1.30806
1.32706
0.978827
1.76162
-0.861607
-0.364663
1.27997
1.3891
1.11666
1.18829
1.10503
1.37856
1.24637
1.27926
1.32719
-2.31305
1.53039
1.69862
1.53032
1.79242
1.63975
1.7917
1.51999
1.35863
-0.52328
1.8047
1.90973
2.23687
1.46787
1.01126
1.31804
1.18455
1.03551
1.44829
1.21594
1.25984
1.33376
1.28061
1.25038
1.47748
1.1506
1.87507
2.03715
1.0708
2.08679
1.01432
0.964448
2.01172
2.08006
1.62801
1.28071
1.3583
1.23797
1.54597
1.26246
1.396
1.91119
1.87742
1.11433
1.39741
1.00703
1.07676
1.03217
1.09526
1.12759
1.37456
1.16404
1.43549
-33.2998
-35.6568
-35.8036
-44.5798
1.39358
-38.8862
1.32529
1.46403
1.42697
-40.1731
1.80224
1.66231
1.28118
1.73752
1.78891
1.38442
-28.0235
-14.2495
-52.2704
-45.5634
1.65225
1.63835
1.62768
2.31276
1.81146
1.63463
1.79525
1.50701
1.80783
1.48369
1.51841
1.91444
1.40145
1.72857
2.54457
2.55652
1.90085
0.240625
1.88862
2.92983
0.467805
-41.0596
1.40473
1.53566
1.68317
-58.4607
-41.0582
1.5618
1.68303
-34.6619
-34.6766
-33.5611
1.67891
1.3432
-35.186
-16.4006
-16.426
-18.6691
-17.9421
1.35103
-28.0002
1.77079
1.50413
1.54163
1.91674
1.38881
1.15439
1.47309
-32.9855
1.89165
-34.5874
1.33067
2.60575
1.39203
0.778596
0.0814496
1.47618
1.46228
1.4315
1.1342
1.04834
1.15538
1.01545
1.10295
1.07205
1.47685
1.09718
0.841859
1.4463
1.74331
1.36479
1.88477
1.39315
1.39509
1.53443
1.74665
3.09027
1.19619
1.32505
2.00653
1.12805
1.42817
1.58793
-12.0697
1.13218
-20.8965
1.40785
1.5914
1.44289
1.66822
1.17825
-7.85545
1.6317
1.75793
1.30649
1.30862
1.13495
1.33701
1.35739
1.31241
1.8432
1.82843
-0.394519
-13.9908
-2.45031
-5.2737
-6.68284
1.04139
1.48111
0.820054
0.68773
3.07427
1.98882
1.74807
0.175066
2.48605
-18.9721
-5.809
-43.8969
-33.5687
2.39894
1.19722
2.20002
0.693303
-38.6112
-41.5608
-2.04878
0.916287
1.51746
1.73355
-7.75333
-3.32497
1.57222
2.27313
3.98514
0.932719
1.42933
2.07267
1.83424
1.69527
1.85074
1.79602
1.58133
1.35983
2.12252
1.30099
1.15426
1.22874
1.52385
1.60642
1.20468
2.91996
-43.9642
-40.5408
3.36081
1.67181
1.67285
1.64533
-8.64294
-41.726
2.26636
0.951474
-8.20328
3.20051
-10.3039
-35.4863
-4.11121
-5.26966
-50.1762
2.50784
-47.6451
-32.2807
2.24874
-1.1627
1.64856
1.71168
1.12177
1.79723
-3.13838
3.77041
1.60152
2.48572
1.51925
2.46113
-0.185836
1.21587
1.7118
-20.4465
-44.4067
-24.1096
-31.7465
-32.8564
-31.8601
1.99871
2.58099
2.41209
-0.606808
-39.7812
-38.9402
-2.5059
-38.3131
-36.8285
-17.9995
-18.217
1.39981
-37.3826
-22.2145
-9.82986
1.25137
1.19977
-43.0409
-0.207881
0.984401
1.44059
1.60138
0.945123
1.22573
2.05098
1.38602
1.39522
1.36679
1.42841
1.88878
-2.43779
0.197422
1.15959
1.52225
-35.8943
1.16146
1.79461
1.44547
1.74925
0.11952
1.88722
1.08427
1.81876
-44.587
1.60197
1.70489
1.36295
1.35945
1.24901
1.6411
1.7885
2.8052
1.44308
1.59138
0.875294
1.40948
1.33713
0.901092
1.50016
1.13964
0.998987
1.5435
1.16661
1.04234
1.077
1.14481
1.27963
-33.8327
-36.4636
-40.6569
1.61768
-40.245
-12.932
2.00859
-11.1224
-43.6573
-34.2892
-37.9835
-41.1258
-37.3844
-40.8809
-41.6837
-37.8268
-41.6961
-17.4314
-39.0663
-39.7135
-53.1588
1.51806
-47.4248
4.68043
0.9297
1.22535
0.454664
0.754126
0.536603
0.503221
1.49095
1.23587
1.14979
1.4152
-38.9905
-47.4465
-34.4929
1.57304
2.04696
1.31273
3.76104
1.59934
2.0347
1.35434
-0.712675
-2.09121
-2.35695
2.80524
-43.1259
-37.3128
-41.9038
1.09878
1.16008
1.91645
-49.456
0.776234
1.0166
1.06139
1.82127
1.85897
1.33884
1.1836
1.30281
1.87015
1.66349
1.06772
1.04807
0.944098
1.08154
1.21221
1.31264
1.12222
1.182
1.39012
1.45651
1.49536
1.07752
1.12427
1.69721
1.28463
1.45548
0.711409
1.4574
1.38222
1.6978
1.37826
-0.00697368
1.26281
1.04635
1.27392
1.62751
2.39941
0.632934
0.253303
1.72254
1.66696
1.505
1.51605
1.94005
1.34817
1.6341
1.24057
0.808467
1.45692
1.5536
1.46692
-11.0392
1.68168
1.98515
1.48966
1.79888
1.87189
1.76126
1.00613
1.33892
1.09765
1.21574
1.08847
1.21276
1.36397
1.70399
1.09846
1.15671
-4.71891
1.91785
1.49163
1.86125
2.71443
1.29868
1.11748
1.29322
0.973644
1.19628
-7.48074
-3.53894
1.37644
1.16169
1.04304
1.18644
1.19934
1.20064
1.69459
1.88591
1.93718
1.35873
1.62641
-0.433317
1.33443
1.18347
1.06792
-0.817767
1.41969
1.4521
1.54804
1.2344
1.18147
1.12112
1.29188
1.25675
1.51657
1.61733
2.01817
0.702068
1.02603
1.52127
1.55405
1.6153
1.48571
1.37267
1.65793
1.30341
1.34864
1.38473
1.49153
0.52847
1.89456
1.19809
1.51751
1.52235
1.15737
1.61603
1.34703
1.06305
1.28176
1.34436
1.54186
1.41169
1.09453
1.54049
1.44706
1.43981
1.44464
1.47751
1.49167
1.53774
1.34992
1.17105
0.986689
0.822444
1.27098
1.01016
1.12234
1.02239
1.25935
1.73268
1.35574
1.32514
1.02061
1.24572
1.42249
1.0792
1.64779
1.38401
1.46298
1.62104
1.16514
1.36469
1.179
1.20579
0.534044
1.08287
1.32741
1.5831
1.49925
1.09677
1.57147
1.54509
1.4647
-2.3192
1.68434
0.426483
-2.11334
1.39018
1.41234
-43.5251
-44.0452
-36.0693
1.23208
1.29351
-38.4995
1.15022
-47.2045
-43.7386
-1.62892
-48.582
1.40477
1.3994
-5.82509
3.07242
1.46577
1.31896
3.2416
2.10134
1.86248
1.06099
1.0147
1.09421
1.06868
1.51876
1.14074
-43.2522
1.17005
1.0562
0.97237
-39.2186
-33.7346
-36.9379
-35.3231
-36.0895
1.02726
-35.3567
1.46107
1.37244
-32.2844
-36.031
-32.1821
-35.4911
1.15807
1.3093
1.42813
1.27674
1.39489
1.13403
1.51286
1.32515
1.6193
1.17442
1.12574
1.07929
1.17391
2.38244
-0.169995
1.08008
1.21018
-44.9921
1.21748
1.39944
1.44138
2.49738
1.59182
0.964753
1.49186
1.7911
1.22417
1.7875
-34.0095
1.46258
-36.6139
-2.13628
-20.1062
-46.065
-33.8118
1.55398
-31.8348
1.62007
1.45098
-38.3485
1.35833
1.36163
1.31076
1.29739
1.47277
1.79582
1.64045
1.67438
2.50835
-38.1643
-34.2602
-34.3485
-32.1365
2.01124
-4.03119
-5.25456
0.604448
1.73408
-32.8451
1.39927
1.03393
-4.4039
-20.1872
2.19129
-50.095
-23.6316
2.12804
-32.3265
1.12977
1.63693
2.59244
0.801258
1.49399
0.521587
1.11458
0.262521
1.92042
-0.470265
-2.75673
-39.8203
-20.766
-44.4282
-2.58003
-3.95233
-4.25946
2.50593
-0.52492
-2.57231
0.690227
-47.005
-33.5309
2.73613
-47.2225
-6.68413
2.07398
1.59626
2.71337
1.48749
1.41818
-17.5307
1.12331
1.29289
1.04497
1.40935
1.43101
1.47752
1.26058
1.28315
1.10965
1.12624
-10.3838
1.00391
0.977905
-42.668
-41.0356
-35.3869
1.3595
1.42543
1.44909
1.28132
1.28459
1.4575
-1.36682
1.24652
1.10414
1.62001
-39.4826
1.13717
1.43196
-34.4901
-7.21888
-0.186237
1.55343
1.47621
1.76993
1.62171
0.387517
1.06925
1.1426
0.836684
1.45981
-6.92424
-5.34196
0.283541
-1.72652
1.5589
-3.31893
1.15099
1.43241
1.73725
-33.4094
-4.1622
-1.74464
-38.7415
-2.72404
1.37144
1.35557
1.28242
-42.8031
-39.1632
-39.4616
-48.4977
-42.5353
0.942392
1.38264
1.35756
1.55452
1.57201
1.20961
-1.88141
-4.10739
-0.464511
-30.6711
-19.714
1.57418
1.48489
1.3275
1.9566
-2.03363
-1.73081
-5.31841
-10.7054
-1.90904
2.39445
1.41412
1.4181
1.2073
1.39348
-0.264438
0.791178
0.412003
-57.9135
-40.8862
-49.4676
-38.8388
-44.107
-34.326
-17.1643
1.1235
-42.1229
1.17423
1.14704
1.16784
1.23919
-28.5089
-23.1259
1.03377
-8.52691
-36.5195
-35.9985
-40.9027
1.48646
0.493781
-58.725
-43.7455
1.48786
1.41429
2.99145
3.25134
1.18864
1.92804
1.39705
0.357062
1.47247
1.33427
0.766897
0.332385
2.93731
1.42856
1.38067
2.72232
1.72351
1.60417
0.885823
0.492496
1.8247
3.10696
1.26662
1.33668
-0.498241
-0.599032
-9.66296
-14.148
-7.51252
1.60402
1.43704
1.78049
1.3607
1.41591
1.42035
1.30221
1.35524
1.3495
1.38103
1.45768
1.33719
-0.836416
1.37168
-0.588004
1.15354
1.54065
1.7627
1.42063
1.14384
1.21398
1.36295
1.109
1.4361
1.24975
0.5032
0.998336
1.07495
1.45834
1.52847
1.80574
1.44213
0.814088
1.21414
1.41614
0.890295
1.16565
1.26966
-1.40494
1.20895
0.844044
1.30252
1.18988
1.41305
1.62046
1.04278
1.12759
1.16645
-2.02271
1.63643
-32.1737
-33.5278
-31.7947
-30.5923
-7.88488
-7.29023
-2.84278
-0.942183
1.62541
0.896507
-2.91593
0.888478
0.961985
0.885689
1.80419
1.44662
0.976939
1.71148
1.4819
1.57964
1.61206
1.37961
1.63923
1.36373
1.20438
1.63633
1.31786
1.29328
1.26774
1.59724
1.53199
1.52046
1.7353
1.51334
1.18405
-39.1284
-41.6574
-42.7669
1.73863
2.83352
1.60319
2.06951
1.85715
1.77848
1.39814
-1.22155
-46.6062
1.48331
1.22044
1.2615
1.35924
1.40753
1.33172
1.38147