/*--------------------------------*- C++ -*----------------------------------*\
| =========                 |                                                 |
| \\      /  F ield         | OpenFOAM: The Open Source CFD Toolbox           |
|  \\    /   O peration     | Version:  2506                                  |
|   \\  /    A nd           | Website:  www.openfoam.com                      |
|    \\/     M anipulation  |                                                 |
\*---------------------------------------------------------------------------*/
FoamFile
{
    version     2.0;
    format      ascii;
    arch        "LSB;label=32;scalar=64";
    class       volVectorField;
    location    "0.0501868";
    object      U;
}
// * * * * * * * * * * * * * * * * * * * * * * * * * * * * * * * * * * * * * //

dimensions      [0 1 -1 0 0 0 0];

internalField   nonuniform List<vector> 
3975
(
(12.0493 0.424262 0.226888)
(10.6503 -0.190933 -0.0147459)
(10.6367 -0.00673829 -0.00554158)
(10.789 -0.46296 0.140643)
(10.7882 -0.433814 0.109662)
(11.6928 0.809425 -0.63685)
(10.6951 -0.867237 0.256751)
(10.7189 -0.858071 0.393532)
(11.0641 -0.36627 0.114909)
(11.024 -0.118479 0.0110343)
(11.2051 -0.0801735 0.0332165)
(10.3158 -0.0284369 0.00263652)
(10.9647 -0.256388 0.0283606)
(10.5475 -0.00859617 -0.0135034)
(10.9539 -0.161422 0.0134785)
(10.9842 0.0994896 -0.00946801)
(10.5983 -0.0553821 0.0258335)
(11.2308 -0.113422 -0.159577)
(10.7138 0.0168624 -0.0551117)
(10.7501 0.0777071 0.00378229)
(10.5434 -0.00519782 -0.0143808)
(11.1481 -0.0960015 -0.0773335)
(10.7187 0.0081856 -0.0695449)
(11.6199 0.216964 0.730664)
(11.6999 0.221843 0.573328)
(10.7994 -0.619032 0.0302101)
(13.1013 1.97146 -0.649604)
(11.2831 0.0310115 0.273116)
(11.3165 -0.397825 -0.516255)
(10.5865 -0.0666886 0.0376494)
(10.4796 0.877302 -0.315443)
(10.5828 0.119648 0.00834704)
(10.3407 1.49071 -0.846928)
(10.7607 0.676161 -0.287503)
(10.764 0.607847 -0.199785)
(11.2739 -1.28341 0.434195)
(11.4222 0.529127 -0.186249)
(11.0555 0.547658 -0.126171)
(10.9903 0.637242 -0.303344)
(10.9414 0.688641 -0.327967)
(11.2126 0.611177 -0.300247)
(11.2822 0.655296 -0.399308)
(11.1621 0.688642 -0.457341)
(10.9012 0.403587 -0.044634)
(11.8751 0.349867 0.249539)
(10.8897 0.31363 -0.0370586)
(11.0404 0.150272 -0.0344294)
(10.9675 0.167856 -0.0423849)
(11.9336 1.6034 -1.32481)
(10.7927 -0.202658 -0.043768)
(10.6404 -0.187686 0.0604143)
(11.1281 0.537255 0.00252533)
(10.3332 1.32628 -0.993966)
(12.6405 1.28023 -0.427758)
(12.7478 0.936711 -0.145513)
(12.7049 1.35809 -0.383242)
(12.6501 1.26997 -0.311913)
(12.5432 1.32483 -0.371334)
(12.3679 1.32766 -0.440976)
(12.27 0.701889 -0.0553018)
(11.9272 0.832208 -0.229211)
(12.0357 1.92326 -1.13754)
(12.6177 0.831734 -0.0688814)
(11.8444 1.14525 -0.234686)
(10.71 0.363689 -0.164905)
(12.895 0.901408 -0.607316)
(10.3182 1.51495 -1.08183)
(10.6505 0.351098 -0.0941751)
(12.9313 1.08664 -0.925663)
(6.31601 1.01161 0.334138)
(6.14247 0.98583 0.180574)
(5.01866 0.851886 -0.171438)
(9.93857 1.24909 0.680376)
(10.4322 0.0361241 -0.00696152)
(11.9301 0.480222 -0.0101081)
(12.156 0.472612 0.283386)
(11.8741 0.412895 0.0894823)
(11.9812 0.441921 0.204268)
(12.1763 0.536132 0.114062)
(12.02 0.485798 0.0447454)
(11.1333 -0.126713 0.046937)
(10.5575 -0.194169 0.0128628)
(10.6814 -0.039189 -0.0291668)
(10.6059 -0.0248849 0.0219321)
(10.7634 0.343257 -0.0416893)
(12.5061 0.232798 0.103465)
(11.888 -0.395346 -0.261237)
(11.2341 1.04198 0.0478854)
(10.5134 -0.129514 0.046165)
(10.3746 -0.085899 0.0210382)
(10.9678 -0.31039 -0.105375)
(10.7449 -0.0466935 -0.0428909)
(10.581 -0.000862742 -0.0490269)
(10.6975 0.0296435 -0.0662474)
(5.37709 2.6887 -0.951286)
(11.638 0.359905 0.0246488)
(11.6173 0.342029 0.0889682)
(10.9319 -1.7468 1.95393)
(10.8044 1.22612 -0.887166)
(12.256 1.5635 -0.379161)
(10.9834 0.254653 -0.00677385)
(12.684 2.4302 -2.58686)
(10.6 1.42619 -1.17849)
(10.4354 2.16403 -1.31695)
(11.047 -0.200023 0.13473)
(10.8003 0.028093 0.00614669)
(11.9338 0.462634 -0.147447)
(11.5451 0.798965 -0.772744)
(11.5983 0.903511 -0.818705)
(11.7898 0.841466 -0.747901)
(10.6715 -0.00125053 -0.0600389)
(10.5673 -0.0541548 -0.0105262)
(10.6462 -0.0272358 -0.021143)
(10.6113 -0.0285226 -0.013276)
(11.2819 0.0026489 0.302364)
(10.2946 -0.0387231 0.0049581)
(10.2771 -0.0518711 0.00602195)
(10.2517 -0.0693173 0.00130987)
(12.9058 1.2237 -2.09477)
(10.4935 2.38596 -1.5716)
(10.4443 0.742048 -0.259752)
(13.0861 1.06313 -1.73842)
(10.7132 -0.0841336 0.0110724)
(12.8653 0.877559 -1.35618)
(12.592 0.75618 -1.3657)
(12.949 1.14566 -1.93544)
(10.4263 -0.0162411 -0.0204581)
(10.2916 -0.0296646 0.0101828)
(10.4491 -0.0288056 0.0364675)
(10.4699 -0.00392752 0.0448001)
(10.3672 -0.0246987 0.0330441)
(10.3488 -0.0328828 0.0198726)
(11.5729 0.579127 -0.305219)
(10.8304 0.713959 -0.345313)
(11.1006 0.710703 -0.610849)
(11.2236 0.750979 -0.539889)
(10.5641 -0.000350792 -0.0259132)
(10.7045 0.0199228 -0.0901427)
(10.6936 0.0891207 -0.0261469)
(11.0537 -0.704695 0.160691)
(10.9941 0.826769 -0.52982)
(11.1481 -0.353257 0.104832)
(10.9983 -0.323018 0.354182)
(10.8334 -0.102203 0.0438057)
(12.7384 1.95945 -1.35156)
(10.6328 -0.288474 0.0128562)
(10.6532 -0.502244 0.0018457)
(10.4216 -0.0404194 0.0339033)
(10.8523 0.801903 -0.700511)
(10.7901 -0.0012978 -0.0348705)
(11.0022 1.2008 -1.22267)
(10.3962 -0.0188779 -0.0199215)
(10.4824 0.0834165 -0.00301851)
(11.9705 0.799113 -0.706685)
(11.2299 0.610585 1.62893)
(10.1543 1.93075 -1.47148)
(11.407 0.0237419 0.161086)
(10.7702 0.00836366 0.0472541)
(10.9293 0.480547 0.0655697)
(11.1069 -0.0637213 -0.0891383)
(11.2616 -0.0230941 -0.0473643)
(10.7375 0.215667 -0.00443197)
(12.1217 -0.502253 0.269765)
(10.68 -0.269674 -0.0145046)
(11.1415 0.245367 -0.0224063)
(12.2984 -0.32794 0.201864)
(11.952 -0.0692869 0.950844)
(6.27784 1.81188 -0.225597)
(10.6895 0.0281707 0.0492464)
(11.1173 -0.185217 -0.0954662)
(10.9257 0.956321 0.020472)
(10.8724 0.504601 -0.0374989)
(11.7308 0.299389 0.137895)
(11.7737 -0.468623 -0.564302)
(7.11875 1.13287 0.122139)
(11.1674 0.331113 -0.0154483)
(11.6729 -0.235834 0.529593)
(10.7117 0.520089 -0.0361146)
(11.4893 1.64921 -2.38042)
(10.5912 0.0436158 -0.045817)
(11.2234 -0.12405 0.42248)
(10.6284 -0.135086 -0.00109689)
(12.7522 1.20064 -1.81585)
(12.8517 1.35028 -1.56563)
(10.6266 0.232932 0.0200509)
(11.3206 0.323865 0.0198064)
(12.2242 0.303678 0.721111)
(12.2032 0.308518 0.479826)
(11.3709 -0.589454 0.965829)
(12.1889 -0.174457 0.89744)
(11.9106 0.250806 0.175566)
(11.2834 0.117236 0.123583)
(10.5075 0.039674 -0.00636687)
(10.8844 0.278073 -0.0445221)
(11.7198 1.32031 -0.232991)
(10.9313 0.494192 -0.0862428)
(11.1162 0.128473 0.014211)
(11.0743 0.19762 -0.0146322)
(11.1611 0.0256706 0.0923699)
(10.7508 -0.176654 0.0558652)
(10.5503 -0.122578 0.0213531)
(10.9907 0.247897 -0.00287111)
(10.6242 -0.0964326 0.0602536)
(10.7167 0.364397 0.0739285)
(10.6707 0.177347 -0.00459207)
(10.7805 0.142942 0.0054954)
(11.83 0.405643 -0.0477436)
(4.94886 1.03965 -0.774247)
(11.0543 -0.382796 0.485373)
(3.89561 0.517322 -0.0013803)
(11.2899 -0.383675 -0.231596)
(11.7948 -1.34075 0.6563)
(11.1434 1.40207 -0.0528102)
(11.1365 -1.17469 0.535534)
(10.441 -0.0434172 -0.0115364)
(11.0031 0.669182 -0.140835)
(11.6136 0.533397 -0.116331)
(10.6811 0.0863582 0.0188453)
(10.674 -0.150526 -0.000992066)
(11.4074 1.63494 -0.791933)
(10.7421 0.0397077 -0.0703502)
(11.691 -1.00336 0.470065)
(11.1462 -0.0794709 0.086043)
(11.8352 1.40522 -0.536478)
(11.9302 0.472309 0.131845)
(12.0982 0.406241 0.478986)
(4.26436 0.340555 0.0260723)
(10.7762 -0.305808 0.076075)
(12.5218 1.48406 -2.18688)
(10.8396 0.2457 -0.0330544)
(10.4921 0.0315975 0.0142642)
(11.0876 -0.181489 0.281805)
(10.984 -0.741367 -0.349092)
(10.4873 -0.0385916 -0.0108899)
(10.7668 -0.247877 0.0471639)
(10.5916 0.59331 -0.0832885)
(10.4794 1.49773 -1.68675)
(12.0692 0.769863 -0.53066)
(12.7555 0.921032 -0.149024)
(11.0702 1.7081 -1.84002)
(11.0635 0.080527 -0.00348164)
(9.31688 4.0239 -2.13554)
(10.8601 0.746566 -0.196652)
(11.6344 -1.42437 0.817929)
(10.519 -0.167974 0.0559991)
(10.4989 4.16642 -2.98596)
(11.6532 1.43877 -0.437713)
(10.7975 2.30975 -1.76957)
(11.5302 1.39961 -0.257614)
(10.6288 0.636867 0.0323584)
(11.1958 0.332583 0.0482671)
(10.8372 0.147043 -0.000298289)
(11.3004 1.37341 -1.99247)
(6.3191 0.768041 0.112902)
(11.0599 0.519006 -0.174916)
(10.7899 0.507806 -0.140196)
(11.6037 -0.937382 1.19517)
(12.0143 1.63363 -2.52825)
(9.25801 0.261077 0.902876)
(11.6587 1.79193 -0.831016)
(10.7826 2.05949 -2.97157)
(13.155 1.38604 -3.016)
(10.9423 -0.600566 -0.159298)
(12.0872 0.467921 0.133116)
(12.6842 0.971111 -0.498973)
(10.3306 1.64151 -1.22092)
(6.72859 0.736009 -0.301375)
(10.7044 0.345023 -0.0997241)
(11.8728 0.521956 -0.290562)
(10.6801 -0.0171836 -0.0308631)
(11.2724 -0.538488 0.960875)
(10.5164 0.00362881 0.0103947)
(10.4752 -0.0010986 0.0357682)
(10.4682 -0.0133792 -0.0267587)
(10.4376 -0.012956 0.035386)
(10.906 0.388774 -0.0328026)
(10.4819 -0.013472 0.0247123)
(11.728 0.535026 -0.0137359)
(2.76283 0.5207 0.0205183)
(12.7073 0.815264 -0.573814)
(12.9827 0.530117 -3.06349)
(11.7458 0.4426 0.103404)
(11.6744 0.530661 -0.398488)
(10.7945 0.0723095 0.00704511)
(11.489 0.0305233 0.276704)
(11.3514 0.248518 0.0596622)
(12.802 1.46362 -0.831896)
(11.1462 -0.00869441 0.138128)
(7.83869 -0.0445343 1.05491)
(10.4308 0.0315335 -0.035386)
(10.424 0.0620784 0.00708269)
(9.89364 1.51832 -1.6859)
(11.3029 0.572525 -0.220477)
(10.4373 2.91705 -2.07506)
(10.9121 -0.921428 0.415114)
(11.0423 -0.964598 0.509114)
(11.0578 -1.1861 0.552407)
(10.9863 -0.876142 0.574642)
(11.1251 -1.57809 0.289817)
(10.3251 -0.0938519 0.00831324)
(11.4907 -1.529 0.234808)
(11.2732 -1.53434 0.0879253)
(11.0071 0.653287 -0.272535)
(11.8621 -0.0241702 1.04792)
(12.3021 0.443766 0.716886)
(11.774 -0.164608 1.11826)
(12.0702 -0.296139 1.01338)
(12.2686 -0.180488 1.14598)
(12.3715 0.163379 0.898651)
(11.5438 -0.607947 0.789592)
(11.0245 0.0427496 0.00335775)
(10.974 0.0681136 -0.0228286)
(11.5693 0.284158 0.133053)
(11.1499 0.328284 -0.0373179)
(11.0474 0.29169 -0.0330483)
(11.8204 -0.871997 1.20354)
(11.7408 0.0862041 0.631807)
(11.4078 -0.810357 0.80533)
(11.0776 -0.144237 0.100757)
(11.0497 -0.12522 0.0590863)
(10.99 -0.0468329 0.00774294)
(11.0433 0.00799023 0.11027)
(11.0312 -0.0899213 0.213422)
(11.0097 -0.163861 0.296068)
(13.3478 1.9894 -0.207928)
(11.3457 0.00287129 0.631862)
(11.2606 -0.0588658 0.473327)
(10.9939 -0.165526 0.308115)
(10.8596 -0.0805766 0.0635561)
(12.4278 0.603005 0.345435)
(11.9234 0.439197 0.13269)
(11.8779 0.488104 0.0935205)
(11.8099 0.486854 0.0412326)
(11.8217 0.442904 0.0913415)
(12.3957 -0.956587 0.178379)
(11.7274 -0.443749 1.14553)
(11.5096 -0.79469 0.857333)
(12.0028 -0.37734 1.34619)
(12.2695 -0.799085 1.33096)
(11.9696 -0.687316 1.61783)
(12.2523 -0.496418 0.586416)
(12.5062 -0.644481 0.530327)
(12.0148 0.211229 0.523866)
(12.4714 -0.193386 0.199658)
(12.2853 -0.316235 0.426298)
(10.4425 -0.081517 0.0231587)
(11.0254 -0.225784 -0.0167276)
(11.3392 -0.357135 0.0623888)
(11.3536 0.0983357 -0.00183474)
(11.0112 -0.0272053 -0.00559677)
(12.0003 -0.592111 1.10903)
(11.6976 -0.616819 0.713259)
(11.4499 -0.869809 1.06805)
(11.3512 -0.911134 1.06867)
(11.3388 -0.689633 0.47629)
(10.9245 -0.651182 0.572015)
(10.8833 0.278617 0.0265866)
(12.4054 1.53216 -0.555976)
(11.3733 -0.483978 -0.0648819)
(10.9169 -0.364677 0.206249)
(11.5957 -0.217359 0.104903)
(12.4718 4.70558 -4.10068)
(11.7698 1.37509 -0.594904)
(10.7814 -0.36088 -0.0450648)
(10.8395 -0.340443 -0.0574862)
(10.8913 -0.283029 -0.07596)
(11.7957 -0.633857 0.531127)
(10.8258 -0.318049 -0.0595658)
(10.7286 -0.256578 -0.0434699)
(10.6304 -0.369348 0.0829398)
(10.6732 -0.379609 0.133349)
(13.2056 0.699038 -0.0238633)
(11.5204 -0.125975 0.187658)
(11.9372 0.366185 0.459193)
(10.4734 0.0194095 -0.0401116)
(12.0173 0.962722 -1.75056)
(10.5697 -0.307702 0.0735731)
(8.0667 2.38693 -0.740934)
(13.1515 1.05204 -1.56539)
(10.6205 2.15816 -1.86087)
(12.1182 1.423 0.114603)
(12.8236 1.04527 -0.306259)
(10.7343 -0.393695 0.0885629)
(12.2656 -0.481698 1.42915)
(12.8193 0.959564 -0.217334)
(12.7911 0.897946 0.112819)
(10.5581 -0.0364329 -0.0231343)
(13.1235 0.354478 -0.148121)
(12.7607 0.978877 -0.0896291)
(12.5379 0.602118 0.585959)
(11.6475 0.277221 0.142968)
(11.1098 0.0906313 -0.0479895)
(12.6579 0.690107 0.453934)
(11.756 0.322251 -0.0299147)
(10.4614 -0.177215 0.0337521)
(10.7323 0.164562 0.0201866)
(11.6263 0.402883 -0.0869182)
(12.1987 1.54789 -0.597954)
(11.6645 0.419929 -0.0113074)
(11.7224 0.477539 -0.0284244)
(10.9431 0.724533 -0.311399)
(11.8799 0.41179 0.0472334)
(11.6566 0.348777 -0.0337004)
(11.5572 0.163789 0.218915)
(11.7996 0.620787 -0.315005)
(11.4886 0.186544 0.420865)
(12.0046 0.29728 0.34954)
(11.9284 0.511182 -0.163276)
(11.9718 0.477358 -0.0738508)
(11.3977 1.03805 -0.698049)
(11.7518 0.459726 -0.119509)
(11.8174 0.230555 0.581954)
(12.7452 1.64425 -1.35067)
(11.8036 0.423135 1.33265)
(10.6401 -0.201141 -0.00310151)
(5.06388 0.204384 0.0186084)
(11.5813 0.114091 0.509577)
(10.9366 0.0391484 -0.0292415)
(12.1986 0.37655 1.13842)
(11.674 0.165628 0.520546)
(11.2909 0.0760395 0.496431)
(11.4986 0.137156 0.702625)
(11.0225 -0.489486 0.117142)
(12.6467 0.908742 0.541996)
(12.2903 0.285869 1.21327)
(12.3899 0.944107 0.61762)
(11.3391 -0.0481025 0.698597)
(12.5603 0.819964 0.347938)
(11.1366 0.481593 0.0699038)
(12.1773 0.606104 1.05272)
(12.0648 -0.536083 1.05206)
(10.8621 -0.622608 0.524482)
(10.9936 -0.372256 0.587063)
(12.3612 1.19468 0.586683)
(11.9294 -0.27064 0.677203)
(10.7574 -0.156403 0.0761093)
(11.0362 -0.808298 -0.13679)
(11.6139 0.31035 0.0273579)
(12.4969 0.58291 0.707908)
(10.9281 -0.38088 0.566696)
(10.8434 -0.0862836 0.0614824)
(11.7622 0.17262 0.593511)
(13.2091 -0.238255 -0.218493)
(10.664 2.14075 -0.311799)
(9.90627 1.61118 -0.188765)
(11.4173 0.0333399 0.56342)
(11.0501 -0.04558 0.0866251)
(12.4483 0.957484 -0.432001)
(10.335 4.61534 -1.20342)
(11.3264 0.17963 0.183794)
(11.1284 0.328271 0.00275236)
(10.8562 -0.481013 0.314992)
(11.1251 0.408174 -0.0466542)
(11.3569 0.256239 0.127218)
(12.1034 -0.807672 0.958405)
(11.1777 -0.0657075 -0.0017307)
(11.9418 0.454865 0.158889)
(11.2387 0.13481 0.0162529)
(11.6536 0.517145 -0.117167)
(11.3405 -0.0445883 0.0856257)
(10.6341 -0.181497 0.0406705)
(12.8491 -0.666987 -0.0140089)
(11.2169 -0.0652537 0.0709562)
(11.1473 0.0485653 0.0224398)
(12.6391 0.576847 0.464514)
(11.1698 -0.467622 -0.050941)
(11.1011 0.554729 -0.102533)
(10.7123 0.440918 -0.061965)
(10.7381 -0.412799 0.17084)
(11.0183 0.142675 -0.0366121)
(12.3363 0.554728 0.798166)
(10.9738 0.0719965 -0.0332878)
(11.4095 0.372909 -0.0169813)
(11.3018 -0.923573 0.936732)
(10.972 1.24041 -0.466548)
(12.16 3.7291 -4.18355)
(11.407 -0.0344949 0.0264745)
(11.3549 -0.229576 0.0578833)
(11.4245 0.14863 0.102183)
(11.1323 0.0281654 0.064956)
(10.9694 0.247074 -0.0205892)
(11.1806 0.032364 0.0106433)
(10.7299 0.0868987 0.0139235)
(11.3578 -0.274791 -0.176037)
(10.7233 -0.160675 0.0678777)
(12.4239 0.600448 0.706258)
(12.3704 -0.264309 0.930719)
(11.1187 0.0711756 0.35688)
(6.54204 0.998904 0.289719)
(11.6906 -0.823255 1.3339)
(11.3815 0.826517 -0.888602)
(11.3304 -0.150349 0.280326)
(11.1078 0.121661 0.0836334)
(12.3361 0.487887 0.970712)
(10.6902 0.0834178 -0.0108078)
(10.7411 -0.687741 0.146126)
(11.2434 -0.44203 0.0791116)
(11.0103 -0.501929 0.322714)
(11.91 -0.752212 0.251918)
(11.8948 0.564232 1.34049)
(8.30359 0.977718 0.35471)
(10.9658 -0.227092 0.084928)
(11.3025 0.530353 0.0536876)
(11.2797 -0.540693 -0.367726)
(10.8629 -0.243751 0.0481782)
(11.3652 -0.103748 0.0341384)
(11.7562 0.189372 0.466358)
(10.3214 0.802386 2.18716)
(11.0042 -0.839943 0.125587)
(11.8071 0.162066 -0.09968)
(11.1862 2.19989 -1.55275)
(11.2249 0.79239 -0.0922585)
(11.2078 1.44678 -0.969095)
(8.2152 1.73181 0.606076)
(10.4914 -0.0666218 0.0229077)
(10.5894 -0.116766 -0.0203076)
(10.7776 0.437806 -0.0634248)
(10.9762 1.35932 -1.65602)
(10.8653 -0.139989 0.0260696)
(11.2103 0.357405 -0.0348225)
(11.4081 -1.03212 0.415566)
(11.042 0.596364 -0.0570369)
(12.3342 -0.117268 0.508827)
(12.0619 -0.431608 1.76278)
(9.62293 4.64162 -4.20895)
(12.7324 0.937184 0.00364208)
(11.1304 2.51361 -1.988)
(7.42761 2.13801 -0.333847)
(10.9132 1.05532 -0.364196)
(11.5851 0.713305 -0.356905)
(10.5482 1.1789 -0.151473)
(11.8181 1.10435 -0.0649987)
(10.5586 0.673348 -0.163147)
(10.7473 0.562809 0.0622103)
(11.3211 1.46763 -2.11541)
(11.7713 1.01578 -0.794486)
(11.2496 1.45943 -0.737057)
(11.2388 0.0820768 0.0558879)
(5.88991 5.47934 -3.07884)
(11.9717 -0.104815 0.342333)
(11.2048 0.622448 0.0265712)
(11.3283 0.247965 -0.0288641)
(10.9004 -0.309793 0.0237987)
(12.4789 2.09163 -0.504242)
(12.1266 0.618872 0.522652)
(8.72604 1.06288 0.28469)
(11.4698 1.24813 -1.32855)
(6.38459 3.98564 -1.23097)
(12.0471 1.10743 0.00293949)
(11.8537 0.347599 0.120465)
(12.3884 0.669003 0.762169)
(10.7261 0.744602 -0.193507)
(11.9388 -0.448942 0.439282)
(11.7327 0.0138 -0.144388)
(12.154 -0.787653 1.14339)
(12.8884 0.774956 -0.224795)
(11.5637 0.19904 0.252996)
(11.5056 0.41494 -0.0435524)
(10.8674 0.66088 -0.195136)
(11.6578 0.262382 0.233513)
(10.6881 -0.0372991 0.02608)
(11.9095 1.02196 -0.499732)
(12.4525 2.0855 -1.86219)
(12.7833 2.85869 -2.85662)
(11.9193 1.39964 -1.24553)
(12.986 2.65895 -5.79343)
(4.82505 0.782835 0.0135916)
(12.5425 0.634173 0.63272)
(9.86949 2.13261 -1.49231)
(5.92952 0.821255 0.502473)
(10.7372 0.109061 0.0196546)
(11.0383 0.88848 -0.031414)
(10.7949 0.243402 0.0292518)
(10.8696 0.0992643 0.00330997)
(10.9276 0.890908 -0.173851)
(10.8324 -0.125848 0.0491583)
(10.9034 0.164 -0.0223929)
(11.5106 -0.496328 -0.171462)
(10.7858 0.269785 0.0358805)
(10.5582 0.378106 -0.0669434)
(10.8458 0.458849 0.099661)
(10.5363 0.316651 -0.0612121)
(12.1013 1.51402 -1.10433)
(10.7145 0.495926 -0.0345757)
(10.8657 -0.0295806 0.0092874)
(10.8037 0.483861 0.0806561)
(10.5959 0.632545 0.00505883)
(11.2705 0.157736 -0.00182649)
(10.0757 1.38344 -0.981318)
(11.0617 1.69488 -0.937378)
(11.2542 -0.262849 0.768685)
(11.2925 0.588624 -0.00939967)
(11.2597 0.701579 -0.120801)
(12.498 0.214781 0.947539)
(10.9366 0.304648 -0.0818702)
(10.6088 0.13784 0.0264426)
(10.8939 0.039617 0.0290822)
(10.7007 -0.0832994 0.0517922)
(11.0149 0.408277 0.0604931)
(11.2481 0.908125 0.0202208)
(11.0919 -0.0246782 0.0893974)
(10.818 -0.471988 0.305726)
(9.77644 -2.09665 3.52204)
(10.8788 1.87347 -3.71018)
(12.1765 0.253339 0.341714)
(12.4947 0.226923 0.04915)
(11.3143 0.11255 0.222278)
(11.672 0.0134016 0.658898)
(11.7293 -0.568806 0.436377)
(12.0878 0.116903 0.631675)
(11.1815 1.43415 -2.41903)
(12.1267 0.990383 0.0361008)
(10.9933 0.293278 0.0219381)
(11.0855 0.0457126 -0.0696715)
(10.7629 0.128765 0.00951911)
(10.6157 -0.136548 0.0587167)
(11.1567 0.977607 -0.0966975)
(10.7162 -0.245725 0.0112006)
(10.6486 -0.165484 0.0425633)
(11.5408 0.215939 0.0509315)
(11.1541 0.102718 -0.0224833)
(11.0778 0.136532 -0.0177188)
(11.248 0.521672 0.0814377)
(10.8514 0.385746 0.0564762)
(10.6916 -0.200504 -0.00665093)
(10.6684 -0.26219 0.00577102)
(11.5558 1.63339 -1.41215)
(11.1456 0.617899 0.105903)
(10.6912 0.100133 -0.0300863)
(10.6797 0.253696 0.0370279)
(11.1514 -0.0480023 0.205182)
(10.9989 0.163772 -0.0245486)
(10.6486 0.00448717 -0.0547539)
(11.4551 0.0340658 0.00578828)
(10.9454 0.381457 0.0593642)
(10.9042 0.308428 0.0220212)
(11.098 0.500075 0.0848902)
(10.7079 -0.131982 0.0396104)
(10.8934 -1.23159 -0.166471)
(10.6883 -0.0153729 0.0579958)
(11.0892 0.516506 0.098139)
(11.1253 -0.00492811 0.150365)
(10.639 -0.00863856 0.0349138)
(11.3693 0.898075 0.0353552)
(11.1281 0.665888 0.037369)
(12.9795 0.8266 -1.25942)
(11.1376 0.55671 -0.197558)
(10.828 -0.211793 0.140416)
(12.2332 3.27783 -0.497319)
(12.388 -0.224841 0.723449)
(11.2596 0.833224 -0.939882)
(10.8004 -0.52769 0.569158)
(12.067 1.27965 -0.31434)
(4.09622 -0.0991849 0.863264)
(12.3786 0.452817 0.236918)
(7.23305 0.318171 0.542942)
(12.684 0.100746 0.845779)
(8.84383 4.25778 -3.54077)
(10.3798 2.02242 -3.22302)
(5.55217 0.140864 0.239934)
(13.019 1.77939 -0.814872)
(4.99193 0.785603 -1.34834)
(11.6878 0.840733 -0.16776)
(8.76669 2.94455 -0.82981)
(10.9946 1.37159 0.267194)
(8.58916 -0.585694 2.19256)
(2.05774 -0.989504 -0.445007)
(4.87827 0.841697 0.454456)
(10.8505 1.6601 -0.137018)
(11.1953 1.48597 -0.181821)
(11.4054 1.76353 -0.277767)
(10.789 2.13122 -0.987861)
(10.5851 2.16545 -0.797443)
(10.6814 1.88745 -0.540398)
(10.6673 -0.0514383 0.048521)
(13.2127 2.42587 -0.265012)
(10.9835 0.963227 -0.0282063)
(10.8924 0.65495 -0.0252059)
(10.6312 0.818563 -0.02209)
(11.0434 0.821043 -0.136839)
(10.7082 0.321498 -0.0676397)
(10.7651 0.29872 -0.126931)
(11.1635 0.650926 -0.0145203)
(10.5778 -0.167546 -0.00177981)
(10.8133 0.0653651 -0.0392032)
(11.4257 0.0183152 -0.14724)
(11.2565 0.0929326 -0.0956255)
(10.7025 0.202297 0.0337199)
(10.9529 -0.454702 0.158787)
(10.5049 -0.0279094 0.0160994)
(11.155 -0.260994 -0.193248)
(11.7804 1.8106 -2.15843)
(11.3148 1.22496 -0.523474)
(11.5663 -0.238752 -0.0546386)
(11.1472 -0.0291727 -0.0982328)
(10.941 -0.217888 0.27879)
(11.7633 -0.122652 1.82966)
(12.254 0.417747 0.297009)
(10.9061 -0.448209 0.336051)
(11.5472 0.0283414 0.301721)
(12.1534 2.74367 -2.13897)
(10.9599 0.320701 -0.0327497)
(11.7789 -0.116615 0.3484)
(3.21158 -0.583844 0.604132)
(10.5317 0.828525 -0.304104)
(12.2397 0.300382 0.798576)
(11.5737 -0.232875 0.60056)
(10.731 -0.530007 0.00279855)
(10.8418 -0.141215 -0.00959957)
(12.4757 0.740914 0.315776)
(11.6932 0.311139 0.170882)
(11.0044 0.372396 -0.0672771)
(11.0233 -0.00905477 0.0100395)
(11.7124 0.243542 0.213695)
(10.7278 1.48593 -0.156066)
(11.3095 -0.303982 -0.188926)
(11.49 0.337257 0.00955759)
(11.201 0.14672 0.0839393)
(11.6935 1.76335 -0.920065)
(11.7967 0.4034 0.0774639)
(10.9596 -0.365081 0.131999)
(10.2108 1.46113 -0.994461)
(10.9337 -0.0186599 -0.0179092)
(10.7937 0.149811 0.0102974)
(10.642 0.0198455 0.0354828)
(10.848 -0.0254348 -0.00591577)
(10.4138 -0.0591007 -0.00721976)
(10.8916 0.267578 0.0231112)
(10.7832 -0.191473 -0.00141109)
(10.7402 -0.0453113 -0.025146)
(11.8823 0.241351 0.487038)
(11.9228 0.881171 -0.326292)
(11.6156 -0.0939472 0.0695241)
(11.9153 0.618904 -0.0461271)
(12.0458 0.570194 -0.0275931)
(10.3018 2.10659 -1.23655)
(11.2196 1.315 -1.55254)
(11.5412 0.627754 -0.244457)
(13.655 3.5533 -3.08813)
(11.3287 -0.120212 0.580025)
(12.4685 4.64462 -1.42055)
(11.8352 1.00106 -0.98009)
(11.9933 0.520731 1.17954)
(12.2032 -0.0908432 0.364883)
(3.62562 -0.0794411 0.00214261)
(11.3402 1.05214 -1.13604)
(11.0761 1.20829 -0.474704)
(11.0433 -0.017748 -0.0585982)
(12.5059 0.996319 -0.116668)
(10.7443 0.7384 -0.237038)
(13.1402 0.520753 -0.166421)
(11.7006 0.327097 0.0505002)
(10.6718 0.0157961 -0.0282586)
(10.9094 0.833391 -0.415259)
(12.2151 1.27116 0.1654)
(10.7669 0.0349658 0.0320703)
(11.2913 -0.239079 -0.0603557)
(11.0235 1.44168 -0.0622848)
(10.8041 0.935962 -0.19189)
(10.8217 0.185819 -0.0120082)
(10.8961 0.255431 -0.0771862)
(11.371 0.0618839 0.0189022)
(10.8041 0.2135 -0.0165364)
(11.3234 0.602447 0.0524035)
(11.2609 -0.34805 -0.0478181)
(10.9717 0.059948 -0.0227324)
(11.2998 0.441012 0.0542658)
(10.9212 0.0979038 -0.0355979)
(10.8785 0.0603853 0.0065453)
(11.203 0.559879 0.0960122)
(12.7292 2.05282 -0.266694)
(10.8102 0.087258 0.0080688)
(10.7265 0.230593 -0.028316)
(11.0717 0.229946 -0.00759129)
(11.4815 -0.110891 0.893135)
(10.9285 0.108864 -0.043666)
(10.8352 -0.79171 -0.0688887)
(10.8127 -0.0922449 0.0537083)
(10.9297 -0.254885 0.160818)
(11.2833 -0.144127 0.612904)
(10.8405 -0.320083 -0.0755098)
(4.93019 0.0974245 0.837667)
(12.8315 0.791891 -0.0764106)
(10.8342 0.354813 -0.128015)
(10.7255 -0.209058 0.0539353)
(11.1832 -0.137591 0.414171)
(12.2962 0.827266 -0.822541)
(11.3357 0.485982 -0.00427226)
(11.5818 -0.332078 0.693982)
(11.1944 0.15922 0.074504)
(11.8308 -0.0572242 0.338904)
(11.9119 1.12554 -0.340741)
(6.10814 1.78961 -3.49141)
(11.3862 0.222699 0.0341257)
(12.6021 0.800342 -0.0102712)
(12.709 1.12778 -0.201176)
(10.506 1.72924 -1.47072)
(11.8663 1.66537 -0.797625)
(11.0304 0.207016 -0.0218521)
(12.3181 0.642604 -0.392688)
(12.1849 0.560834 -0.156142)
(11.8373 0.112459 0.109445)
(11.7853 0.6983 -0.405455)
(12.1183 0.939514 -0.570694)
(9.63303 3.29291 -1.48845)
(10.7802 0.109065 0.00743573)
(10.3987 1.08592 -0.840509)
(10.7551 0.00688846 0.028886)
(9.08969 -0.280469 3.68317)
(10.8289 0.313568 -0.0557321)
(11.6573 1.87812 -0.270784)
(11.5709 0.946405 0.0355011)
(10.5794 0.678093 -0.0949565)
(13.0476 0.886909 -0.560038)
(12.7901 1.66482 -0.45554)
(12.5027 0.568233 0.0714016)
(9.08591 2.84263 -4.78924)
(12.0007 -0.692793 1.00171)
(12.7876 1.36653 -1.69057)
(11.9031 1.50768 -0.252572)
(11.7414 1.8097 -0.66904)
(11.7489 1.04863 -1.04303)
(11.5628 1.69825 -1.3057)
(12.0802 0.668228 -0.461063)
(11.7332 1.27902 -2.31213)
(12.4555 1.64506 -3.02809)
(12.2432 1.66457 -4.05769)
(10.6854 1.44309 -0.847765)
(6.17434 0.898432 -0.161141)
(12.576 1.54534 -0.473012)
(10.6555 0.733157 1.43675)
(11.9925 1.81611 -0.821216)
(7.11154 2.43054 -0.493741)
(3.64266 0.49879 0.152451)
(10.5511 0.85463 -4.22014)
(12.6899 0.763136 -0.455512)
(11.2347 2.30441 -2.96678)
(10.8708 2.42889 -2.91943)
(3.40899 0.38192 -0.010879)
(12.9262 2.37776 -3.58145)
(12.65 1.90938 -3.48918)
(6.7643 1.07388 -0.254798)
(6.06878 0.212781 0.512152)
(9.27268 2.83708 -2.94397)
(12.5556 1.61523 -1.69907)
(10.8524 0.850157 -0.554899)
(12.5542 0.696297 0.0773174)
(12.4859 1.33854 -1.08436)
(12.5782 1.54214 -1.52446)
(12.1383 0.931821 -0.723856)
(11.3814 1.15283 -0.773625)
(12.6964 1.07812 -0.202502)
(12.7304 1.23154 -0.704156)
(12.2658 1.31973 -0.224314)
(12.9736 1.57722 -0.748126)
(11.7359 -0.315105 1.2944)
(11.8337 0.2739 0.398773)
(13.0142 2.82148 -1.41666)
(12.8594 3.45737 -1.35419)
(11.2396 1.53379 -0.533965)
(11.605 0.407436 -0.0278324)
(10.9111 0.679035 -0.379387)
(11.171 1.20413 -2.30003)
(11.3336 1.02794 -1.63514)
(11.8257 0.951203 -1.55894)
(11.6046 1.01102 -1.46705)
(11.3524 0.975702 -0.315595)
(11.4179 0.997587 -0.257937)
(11.4614 0.323046 0.0776364)
(11.2335 0.206559 -0.0123276)
(10.8755 0.524199 -0.136982)
(10.9228 0.504687 -0.111778)
(11.6178 0.823199 -0.145284)
(11.1826 0.168504 0.0153825)
(11.3643 0.765374 -0.306184)
(10.6521 0.986564 -0.334702)
(10.8274 0.698778 -0.197517)
(10.5579 0.917561 -0.320023)
(10.1461 1.71378 -0.808591)
(10.0128 1.65651 -0.811658)
(12.407 0.631754 0.680475)
(11.5942 0.298666 0.139627)
(11.6078 0.202246 0.234439)
(11.4604 0.264234 0.0349574)
(12.1062 0.599025 -0.154129)
(11.3486 0.377343 -0.0400379)
(11.2689 0.113287 0.0663792)
(11.0069 -1.47846 0.325983)
(11.397 -0.559544 -0.00941494)
(11.4532 -0.533201 0.9479)
(11.8596 -0.388914 0.880416)
(11.6468 -0.530939 1.2189)
(11.5761 -0.8504 0.911547)
(11.392 -1.19585 0.770144)
(11.7624 -0.346929 0.9309)
(11.8235 -0.481105 1.20215)
(11.0622 -0.323007 0.697302)
(11.0742 -0.241392 0.423246)
(11.219 -0.0481506 0.317615)
(10.4513 -0.0201843 0.0125534)
(13.1522 1.46217 -0.355213)
(11.8885 -0.94472 1.86965)
(11.5124 0.270876 -0.00340686)
(11.9499 -1.20001 1.92546)
(12.114 -1.19231 1.7141)
(11.9424 -0.937975 1.76868)
(11.8014 -1.12787 -0.131276)
(11.9849 -1.27973 -0.0300546)
(12.4291 -0.317461 -0.298542)
(12.4498 -0.283296 -0.19855)
(11.3546 1.57284 -0.62669)
(11.6887 0.753303 -0.472439)
(11.5315 0.728176 -0.44588)
(11.2653 0.679908 -0.559843)
(10.3566 1.13899 -1.19921)
(10.7367 1.08247 -1.15657)
(10.6149 1.08326 -0.8762)
(10.3234 -0.0172352 0.000712628)
(12.5645 0.873625 -0.931559)
(12.8362 1.19026 -2.41051)
(10.5642 0.634478 0.23704)
(11.5235 0.47532 -0.0440971)
(10.9765 0.505315 -0.00741504)
(11.4047 0.467693 -0.283416)
(11.5975 0.517902 -0.306653)
(10.9549 -0.505519 0.311092)
(10.9835 -0.38517 0.188517)
(11.5145 0.939925 -0.524563)
(10.323 -0.036848 0.0160182)
(12.1647 1.30149 -1.28417)
(12.8527 1.14509 -0.738943)
(12.9193 1.08028 -0.698541)
(12.2432 1.45696 -1.87413)
(12.508 1.61165 -1.87766)
(11.7573 1.31766 -1.38418)
(11.5073 2.26189 -1.38595)
(12.1839 0.295547 0.0867489)
(11.888 0.52655 -0.151233)
(12.3865 0.0701036 0.0856673)
(12.2396 1.46432 -0.220886)
(12.2233 2.10348 -0.368879)
(12.7989 1.68143 -0.33324)
(10.5123 -0.00223896 -0.0317055)
(10.6523 0.155149 -0.00973886)
(10.6352 0.110385 -0.0357729)
(10.6811 0.124926 -0.031653)
(12.4779 0.467451 -0.0480195)
(12.4081 0.416647 0.128512)
(12.2922 -0.0142422 0.158054)
(12.7464 0.0262081 -0.0355065)
(12.5752 0.518328 -0.00506767)
(10.8237 0.769431 -0.32905)
(10.7089 0.525218 -0.150186)
(10.7134 0.691171 -0.267521)
(11.189 -0.157917 -0.164822)
(11.1972 -0.143919 -0.153582)
(11.388 -0.216205 -0.461288)
(11.4432 -0.149382 -0.369689)
(11.1733 -0.274272 0.293435)
(10.9194 -0.332492 0.401843)
(11.2654 0.0485445 0.189349)
(10.8735 -0.275102 0.167046)
(10.7703 -0.489851 0.327588)
(10.9472 -0.215319 0.139443)
(10.9241 -0.0734428 0.00415713)
(10.7997 0.00962073 0.00852245)
(11.0468 0.00634186 -0.0123566)
(11.1986 -0.345904 -0.0374314)
(11.4194 0.300774 0.0297512)
(11.3247 0.430959 -0.0629893)
(11.2478 0.446718 -0.0193008)
(11.1614 0.146721 0.00306255)
(10.8175 -0.390551 -0.0191077)
(10.664 -0.306326 0.0310746)
(11.1399 -0.12545 0.379032)
(10.9738 0.214914 -0.0205013)
(10.6124 -0.232115 0.0436923)
(10.9125 -0.490938 -0.140266)
(10.869 0.117713 -0.0143824)
(10.8484 0.420045 -0.129189)
(12.8918 1.4389 -1.46641)
(11.8475 -0.0425706 1.71073)
(11.9786 0.109968 0.600227)
(11.9016 0.994069 -1.23485)
(10.7608 -0.906807 0.263145)
(12.7932 1.2571 -1.1256)
(12.1141 0.0940304 0.73221)
(12.2515 0.879207 0.254714)
(12.7137 0.827831 0.272409)
(11.6338 0.638467 -0.125164)
(11.2776 0.506934 -0.0153236)
(10.8895 -0.863095 -0.0268309)
(12.4741 1.15227 -0.148781)
(11.6782 0.412892 0.0153151)
(11.4449 0.925703 -0.045458)
(10.7109 -0.0896578 0.0266271)
(12.5577 0.668657 0.258867)
(11.271 1.85173 -2.74032)
(11.3222 0.476598 -0.0844245)
(11.6612 0.0429846 0.716478)
(12.1857 0.891012 -1.23227)
(11.5928 -0.0536721 0.809692)
(10.8001 -0.26107 0.264905)
(10.5507 -0.157076 0.0302662)
(11.0327 -0.449019 0.125318)
(10.9641 -0.158764 0.113879)
(10.9506 -0.329704 0.306161)
(13.3516 0.315609 -0.350986)
(11.058 0.37456 0.555235)