/*--------------------------------*- C++ -*----------------------------------*\
| =========                 |                                                 |
| \\      /  F ield         | OpenFOAM: The Open Source CFD Toolbox           |
|  \\    /   O peration     | Version:  2506                                  |
|   \\  /    A nd           | Website:  www.openfoam.com                      |
|    \\/     M anipulation  |                                                 |
\*---------------------------------------------------------------------------*/
FoamFile
{
    version     2.0;
    format      ascii;
    arch        "LSB;label=32;scalar=64";
    class       volScalarField;
    location    "0.075283";
    object      k;
}
// * * * * * * * * * * * * * * * * * * * * * * * * * * * * * * * * * * * * * //

dimensions      [0 2 -2 0 0 0 0];

internalField   nonuniform List<scalar> 
47425
(
0.287425
0.320578
0.303112
0.310177
0.456504
0.307158
0.413159
0.313729
0.366887
1.43194
0.322657
0.322947
0.353221
0.30374
0.296872
0.321699
0.299615
0.327766
1.08293
0.518459
0.309793
0.295741
0.310425
0.304079
0.29855
0.288314
0.288944
0.814125
0.286965
0.291583
0.302848
0.317054
0.356124
0.290627
0.284796
0.304083
0.294838
0.363339
0.297054
0.306077
0.351414
0.561221
1.01473
0.3784
1.70885
0.335005
0.321873
0.350649
0.294461
0.288906
0.765823
0.603655
0.287756
0.821117
0.359439
0.357718
0.289584
0.290057
0.398147
0.299456
0.816374
0.845421
0.907656
0.313286
0.364462
0.29306
0.341125
0.352993
0.806433
0.304574
0.296266
0.283496
0.287375
0.302124
0.924065
0.368709
0.959974
0.300295
0.836703
0.511856
0.916771
0.303396
0.299898
0.3486
0.323814
0.307732
0.284411
0.282935
0.51013
0.577059
0.299235
0.33006
0.290647
0.365524
0.376984
0.360776
0.290377
0.289889
0.3025
0.349027
0.334461
0.417178
0.29949
0.437504
0.292584
0.360273
0.298671
0.312318
0.435551
0.309546
1.32379
0.319665
0.416023
0.345984
0.316804
0.798347
0.312291
0.617017
0.327121
0.322211
0.312953
0.362698
0.342953
0.335494
0.341614
0.380761
0.312121
0.364887
0.347448
0.291524
0.300124
0.316706
0.483939
0.338335
0.498537
0.3358
0.301117
0.3865
0.300076
0.29958
0.354007
0.350434
0.322498
0.446577
0.318551
0.366223
0.42395
0.339893
0.352841
0.361578
0.450249
0.781085
0.360297
0.784139
0.319848
0.31265
0.329252
0.910651
0.339416
0.316558
0.323145
0.288776
0.284462
0.300806
0.743537
0.827855
0.337871
0.917108
0.329348
0.868075
1.07446
0.338662
0.353842
0.307847
0.335715
0.365414
0.832273
0.28571
0.288401
0.291358
0.834628
0.283051
0.285527
0.289188
0.289847
0.336768
0.299408
0.404062
0.344535
0.287228
0.357975
0.291396
0.405212
0.365297
0.290605
0.304725
0.360532
0.312035
0.31786
0.282495
0.323369
0.362475
0.381625
0.306265
0.322284
0.37362
0.285271
0.302027
0.346956
0.361897
0.290015
0.294761
0.352107
0.306203
0.295039
0.293957
0.29817
0.576949
0.325716
0.35322
0.516992
0.282772
0.580451
0.29383
0.394479
0.498234
0.290662
0.309931
0.340114
0.372839
0.298932
0.304758
0.330807
0.36937
0.362387
0.311868
0.552716
0.322861
0.515869
0.361246
0.330496
0.284095
0.288794
0.297058
0.293782
0.362566
0.298383
0.357552
0.288285
0.29757
0.291177
0.488569
0.297506
0.365695
0.305521
0.290098
0.297718
0.357296
0.298826
0.357613
0.37419
0.352141
0.306117
0.355917
0.361805
0.342733
0.291187
0.359564
0.290269
0.318494
0.310492
0.504061
0.55331
0.291107
0.493391
0.367969
0.495326
0.437871
0.538328
0.526149
0.841811
0.284607
0.868559
0.356132
0.303701
0.296258
0.345145
0.314499
0.35519
0.33214
0.757204
0.30778
0.371308
0.29058
0.299272
0.315159
0.310431
0.293791
0.311971
0.349087
0.321445
0.286389
0.31614
0.293449
0.871422
0.8224
0.772537
0.289941
0.28779
0.295269
0.311444
0.776888
0.312164
0.321779
0.562439
0.329608
0.338052
0.366133
0.308678
0.644938
0.533838
0.301199
0.3027
0.284788
0.325857
0.289322
0.305507
0.287926
0.288016
0.292821
0.294262
0.95672
0.315414
0.295806
0.383804
0.290483
0.893581
0.313018
0.285918
0.293743
0.301171
0.301475
0.286379
0.298442
0.282456
0.292565
0.292131
0.297588
0.298183
0.325583
0.302825
0.292165
0.310537
0.300301
0.304219
0.326691
0.313377
0.299808
0.303543
0.360266
0.336976
0.325293
0.310813
0.310251
0.292104
0.311572
0.359812
0.358444
0.319039
0.300881
0.352433
1.18132
0.294336
0.303798
0.385663
0.302213
0.425386
0.356447
0.364436
0.294947
0.357607
0.30203
0.289913
0.355245
0.336122
0.364514
0.310512
0.297592
0.349719
0.308306
0.304823
0.306565
0.315382
0.294205
0.295294
0.302924
0.317665
0.307272
0.384964
0.287203
0.6199
0.288177
0.952317
0.317409
0.356027
0.342902
0.290054
0.342086
0.288403
0.322706
0.303809
0.560197
0.830195
0.288014
0.322353
0.301263
0.300994
0.308932
0.300106
0.29826
0.350885
0.313393
0.289921
0.30339
0.309582
0.289264
0.434199
0.298976
0.303924
0.479342
0.4493
0.298177
0.603296
0.470969
0.348052
0.457699
0.712418
0.290398
0.299411
0.300473
0.299122
0.681895
0.318563
0.286318
0.291336
0.304507
0.30516
0.312049
0.292952
0.678896
0.66357
0.492163
0.356379
0.384293
0.471148
0.290895
0.301973
0.341368
0.301367
0.355173
0.363124
0.377801
0.30037
0.369613
0.302841
0.298282
0.322012
0.305561
0.303938
0.300809
0.348577
0.357669
0.367742
0.322715
0.307821
0.334729
0.301939
0.772296
0.360705
0.383413
0.344934
0.335823
0.748025
0.318405
0.289076
0.321192
0.350146
0.327119
0.318499
0.333037
0.290394
0.312915
0.288346
0.314101
0.430525
0.286461
0.334124
0.317396
0.345925
0.287691
0.289335
0.289997
0.297781
0.299056
0.31807
0.296974
0.289933
0.292659
0.312613
0.31213
0.325675
0.316188
0.289947
0.30372
0.280132
0.287973
0.297617
0.321943
0.311504
0.321941
0.363305
0.375393
0.739299
0.30402
0.297179
0.326567
0.365736
0.441587
0.443759
0.325588
0.293208
0.331665
0.423257
0.317204
0.45076
0.362381
1.23294
0.331623
0.332905
0.292103
0.443016
0.291683
0.297269
0.303665
0.339039
0.289255
0.283694
1.02203
0.292543
0.345682
0.290967
0.423901
0.283463
0.291778
0.405288
0.393661
0.305
0.28817
0.277492
0.287358
0.303854
0.287125
0.287731
0.28675
0.364891
0.439799
0.306126
0.307706
0.305095
0.290474
0.509886
0.299983
0.315588
0.196146
0.302505
0.290646
0.266481
0.742603
0.302829
0.202355
0.223463
0.289153
0.346969
0.285419
0.294265
0.362099
0.327667
0.919057
0.298996
0.33068
0.287791
0.445923
0.360051
0.369486
0.309125
0.73353
2.0762
0.297792
0.31551
0.33739
0.307031
0.354879
0.366319
0.318645
0.319249
0.378946
0.287108
0.359141
0.459155
0.328182
0.297588
0.464732
0.333157
0.299283
0.313152
0.330465
0.29051
0.361918
0.354785
0.344644
0.343314
0.294889
0.298125
0.957686
0.305966
0.386385
0.837202
0.797435
0.291828
0.351193
0.710055
0.338243
0.406283
0.773216
0.376793
0.766679
0.289595
0.287399
0.35483
0.500889
0.381506
0.375568
0.285582
0.363258
0.293792
0.309482
0.284996
0.332038
0.304759
0.782961
0.687116
0.328104
0.323968
0.335433
0.305684
0.374453
0.351687
0.352409
0.360588
0.342635
0.307796
0.327273
0.354475
0.29295
0.370997
0.350245
0.91332
0.551039
0.32804
0.300182
0.356464
0.289557
0.896344
0.299957
1.18596
0.341958
0.431288
0.331258
0.311965
0.31761
0.288115
0.343344
0.30054
0.285444
0.386767
0.373455
0.368557
0.375623
0.350668
0.960113
0.331564
0.369173
0.356532
0.363677
0.29037
0.340059
0.31809
0.374188
0.341393
0.310769
0.344472
0.308891
0.324117
0.300765
0.296651
0.462737
0.53565
0.295508
0.426927
0.294843
0.31414
0.300146
0.289599
0.671189
0.284452
0.305977
0.303625
0.288102
0.648603
0.942208
0.306711
0.334002
0.290618
0.33272
0.286003
0.313953
0.315015
0.52603
0.313943
0.289954
0.306625
0.292327
0.303777
0.298247
0.285292
0.306061
0.290319
0.286097
0.315635
0.527159
0.288909
0.258455
0.604117
0.544733
0.286644
0.317635
0.852397
0.346305
0.322593
0.487088
0.255204
0.799756
0.32712
0.292773
0.445742
0.325958
0.544215
0.30675
0.33572
0.291808
0.294664
0.420588
0.341796
0.307698
0.329947
0.38487
0.362732
0.348333
0.37843
0.472562
0.450947
0.713595
0.858163
0.830742
0.593809
0.622782
0.363099
0.352834
0.295916
0.289256
0.331046
0.313386
0.317818
0.326741
0.340668
0.291657
0.330784
0.367752
0.29136
0.372145
0.316324
0.290061
0.356599
0.290613
0.295854
0.299103
0.335055
0.410747
0.292906
0.290389
0.29556
0.349415
0.34054
0.502566
0.421382
0.289217
0.332334
0.284844
0.292267
0.294719
0.335271
0.347848
0.42627
0.304417
0.294555
0.298064
0.384115
0.900748
0.306398
0.306393
0.382855
0.333198
0.342937
0.328199
0.314965
0.3768
2.10343
0.42745
0.863686
0.366857
0.380289
0.285243
0.386396
0.295664
0.322913
0.323979
0.297549
1.49512
0.416352
0.350232
0.545612
0.352692
0.282936
0.311778
0.387963
0.296311
0.332461
0.212878
0.293342
0.375116
0.362521
0.382938
0.696322
0.364564
0.352993
0.475648
0.296897
0.296531
0.42354
0.51556
0.320666
0.394549
0.430705
0.323291
0.305205
0.293169
0.31659
0.345268
0.34369
3.86668
0.657922
0.354272
0.527764
0.506524
1.13801
2.3565
0.491669
0.354277
0.360762
0.373541
0.356098
2.35148
0.295592
0.318482
0.372764
0.252141
0.319461
0.368489
0.349419
0.289726
0.375788
0.455144
0.363484
1.20271
0.28702
0.369112
0.376583
0.365703
0.357266
0.349853
0.37481
0.436259
0.334146
0.352182
0.448716
0.312699
0.298691
0.325195
0.404138
0.291693
0.39974
0.361679
0.352385
0.626439
0.90514
0.291607
0.3635
0.306706
0.36189
0.355132
0.643475
0.535511
1.3142
0.297685
0.352247
0.314334
0.928274
0.305949
1.73375
0.395529
0.375923
0.474686
0.564795
0.312426
0.296717
0.300337
0.310648
0.44873
0.309834
0.387102
1.16812
0.371644
0.290556
0.29479
0.661109
1.04891
0.492531
0.531627
0.920848
0.392071
0.342434
0.377288
0.302269
0.454554
0.36086
0.37726
1.01313
0.315098
0.291666
0.297149
0.357113
0.373275
0.367522
0.31866
0.303725
0.446832
0.295676
0.319887
0.293309
0.352838
0.35436
0.365622
0.330737
0.321161
0.302506
0.369044
0.299201
0.3051
0.315503
0.305156
0.361331
0.434242
0.331825
0.356488
0.296988
1.65274
0.373098
0.357359
0.323984
0.909436
0.656228
1.10105
0.343219
0.327769
0.320307
0.721645
0.374887
0.325204
0.362633
0.34802
0.36193
0.882458
0.355831
0.303243
0.352635
0.342557
0.286572
0.561252
0.994151
0.302803
0.987867
0.332409
0.636976
0.552657
0.300595
0.335524
0.365145
0.602782
0.329741
0.32432
0.322676
0.719295
0.488979
0.601154
0.307744
0.318976
0.292555
0.303925
1.36526
1.33677
0.334446
0.348029
0.375206
0.796159
0.297622
0.28773
2.06284
1.26916
0.355652
0.302498
0.862856
1.38278
1.0879
0.363522
0.741323
1.26135
0.854844
0.313748
0.427289
0.423835
0.318507
0.327189
1.38409
1.22057
0.343823
0.354511
0.345154
0.305167
0.324931
0.320506
0.45971
0.327468
0.366938
0.294584
0.368733
1.21753
0.965859
0.306389
0.550626
0.423032
0.311278
0.489611
0.287571
0.329957
0.301758
0.32456
0.380343
0.293543
0.746488
0.298046
0.835319
0.595132
0.920162
0.396627
0.42167
0.328415
0.348558
0.328832
0.531124
1.069
0.34933
1.0063
0.491336
0.746569
0.455076
0.859166
0.667297
0.315696
0.333198
0.96039
0.337864
0.299749
0.30215
0.761636
0.696504
0.303464
0.320668
0.618136
0.388376
0.924414
0.779002
0.347121
0.438859
1.02126
0.343221
0.311355
0.850088
0.301707
0.797361
0.795385
0.299822
0.294477
0.312279
0.291319
0.364929
0.302956
0.303043
0.356755
0.365638
0.45574
0.324147
0.309715
0.489635
1.44889
0.781415
0.339898
0.325085
0.537581
0.304149
0.973225
0.330946
0.334514
0.355093
1.83858
0.336771
1.93722
0.381262
0.486291
0.325247
0.735905
0.604969
0.636786
0.413333
0.52446
0.357268
0.363526
0.373959
0.571772
0.369112
0.442933
0.780122
0.38816
0.437449
0.895763
0.334508
0.301664
0.693861
1.56968
0.354883
0.323126
0.359332
0.379488
1.26295
0.951041
0.290593
0.308814
0.359141
0.78484
0.355932
0.564297
0.358848
0.346826
0.352537
0.45987
0.34161
0.586689
0.596061
0.331616
0.363833
0.420888
0.31449
0.887075
2.10172
0.324681
0.833747
0.841633
0.376772
0.816142
0.360611
0.350069
1.04073
0.352204
1.03374
2.95768
0.3124
0.356215
0.416566
0.365345
0.353177
0.37772
0.485147
0.383975
0.316193
0.376622
0.318432
0.704538
0.379591
0.341919
0.362642
0.547201
0.298949
0.813325
0.720225
0.346578
0.829767
1.62763
0.294987
0.447316
0.496905
0.349736
0.329314
0.498294
0.777965
0.478956
0.922218
0.300347
0.747231
0.439057
0.288347
0.366689
0.357555
0.473282
0.323258
0.371806
0.566888
0.288189
0.555433
0.348332
1.39905
0.369296
0.287447
0.35427
0.506276
0.346236
0.686815
0.425826
0.310566
0.674054
0.297108
0.325133
1.22031
0.288113
0.365504
0.693682
0.32812
0.802076
1.23855
0.356945
0.383831
0.295703
0.877264
0.539703
0.936606
0.775813
0.396443
0.327807
0.407732
0.949738
0.930182
0.995062
0.347367
0.357546
0.341143
0.307748
0.372693
0.704787
0.347464
0.33033
0.330165
0.291996
0.312317
0.353339
0.305577
0.348895
0.356958
0.407995
0.296974
0.352951
0.54804
0.311388
0.294729
0.364682
0.339442
0.359401
0.291569
0.325854
0.324991
0.306267
0.375961
0.598546
0.337494
0.308669
0.295473
0.291123
0.5072
0.306318
0.304695
0.581893
1.08785
0.693912
0.305548
0.565822
0.451549
0.357893
0.522698
0.405315
0.501712
0.352784
0.30527
0.345421
0.37475
0.298833
0.359317
0.371462
0.347302
0.303349
0.303203
0.350844
0.491763
0.341677
0.397324
0.814151
0.346505
0.659526
0.384109
0.859501
0.286345
0.352994
0.337122
0.291058
0.307932
0.365908
0.290314
1.43121
0.546561
0.78251
0.3573
0.899323
0.294753
0.320136
0.508676
0.301093
0.784886
0.403624
0.608525
0.3234
0.970456
0.940396
0.302048
0.289158
1.07924
0.309803
1.0722
0.318536
0.353164
0.301477
0.29567
0.298099
0.315932
0.327587
0.640608
0.383977
0.3855
0.323364
0.326873
0.288721
0.355493
1.46084
0.354465
1.64992
0.556805
0.299169
0.364949
0.319947
0.317948
0.314106
0.345314
0.33815
0.362906
0.323611
0.289522
0.331965
0.351132
1.2617
1.58758
0.33076
0.341115
1.88968
0.331271
0.292617
0.292974
0.290228
0.331462
0.365645
0.400062
0.377953
0.32137
0.29787
0.379749
0.287156
0.283445
0.306902
0.707443
0.38704
0.810206
0.740548
0.803274
0.307248
0.296266
0.289922
0.290167
0.291872
0.622153
0.316951
0.286554
0.311168
0.350231
0.300083
0.435195
0.296031
0.366795
0.433848
0.319626
0.292892
0.299842
0.32096
0.321639
0.298892
0.328704
0.313514
0.485075
0.313362
0.350195
0.387543
0.312448
0.315973
0.296325
0.321048
0.304715
0.354517
0.382839
0.292439
0.284599
0.307222
0.309355
0.298063
0.345006
0.29041
0.304719
0.295243
0.309214
0.826378
0.306741
0.404918
0.28418
0.293347
0.66642
0.307481
0.352315
0.288721
0.298806
0.338855
0.359772
0.732561
0.370215
1.55161
0.292294
0.299412
0.345589
0.290678
0.287383
0.378065
0.321365
0.286012
0.28778
0.829148
0.412254
0.645165
0.351418
0.524012
0.365182
0.296115
0.385312
1.25784
0.348747
0.303011
0.302724
0.767258
0.297192
0.307478
0.320683
0.318739
0.358649
0.759636
0.300448
0.314543
0.347466
0.316571
0.348014
0.881037
0.784489
0.299165
0.293034
0.29111
0.34861
0.329536
0.287516
0.77474
1.05685
0.294781
0.340397
0.810514
0.303973
1.05723
0.432485
0.289413
0.297442
0.295899
0.304135
0.565939
0.321405
0.318789
0.308335
0.346355
0.307865
0.361543
0.574365
0.362926
0.472103
0.480845
0.461597
0.554642
0.343403
0.38772
0.38391
0.379196
0.329786
0.309208
0.797228
0.558177
0.377901
0.346619
0.360542
0.337473
0.324671
0.269687
0.28911
0.28876
0.357062
0.349908
0.479079
0.40095
0.841939
0.691233
0.319749
0.377892
0.303027
0.305132
0.365123
0.292209
0.313061
0.292111
0.290093
0.259165
0.258586
0.29008
0.352762
0.631375
0.984545
0.331816
0.289378
0.455123
0.480897
0.810862
0.31184
0.79142
1.1113
0.85859
0.860716
0.383173
0.290568
0.28709
0.360614
0.839388
0.287924
0.372717
0.329749
0.290445
0.571345
0.521838
0.500406
0.318831
1.27661
0.289254
0.298065
0.32678
0.328012
0.635442
0.717936
0.365755
0.43067
0.338137
0.355458
0.308707
0.881193
0.353673
0.848293
0.371898
0.842484
0.352827
0.475027
0.556483
0.525116
0.380212
0.382691
0.653787
0.352519
0.353876
0.380735
0.367667
0.360715
0.341042
1.25961
0.564345
0.320675
0.566399
0.660478
0.559582
0.303445
0.296171
0.726739
0.636794
0.779875
0.302773
1.07534
0.300164
0.907007
0.628522
0.56613
0.671376
0.292005
0.347227
0.294552
0.327309
0.322101
0.500088
0.410882
0.29337
0.295113
0.350536
0.317474
0.289521
0.289472
0.449025
0.29128
0.285793
0.322664
0.384868
0.414703
0.32218
0.355508
0.358662
0.31593
0.492922
0.420778
0.30277
0.303104
0.469762
0.555181
0.309578
1.76662
0.334757
0.407527
0.838453
0.375012
0.309495
0.290822
0.479131
0.31339
0.285871
0.362766
0.309345
0.297744
0.311686
0.294999
0.31488
0.309182
0.321081
0.301787
0.351448
0.65837
0.302076
0.311315
0.305051
0.313635
0.402711
1.03563
0.313905
0.297069
0.318643
0.54582
0.280722
0.331313
0.319128
0.826884
0.340335
0.37618
0.36068
0.385389
0.333252
0.346652
0.314522
0.496181
0.364355
0.349763
1.08645
0.316234
0.382934
0.34036
0.330587
0.353495
0.390798
0.310702
0.336546
0.295872
0.336412
0.317395
0.339206
3.16166
0.300003
0.39925
0.375977
0.343938
0.638725
0.34639
0.592886
0.359362
0.549044
0.641001
0.324167
0.294087
0.391911
0.372296
0.327809
0.296904
0.769776
0.439752
0.357513
1.12226
0.593838
0.305501
0.477514
0.450198
1.27585
0.895068
0.377634
0.465636
0.453754
0.553815
0.460513
0.885431
0.237542
0.546927
0.312561
0.599424
0.359712
0.383565
0.371357
0.352216
0.324757
0.3599
0.580477
0.316319
0.356074
0.388285
0.482316
0.747059
0.401902
0.719018
0.33607
1.03027
0.373326
0.374644
0.825363
0.544175
0.683081
0.633999
0.616298
0.529076
0.383334
0.360034
0.31706
0.371061
0.358306
0.753687
0.345096
0.349396
0.305813
0.474441
0.350742
0.300179
0.835783
0.477851
0.49127
0.191602
0.396899
0.327228
0.344857
0.342848
0.368722
0.317943
0.282843
0.330351
0.383703
0.189558
0.181641
0.523622
0.340036
0.404719
0.400799
0.439711
0.368595
0.352544
0.344947
0.153994
0.351245
0.383948
0.164963
0.366445
0.821744
0.578196
0.331442
1.32451
0.383736
0.455447
1.32916
0.388013
0.371275
0.301322
0.590819
0.291026
0.295481
0.34095
0.361239
0.369539
0.326432
0.556737
0.354162
0.454497
0.305388
0.376572
0.360512
0.289218
1.62856
0.510399
0.997075
0.459969
0.295801
0.905139
0.468257
0.294451
2.38325
0.29643
0.292003
0.461902
0.448156
0.963222
0.85497
0.333861
0.663204
1.35711
0.366456
0.615754
0.970756
0.766662
1.84095
0.362773
0.330506
0.568864
0.634569
0.38649
0.93586
0.343158
0.316817
0.499879
0.343156
0.29957
0.369798
0.746117
0.695758
0.285433
0.492179
0.302683
0.37957
0.326671
0.376429
0.572016
0.411049
0.760667
0.351379
0.360678
0.721862
0.29377
0.304899
0.428509
0.297232
0.336574
1.07293
0.320518
0.873554
0.795671
0.807464
0.791558
0.376377
0.375769
0.28924
0.288031
0.401203
0.295867
0.306529
0.387931
0.305601
0.390217
0.914373
0.296298
0.504595
0.298276
0.45067
0.351516
0.830529
0.352605
0.441721
0.300874
0.318192
0.398936
0.295841
0.318621
0.309471
0.291593
0.501958
0.310374
0.359723
0.342061
0.305709
0.349628
0.326474
0.360779
0.808972
0.320879
0.304512
0.305562
0.368974
0.157457
0.609399
0.451741
0.657749
1.00634
0.274729
0.409763
0.0897562
0.230807
0.955083
0.388919
0.520826
0.301056
0.706416
0.671828
1.19237
0.341818
0.317271
0.522102
1.27851
0.326946
0.391671
0.43102
0.425594
0.391946
0.381229
0.902352
1.36317
0.209413
0.357503
0.171068
0.339114
1.23552
0.312646
0.338771
0.310735
0.301118
0.422946
0.309536
0.555486
0.435891
0.318736
0.373704
0.307359
0.516867
0.604348
0.312766
0.409281
0.344474
0.787448
0.430545
0.347018
0.5061
0.49499
0.290078
0.294376
0.34656
0.300482
0.650906
0.297047
0.412957
0.570175
0.314314
0.325669
0.309637
0.308954
0.58939
0.378862
0.49318
0.299939
0.304569
0.484443
0.626093
0.302416
0.327033
0.301376
0.299346
0.592064
0.422047
0.754806
0.324871
0.29969
0.418001
0.371234
0.328019
0.304146
0.364176
0.367064
0.514124
0.354326
1.99608
0.386713
0.388308
0.29926
0.363743
0.831996
0.969616
0.370778
0.812175
0.343931
0.981182
0.397903
0.677042
0.444677
0.507412
0.386638
0.314782
0.346996
0.391971
0.534005
0.347629
0.344821
0.931797
0.374528
1.41279
0.373237
0.327187
0.363125
0.560459
0.399323
0.29812
0.928784
0.29547
0.317463
0.297128
0.350786
0.738855
0.457613
0.327298
0.485636
0.345929
0.3239
0.303326
0.326224
0.394427
0.394132
0.384282
0.33335
0.321992
0.37781
0.324987
0.290485
0.370992
0.336576
4.95099
0.353221
0.433971
0.327512
0.377836
0.337818
0.390575
0.291087
0.346634
0.32749
0.325489
0.357901
0.795933
0.28938
0.749213
0.528419
0.391249
0.379798
0.331014
0.38251
0.42196
0.684991
0.30503
0.325296
0.330064
0.469187
0.355793
0.29246
1.22854
1.52748
0.633812
0.292645
0.298224
0.482578
0.352981
0.353598
0.47481
0.364427
0.316734
0.341283
1.45646
0.296102
0.538679
0.292987
0.31611
0.396859
0.312177
0.377191
0.428925
0.298607
0.559814
0.377755
0.372207
0.41751
0.915579
0.308142
0.35995
0.347537
0.372085
0.335606
0.344987
0.290158
0.284086
0.374465
0.559992
0.367206
0.343801
1.26697
0.368108
0.578113
0.358354
0.383028
0.371276
0.335893
0.764042
0.330174
0.491859
0.348852
0.355008
0.33033
0.369563
0.541088
0.4286
0.312297
0.596042
0.376929
0.635157
0.726093
1.42769
0.302711
0.429049
0.377687
0.239951
0.366078
0.251424
0.415719
0.21889
0.368633
0.793775
0.377401
0.593751
0.648129
0.343511
0.203292
0.435926
0.942733
0.491878
0.628528
2.01884
1.53071
0.713239
0.775968
0.302419
0.342134
0.724221
0.367023
0.91804
0.351656
0.767233
0.740683
0.319994
0.355005
0.31666
0.289487
0.345134
0.290258
0.688068
0.380599
0.352086
0.526075
0.313973
0.347066
0.295674
0.316767
0.342415
0.331274
0.381378
0.290141
0.386381
0.876793
0.297446
0.303527
0.330361
0.300254
0.801128
1.18512
0.375695
0.409812
0.507805
0.294626
0.283754
0.32253
0.338221
0.313302
0.319897
0.308685
0.30152
0.475146
0.304117
0.339351
0.315593
0.294406
0.296098
0.985589
0.310098
0.326799
0.306983
0.412675
0.346762
0.328744
0.64508
0.384605
0.316846
0.365128
0.337544
0.350783
0.381908
0.363875
0.304937
0.372967
0.355986
0.310367
0.328056
0.337651
0.416267
0.430284
0.315371
0.325077
0.378213
0.406206
0.451646
0.545562
0.911333
0.886829
0.327458
0.29614
1.04789
0.501386
0.527787
0.30455
0.29395
0.315233
0.289163
0.310447
0.297058
0.300563
0.32511
0.297847
0.303756
0.301764
0.303038
0.294837
0.51935
0.349526
0.326637
0.304642
0.310968
0.585234
0.296298
0.301967
0.382389
1.036
0.507249
0.374181
0.362234
0.303138
0.336783
0.447442
0.625577
0.374441
0.312522
0.357522
0.312493
0.314134
0.342218
0.408756
0.350724
0.308483
0.373281
0.389149
0.57969
0.368385
0.735876
0.560094
0.372818
0.370043
0.314775
0.322019
0.362511
0.287592
0.313483
0.572741
0.3053
0.333228
0.692269
0.338728
0.358698
0.455165
0.366058
0.305724
0.340142
0.301184
0.335557
0.7027
0.341793
0.405488
4.03855
0.557228
0.986929
0.805223
0.313819
0.318565
0.497228
0.296579
0.524597
0.466671
0.660157
0.369858
0.292707
0.778004
0.291766
0.514162
0.390888
0.307863
0.687415
0.867535
0.292883
0.30039
0.851542
0.292178
0.300782
0.300336
0.294143
0.341038
0.549728
0.553258
0.321639
0.772625
0.314484
0.314883
0.308326
0.832504
0.316873
0.869913
0.295321
0.334975
0.298215
0.405902
0.3348
0.475
0.298308
0.646957
0.449576
0.451949
0.669782
0.319812
0.313974
0.912283
0.421881
0.328253
0.395667
0.764578
0.320509
0.402826
0.320012
0.562877
0.38043
0.301544
0.292601
0.432343
0.308896
0.363303
0.328248
0.293623
0.319354
0.300331
0.302933
0.327198
0.752322
0.313543
0.30181
0.300709
0.313274
0.311728
0.343432
0.290487
0.359151
0.417219
0.379192
0.372482
0.307675
0.424464
0.305396
0.359737
0.911938
0.4566
0.712636
0.312732
2.82272
0.340813
0.498183
0.368037
0.293177
0.375304
0.302955
0.300951
0.337182
0.349406
0.284278
0.309328
0.292687
0.632643
0.292263
0.308953
0.346395
0.704542
0.144288
0.314789
0.76649
0.850805
0.571701
0.539413
0.839451
0.136396
0.38193
0.205528
0.336108
0.466746
3.10745
0.439576
0.356547
0.290947
0.295746
0.729655
0.326437
0.438975
0.676003
0.365212
0.577847
0.354562
0.564623
0.301786
0.355859
0.33901
0.290145
0.37684
0.285662
0.333551
1.07006
0.987444
1.09271
0.42796
0.876877
0.309079
0.287206
0.297765
0.357647
0.294014
0.347816
0.301268
0.389031
0.370546
0.292984
0.298409
0.354723
0.293647
0.319038
0.349412
0.311936
0.34711
0.473916
0.314414
0.348135
0.793212
0.34443
0.736248
0.77585
0.337302
0.37607
0.295033
0.448881
0.33126
0.346017
0.704086
0.296514
0.355632
0.328289
0.340748
0.306092
0.305246
0.460615
0.488618
0.3755
0.333053
0.767649
0.35643
0.618411
0.56838
0.360507
0.840523
0.421507
0.350507
0.324132
0.351537
0.36743
0.329021
0.293882
0.328443
0.17494
0.559524
0.181816
0.305683
0.335442
0.404149
0.156663
0.962614
0.338637
0.364452
0.368874
0.176095
0.373582
0.834983
2.3891
0.353988
0.302893
0.365555
0.500564
0.305818
0.351693
0.36874
0.307652
0.35011
0.315186
0.667581
0.32495
1.50908
0.386191
0.874515
0.334679
1.63555
0.935391
0.916709
0.32194
0.333107
0.42151
0.361588
0.308065
0.361768
0.318406
0.792569
0.293793
0.437557
0.61846
0.292832
0.296167
0.306972
0.318394
0.342568
0.360467
0.36563
0.380226
0.371669
0.320695
0.38652
0.323929
0.424427
0.316814
0.358091
0.296834
2.61568
1.26539
0.355945
0.423175
0.288439
1.87739
0.289351
0.291047
0.348405
0.289015
0.366796
0.34972
0.285834
0.285038
0.335437
1.68247
0.566161
0.370891
0.781402
0.295431
0.361221
0.317788
0.35956
0.774205
0.374204
0.79547
0.285547
0.315357
0.753523
0.843555
0.3201
0.32668
0.596763
0.377036
0.335167
0.456151
0.361144
0.361508
0.386722
0.364222
0.284062
0.375329
0.345812
0.447798
0.294889
0.352784
0.290844
0.323437
0.803115
0.746869
0.30886
0.421828
0.319156
0.347255
0.309945
0.5044
0.309177
0.323074
0.339669
0.339592
0.412428
0.371262
0.454129
0.344677
0.287765
0.322902
0.296162
0.352744
0.293195
0.491309
0.420956
0.318973
0.583865
0.322862
0.292939
0.346524
0.295703
0.365292
0.597048
0.313963
0.401665
0.361043
1.03503
0.369607
0.35089
0.367086
0.687759
0.368001
0.500567
0.34696
0.37644
0.435661
0.386531
0.357035
0.752233
0.424698
0.363187
0.31344
0.302049
0.514947
0.316617
0.877295
1.53509
0.375887
0.395012
0.357432
0.447445
0.418637
0.358312
0.823898
0.449559
0.61484
0.297619
0.385534
1.12281
0.455702
0.328937
0.438962
0.308655
1.10373
0.35988
0.363006
0.309001
0.292078
0.297778
0.327401
0.297182
4.11954
0.295602
0.620345
0.292143
0.396734
0.358576
0.495704
0.326667
0.33166
0.319194
0.635732
0.437067
0.474381
0.301272
0.300399
0.424394
0.346168
0.333079
0.295853
0.293104
0.291821
0.314813
0.291401
0.3504
0.296739
0.52981
0.403083
1.17241
0.726282
0.549992
0.524919
0.362897
0.370643
0.290463
0.551117
0.306425
0.313083
0.305841
0.430595
0.462997
0.307031
0.392592
0.743695
0.460901
0.296721
0.298219
1.74423
0.777401
0.357473
0.819182
0.824308
0.601605
0.730697
0.534622
0.712469
0.377518
0.591834
0.725382
0.292753
0.301298
0.28638
0.444055
0.576753
0.309995
0.29325
0.374501
0.339215
0.377373
0.746471
0.450875
0.936485
0.338988
0.299599
0.317057
0.299674
0.335628
0.735143
0.97829
0.802535
0.744644
0.314958
1.21634
0.58146
0.30871
0.507197
0.44358
0.733123
0.366274
0.448339
0.730522
0.737619
0.445948
0.829086
0.472135
0.791747
0.357778
0.315244
0.372269
1.11525
0.74146
0.363782
0.315496
0.516953
0.415141
0.552785
0.333552
0.352992
1.10134
1.12013
0.19065
0.345006
0.187907
0.295076
0.187525
0.348509
0.436572
0.562524
0.171293
0.406069
0.468747
0.128989
0.433349
1.36278
0.383731
0.353913
0.776928
0.310081
0.464633
0.301394
0.289112
0.305992
0.315274
0.837284
0.662516
2.12442
0.36321
0.361997
0.604265
0.348405
0.417629
0.381125
0.335343
0.312872
0.559021
0.379922
0.410695
0.303176
0.39279
0.376743
0.70975
0.432568
0.770717
0.941011
0.733309
0.373699
0.37312
0.715984
0.245254
0.515486
0.334595
0.35914
0.302318
0.767131
0.595698
0.647886
0.707043
0.577524
0.295309
0.400335
0.848068
0.7787
0.360911
0.355828
0.429235
1.57776
0.326993
0.297304
0.361737
0.322853
0.816075
0.323737
0.572224
0.770572
1.08408
1.95899
0.50794
0.424178
0.768093
1.27388
0.83609
0.546997
0.782204
0.917678
0.493488
0.350869
0.417391
0.356454
0.284964
0.30628
0.39589
0.479621
1.87905
0.347625
0.388433
0.403416
0.373891
0.44186
0.532765
0.456222
0.36513
0.377219
1.05105
1.04738
0.16633
0.371296
0.32068
0.343498
1.49206
0.826291
0.367604
0.613681
0.313135
0.407369
0.517368
0.52659
0.315065
0.313577
0.309336
0.365653
0.890512
0.428996
0.33309
0.711959
0.298469
0.924945
0.691284
0.443547
0.674962
0.342824
0.295875
0.313049
0.299853
0.347896
0.368326
0.309959
0.325165
0.311188
0.297609
0.473221
0.586943
0.699312
0.302138
0.445135
0.336692
0.366183
0.322828
0.565769
0.329884
0.318026
0.31477
0.297102
0.304671
0.308617
0.429417
0.291441
0.334668
0.343281
0.581744
0.304166
0.362701
0.476041
0.761938
0.894559
0.360455
0.828286
0.471556
0.346408
0.321019
0.504547
0.316536
3.57827
0.388358
0.303434
0.396608
0.420433
0.380463
0.425965
0.690194
0.977975
0.414113
0.829119
0.319023
0.290622
0.365788
0.296642
0.295108
0.380684
0.296699
0.300221
0.55318
0.298712
0.228686
1.77724
0.530735
0.294583
0.295478
0.59642
0.314397
0.30731
0.543091
0.307963
0.721891
0.370824
0.754097
0.296289
0.515388
0.414663
0.637279
0.300862
0.411365
0.301651
0.954153
0.364327
0.295519
1.28724
0.401101
0.477617
0.331271
0.34792
0.373675
0.295403
0.47714
0.295069
0.302292
0.297392
0.422666
0.543335
0.306363
0.301919
0.303452
0.298734
0.311459
2.261
0.295576
0.429603
0.295052
0.539379
0.333719
0.343802
0.339142
0.440511
0.315095
0.390107
0.286779
0.318737
0.313178
0.325484
0.296093
0.409526
0.380119
0.904279
0.952084
0.759528
0.369651
0.319583
0.319415
0.295526
0.298887
1.02107
0.605657
0.373629
0.34598
0.288527
0.312319
0.286614
0.301493
0.499728
0.486878
0.736101
0.946005
0.345587
0.359091
0.37628
0.295446
0.541057
0.344766
0.430594
0.354225
0.335085
1.05078
0.38859
0.289347
0.31585
0.377653
0.303184
0.480749
0.295339
0.645995
0.349121
0.876305
0.468552
0.740144
0.303285
0.314045
0.331127
0.374406
0.337791
0.358235
0.302031
0.294955
0.30039
0.307669
0.354884
0.565411
0.345871
0.824601
0.391762
0.316228
0.491148
0.381688
0.36145
0.253845
1.02807
0.844842
0.235102
0.310185
0.301565
0.812999
0.29932
0.388794
0.354467
0.341951
0.271625
0.356145
0.354439
0.29548
0.395699
0.387634
0.938699
0.50352
0.414035
0.285719
0.374537
0.47656
0.325612
0.298459
0.854048
0.793842
0.318897
0.738154
0.303216
0.294216
0.373461
0.302566
0.856987
0.292215
0.293539
0.298321
0.625428
0.294649
0.334328
0.428888
0.435205
0.293704
0.311682
0.316263
0.316073
0.30206
0.342686
0.341917
0.563661
0.40308
0.361813
0.546493
0.353757
0.56942
0.338644
0.856566
0.41981
0.258195
0.624377
0.16212
0.407189
0.498661
0.556232
0.371691
0.294649
0.296637
0.290729
0.351524
0.797868
0.365902
0.293607
0.343338
0.351758
0.286424
0.456071
0.318392
0.363626
0.436781
0.313787
0.301819
0.327643
0.317807
2.29242
0.91118
0.35975
0.351662
0.399999
0.346895
0.773004
0.898207
0.963473
0.74686
0.338685
0.312895