/*--------------------------------*- C++ -*----------------------------------*\
| =========                 |                                                 |
| \\      /  F ield         | OpenFOAM: The Open Source CFD Toolbox           |
|  \\    /   O peration     | Version:  2506                                  |
|   \\  /    A nd           | Website:  www.openfoam.com                      |
|    \\/     M anipulation  |                                                 |
\*---------------------------------------------------------------------------*/
FoamFile
{
    version     2.0;
    format      ascii;
    arch        "LSB;label=32;scalar=64";
    class       volScalarField;
    location    "0.075283";
    object      nut;
}
// * * * * * * * * * * * * * * * * * * * * * * * * * * * * * * * * * * * * * //

dimensions      [0 2 -1 0 0 0 0];

internalField   nonuniform List<scalar> 
47425
(
0.00484243
0.00478202
0.00426059
0.00194485
0.00315064
0.00436872
0.00426006
0.00313099
0.00742777
0.00246114
0.00238336
0.00738694
0.00487851
0.00385902
0.0031163
0.00369306
0.00440758
0.00234894
0.000242789
0.0026325
0.0036999
0.00669818
0.00300869
0.00487613
0.00664143
0.00663965
0.00375317
0.000476572
0.0041289
0.00532943
0.00704885
0.00713988
0.00745915
0.00427061
0.00512833
0.00460163
0.00673155
0.00537815
0.00453449
0.00414317
0.00496234
0.0045935
0.00487258
0.00260976
0.000906947
0.00327423
0.00339528
0.00451859
0.00376994
0.00620162
0.000624674
0.00257743
0.00587154
0.00119342
0.00322035
0.00292532
0.00652314
0.0050104
0.00248798
0.0049363
0.000922661
0.000699849
0.00107585
0.0028442
0.0073849
0.00660545
0.00555499
0.00403939
0.0010838
0.0051023
0.0038077
0.00544087
0.00589589
0.00336369
0.00152966
0.00746319
0.0011239
0.00373892
0.000189549
0.00185709
0.00147559
0.00469195
0.00700832
0.00742906
0.00570034
0.00380106
0.00526076
0.00528578
0.00398003
0.00143628
0.00684144
0.00437286
0.00704609
0.00320839
0.00257668
0.00186354
0.00616523
0.0054946
0.00345454
0.00449557
0.00556537
0.000922264
0.00577358
0.00094699
0.0058951
0.00691566
0.00584289
0.00335866
0.00592269
0.00703952
0.0037168
0.00516618
0.00562088
0.0022433
0.00728997
0.000331681
0.0073145
0.000718022
0.00424794
0.00519323
0.00395571
0.0074714
0.00590299
0.00245333
0.00356653
0.00656302
0.00369806
0.0074179
0.0033216
0.00703152
0.00672656
0.00336724
0.000984659
0.00286383
0.00450448
0.0042973
0.00634674
0.00629826
0.0043887
0.00311882
0.00499003
0.00214192
0.00462137
0.00478623
0.00621536
0.00742414
0.0036033
0.0054219
0.00237003
0.00499668
0.00480312
0.000535251
0.00738984
0.000409838
0.0028237
0.00375517
0.0027642
0.000298022
0.00375353
0.00448161
0.00738847
0.00673797
0.00575817
0.00654835
0.00116734
0.000412153
0.00743228
0.00150432
0.00311836
0.000774514
0.00160038
0.00402364
0.00479062
0.00314288
0.00475751
0.00120832
0.000383873
0.00410691
0.0055143
0.00680897
0.000311782
0.00584445
0.00477646
0.00638232
0.00630939
0.0069603
0.00532151
0.00106496
0.00232572
0.00505123
0.00746955
0.00407693
0.00491315
0.00474278
0.00639533
0.00727078
0.00582734
0.0043864
0.00740293
0.00340159
0.00493963
0.0029508
0.00548261
0.00723554
0.00232823
0.0023578
0.00539728
0.00717249
0.00400639
0.00747105
0.00461891
0.00449983
0.00745917
0.0032976
0.00462307
0.00463439
0.00390351
0.00190652
0.00318673
0.00380109
0.00178226
0.00236101
0.00425009
0.00306627
0.00237321
0.00160232
0.00643635
0.0024131
0.0071065
0.0038286
0.00415787
0.00426709
0.00326442
0.00748888
0.00221226
0.00341643
0.00164672
0.00292744
0.00184368
0.00200635
0.00399095
0.00476847
0.00695446
0.00293999
0.00662604
0.00733162
0.00438303
0.00590005
0.00675716
0.00388297
0.0069991
0.00208998
0.00447825
0.00742026
0.00335652
0.006945
0.0066399
0.00300154
0.00319211
0.00739659
0.00302409
0.00745958
0.00391296
0.00265037
0.0049895
0.00386389
0.00671551
0.00422986
0.00463428
0.00391508
0.00390878
0.0020586
0.00172194
0.00599977
0.00214754
0.00206834
0.00214848
0.00053065
0.00176834
0.00058075
0.000912146
0.00484577
0.000833939
0.00292425
0.00385079
0.00352083
0.00334676
0.00348687
0.00397306
0.00742181
0.000734082
0.00489743
0.00737543
0.00517865
0.00446275
0.00326624
0.00282296
0.00636539
0.00480419
0.00483099
0.00374415
0.00662485
0.00375218
0.00490132
0.000955374
0.000807921
0.00053338
0.00696932
0.00602501
0.00687205
0.00315181
0.000800672
0.00365374
0.00279586
0.00189196
0.0045706
0.00326284
0.00301813
0.00332957
0.0014356
0.00195647
0.00693801
0.00507031
0.00607701
0.00407072
0.00674728
0.00394963
0.00457653
0.0054974
0.00410804
0.00353937
0.000964059
0.00368851
0.00400925
0.00297232
0.00694216
0.000828072
0.00631769
0.00632019
0.00558888
0.00675768
0.00670202
0.00632244
0.00574891
0.00551106
0.00585808
0.00494914
0.00640794
0.00359478
0.00397706
0.0066558
0.00654093
0.00503965
0.00646201
0.00653507
0.00249866
0.00393497
0.00702322
0.00638152
0.00385725
0.00191627
0.00538925
0.00408104
0.003307
0.00610115
0.00646493
0.00277631
0.00743424
0.00480612
0.00686081
0.00274765
0.00126295
0.00379958
0.00708217
0.00192608
0.0070378
0.00401062
0.00383159
0.00502325
0.00670651
0.00563154
0.00690278
0.00688529
0.00481457
0.00397599
0.00439933
0.00376282
0.00570288
0.00717398
0.00378747
0.00589356
0.00587332
0.00398319
0.00518695
0.0045458
0.00630096
0.00516079
0.00352023
0.0032796
0.00591145
0.00102527
0.00647834
0.00219207
0.00463838
0.00342326
0.00339162
0.00626041
0.00236957
0.00632601
0.00348893
0.00641865
0.00113532
0.000981022
0.00678299
0.00253448
0.0037994
0.00354518
0.00377072
0.00407746
0.00371996
0.00397351
0.00473604
0.00632148
0.00303381
0.00439501
0.00604393
0.00361176
0.00386587
0.00586025
0.00086271
0.000369084
0.00660012
0.000469975
0.000468125
0.00393296
0.00044381
0.00100349
0.00618982
0.00377669
0.00400929
0.00382795
0.00102287
0.00372957
0.00581401
0.00605142
0.00410568
0.00406302
0.00393819
0.00368643
0.00114518
0.000743224
0.0011972
0.00543751
0.000949336
0.00376367
0.00505739
0.00699197
0.00498995
0.00705405
0.00422915
0.00478994
0.00284693
0.00434119
0.00748961
0.00378885
0.00503548
0.00423773
0.0071408
0.0047228
0.00450835
0.00523086
0.00562934
0.00338692
0.00273939
0.00500679
0.00408537
0.0070678
0.0013556
0.00277688
0.00192723
0.00744304
0.00253801
0.00306978
0.00282526
0.00684679
0.00376948
0.00740267
0.0048615
0.00274452
0.00321886
0.00346116
0.00306587
0.00523682
0.00224607
0.00083776
0.00615691
0.00152071
0.00558488
0.00152398
0.00588168
0.0056682
0.006727
0.00433331
0.00504768
0.00290279
0.00485066
0.00636976
0.00682238
0.00586186
0.00427445
0.00260065
0.00346715
0.00697166
0.00544222
0.00474166
0.00499328
0.00506033
0.00472543
0.00434804
0.00240131
0.00472287
0.00372038
0.000649058
0.00501365
0.00433786
0.00621808
0.0074118
0.00168607
0.00214694
0.00434912
0.00581593
0.00420621
0.00396989
0.00683794
0.00204616
0.00747829
0.00470702
0.00229378
0.0026816
0.00502793
0.00276387
0.00713545
0.00413943
0.00417983
0.00530739
0.00680442
0.0055272
0.000914799
0.00468692
0.0024023
0.00647568
0.00187998
0.00612627
0.00498344
0.00200331
0.00234105
0.00440958
0.00647177
0.000711566
0.00526467
0.0051892
0.00516019
0.00602858
0.00658511
0.00218132
0.00288241
0.00596279
0.00477124
0.00454797
0.00678185
0.00188337
0.00680982
0.0049555
0.000414483
0.00427577
0.00692635
0.000797053
0.00125886
0.00704561
0.000314607
0.000331152
0.0041357
0.00744586
0.00552915
0.00672923
0.00426098
0.00377829
0.00131495
0.00688111
0.0026626
0.00589289
0.00197383
0.00221859
0.00433119
0.00467241
0.00153034
0.00682379
0.00579223
0.00337354
0.00334299
0.00240404
0.00295269
0.00296579
0.0066775
0.0033041
0.00285124
0.00291034
0.00532529
0.00283895
0.00317359
0.00626285
0.00241589
0.0036133
0.00387103
0.00266164
0.00332172
0.00429105
0.00492958
0.00583002
0.00160345
0.00507681
0.00633135
0.00617173
0.000288633
0.00387788
0.00474165
0.000505844
0.00080838
0.00693063
0.00462394
0.000141964
0.00203419
0.000749285
0.00255692
0.00315409
0.000771074
0.00488495
0.00599625
0.00590933
0.00284849
0.00335451
0.0033283
0.00621601
0.00310324
0.00437554
0.00374949
0.00594175
0.004218
0.0037113
0.00169685
0.000964283
0.00273412
0.0027893
0.00395263
0.00562189
0.0034205
0.00741649
0.0060541
0.00567855
0.00526691
0.00541678
0.00189166
0.00469484
0.00619652
0.00181566
0.00190919
0.00104969
0.00114285
0.00384838
0.00706131
0.00480222
0.00676065
0.00126768
0.0043202
0.00130603
0.00413709
0.00382021
0.00489928
0.00459368
0.00547694
0.00330833
0.0018149
0.00342191
0.00502141
0.00188081
0.00409485
0.00748588
0.00411792
0.0039539
0.00187312
0.00477324
0.00183748
0.00326103
0.00747321
0.00671383
0.00244922
0.00400021
0.00346425
0.00743283
0.00498362
0.00396569
0.00433549
0.00403779
0.0038151
0.0046022
0.000854643
0.00058733
0.00419692
0.000764068
0.00439594
0.00282146
0.00333147
0.00605848
0.00441044
0.00463846
0.00397307
0.00393568
0.00657689
0.000552611
0.00236781
0.00328052
0.00506699
0.00630799
0.00369686
0.00514129
0.0023538
0.0072865
0.00188244
0.00395644
0.0066429
0.00403646
0.00636017
0.00517093
0.00432208
0.0057675
0.00347469
0.00701163
0.00631485
0.00356712
0.000987856
0.00705554
0.000747175
0.00224057
0.00203361
0.000748877
0.004101
0.00381371
0.00203786
0.00330797
0.000779342
0.000818403
0.000903666
0.00313226
0.00469682
0.00344815
0.00287307
0.000829294
0.00242953
0.00359482
0.00537911
0.00421842
0.00402782
0.00306255
0.00554523
0.00412297
0.00124973
0.00188342
0.00555508
0.00246468
0.00104255
0.000672042
0.00386097
0.000575907
0.00180997
0.000642282
0.000821827
0.00449995
0.00298934
0.00673409
0.00632452
0.00471002
0.000729329
0.0011905
0.00466219
0.00474786
0.00691785
0.000891102
0.000874665
0.00695475
0.0022284
0.00357394
0.00694265
0.00218132
0.00697409
0.00689009
0.00415696
0.0046985
0.00151189
0.00620055
0.0069106
0.00488578
0.00513796
0.00511212
0.000981095
0.00191081
0.00679031
0.00119579
0.00596053
0.00628786
0.00626208
0.00174734
0.00446114
0.00200445
0.00256642
0.0054352
0.00693083
0.00121483
0.000632576
0.00434136
0.00376927
0.00192213
0.00520636
0.00560962
0.00292822
0.00268462
0.00294507
0.00701137
0.0024528
0.00106142
0.0074237
0.00104942
0.00505524
0.00394705
0.00658221
0.00197306
0.00262513
0.00675503
0.0043449
0.00121015
0.0031211
0.00184768
0.00448121
0.0051747
0.00447698
0.00354633
0.00432926
0.00299257
0.000667887
0.004459
0.00249784
0.00176735
0.00175296
0.001046
0.00171034
0.00404052
0.000533338
0.00666269
0.006329
0.00391965
0.00278863
0.00374027
0.00135344
0.00128597
0.00315805
0.00442513
0.00431605
0.00310862
0.00351882
0.00385779
0.0104889
0.00139026
0.00387477
0.00362781
0.00275326
0.00176585
0.00629007
0.000539641
0.00386857
0.00537206
0.00386731
0.0038921
0.00933176
0.00647649
0.00325205
0.00386329
0.000672256
0.00267799
0.00473561
0.00360601
0.00542784
0.0034744
0.000748376
0.00462405
0.00228459
0.00533658
0.00174781
0.00286743
0.00376017
0.00546095
0.00528985
0.00357869
0.00221481
0.00377389
0.00158308
0.000730168
0.0051786
0.00672735
0.00472864
0.00100776
0.00508402
0.00268523
0.00692066
0.00165332
0.00157685
0.00356031
0.00293868
0.00434281
0.00686078
0.0051476
0.00313127
0.0011829
0.00211975
0.00111593
0.00636687
0.00215817
0.0023654
0.00296568
0.00348095
0.00532625
0.00167562
0.0016335
0.00360351
0.000885071
0.00348494
0.00347729
0.0041518
0.00469659
0.00354234
0.00462773
0.00117824
0.00446551
0.00426159
0.00423049
0.00579626
0.000763167
0.00268238
0.000682326
0.00149988
0.000763172
0.00206354
0.00381031
0.00124252
0.00339918
0.00121519
0.00197685
0.00202414
0.00160285
0.00286928
0.00500457
0.00413795
0.00746828
0.00138478
0.00366494
0.00336225
0.00426605
0.00128728
0.0056054
0.00423345
0.00579484
0.00746034
0.00288758
0.00175056
0.00292085
0.00303632
0.00505861
0.00230058
0.00650025
0.00311163
0.00304214
0.00646544
0.00225066
0.00227145
0.00418245
0.00197656
0.00373623
0.00333213
0.0020396
0.0028982
0.00305365
0.000214895
0.000657975
0.00177931
0.00076346
0.00325782
0.00320198
0.000588775
0.00091769
0.00469684
0.000997638
0.00329253
0.00418546
0.000552798
0.00259347
0.00680211
0.00314573
0.00140703
0.00576734
0.000668325
0.000336527
0.00220128
0.000809809
0.00220636
0.000917931
0.000834808
0.00528119
0.00442694
0.00274544
0.00178295
0.00362306
0.00716882
0.00200488
0.000677288
0.00425968
0.00161121
0.00421544
0.00199429
0.00608658
0.00574382
0.00258319
0.00243766
0.00412037
0.00171644
0.00471808
0.00142435
0.00685429
0.00557441
0.00483003
0.00235366
0.00489917
0.00698133
0.000762518
0.00201499
0.00185184
0.00367761
0.00248657
0.00242029
0.00121108
0.00395217
0.00110982
0.00306406
0.00496538
0.00307481
0.00263755
0.000932105
0.00192146
0.00170651
0.00587739
0.00471412
0.00195494
0.00395614
0.00285519
0.00499336
0.00740451
0.00609989
0.00382304
0.00316334
0.000800198
0.00382162
0.00049182
0.00370174
0.00432998
0.00297877
0.00502047
0.00367789
0.00396923
0.00436966
0.00192658
0.00550436
0.00140442
0.00690372
0.000360618
0.00135704
0.00142871
0.00196742
0.00410699
0.00529174
0.00342167
0.00478787
0.000620162
0.000735612
0.00337348
0.00215058
0.000990803
0.00090984
0.00230871
0.00114264
0.000623569
0.0034897
0.00452436
0.000555521
0.00381598
0.00440639
0.00414037
0.00115656
0.000519473
0.00383749
0.0035578
0.00127584
0.0025332
0.00143758
0.000743275
0.00323746
0.00107848
0.00116343
0.00334383
0.00443092
0.00115158
0.00574635
0.001737
0.000231815
0.0069884
0.0042359
0.00373864
0.00515581
0.00298641
0.00300133
0.00719775
0.00295276
0.00410772
0.000798918
0.0015595
0.0044113
0.00140952
0.00634151
0.000384033
0.00671789
0.00347825
0.00229107
0.00510319
0.000972927
0.00387189
0.00301262
0.00235546
0.00404357
0.00390708
0.00574071
0.00210648
0.000671556
0.00572199
0.00150116
0.000699995
0.002389
0.00348792
0.000981181
0.00164632
0.00478129
0.00509698
0.00101108
0.00172185
0.00228559
0.000810746
0.002586
0.000901083
0.0035063
0.00275196
0.0021282
0.000991711
0.00545564
0.00529042
0.00209294
0.00428459
0.00255693
0.00407587
0.0013736
0.00498916
0.00351665
0.00575596
0.00144449
0.0056039
0.000604228
0.00217112
0.00556603
0.00739775
0.00186423
0.00160845
0.000859506
0.00190422
0.0020075
0.00107955
0.000849133
0.003962
0.000918727
0.00508799
0.00280175
0.000404302
0.00149449
0.00308877
0.00348591
0.00561304
0.00144014
0.000828037
0.00154559
0.00295291
0.00787907
0.00697461
0.00175357
0.00379096
0.00379481
0.00627775
0.00101154
0.00303888
0.001603
0.00407778
0.00151752
0.00396593
0.00297719
0.00107848
0.00181413
0.0023665
0.00241644
0.00538816
0.000395928
0.00162956
0.00150066
0.0014107
0.0061113
0.00519845
0.00102575
0.000803958
0.00162314
0.00265227
0.00276064
0.00159862
0.00235168
0.00156451
0.00527428
0.00128153
0.00130571
0.00527574
0.00115341
0.00333544
0.00251105
0.00270527
0.00124656
0.0024569
0.00564597
0.000678295
0.00329213
0.000654822
0.00260243
0.00358113
0.00301878
0.00188207
0.0012559
0.00230583
0.00384382
0.00289473
0.00116655
0.00379577
0.00413936
0.000694772
0.0066966
0.00357386
0.00084394
0.00340284
0.00265172
0.00248519
0.00238262
0.00116297
0.00356948
0.000153746
0.00226863
0.000756484
0.00303631
0.00110689
0.00264933
0.000875326
0.00138378
0.00137736
0.00321369
0.00394996
0.00741052
0.00400115
0.00356727
0.00288248
0.000710538
0.00375678
0.00595582
0.0041018
0.00477826
0.00294366
0.00415515
0.00702286
0.00745254
0.00298005
0.00095605
0.00651854
0.00277487
0.00233012
0.00517877
0.00622528
0.00282062
0.00214508
0.00747109
0.00535499
0.00329853
0.0034909
0.00562032
0.00387982
0.00115051
0.00385416
0.003254
0.00544544
0.00675449
0.00202558
0.00461249
0.00578015
0.000841695
0.00216553
0.000948583
0.00638109
0.000919952
0.000419289
0.00547189
0.000387168
0.00076934
0.000546433
0.00390512
0.00458713
0.00424012
0.00137013
0.00676182
0.00438835
0.00446191
0.00384369
0.00268475
0.00342726
0.00341765
0.00101977
0.00429386
0.00265144
0.000812714
0.00400527
0.000312459
0.00163548
0.00122766
0.00621206
0.0030077
0.00192044
0.00563621
0.00455459
0.00192721
0.00685319
0.0028998
0.00164443
0.000448394
0.00709463
0.00145938
0.0049791
0.00296735
0.00283811
0.00510824
0.00132535
0.00452308
0.00206445
0.00438422
0.00128918
0.000278715
0.00381897
0.00674128
0.00236007
0.00458248
0.00094445
0.00374402
0.00372736
0.0043447
0.00410177
0.00532764
0.00718737
0.00370527
0.00216898
0.00510797
0.00218407
0.00394196
0.00376193
0.0069973
0.00229737
0.00328842
0.00398256
0.00515438
0.00437637
0.00442514
0.00306579
0.00411596
0.00433516
0.00569935
0.00232434
0.00259673
0.0074721
0.0038168
0.00351389
0.00500083
0.00378914
0.00332128
0.00381163
0.00373449
0.00385903
0.00575624
0.00381981
0.00562325
0.00458578
0.00611353
0.00202744
0.00222008
0.00196174
0.00361916
0.0046551
0.00402
0.00117861
0.00505212
0.00487273
0.00528912
0.00145684
0.00298132
0.00122229
0.00122758
0.001264
0.00312127
0.00438783
0.00396391
0.00408351
0.00613066
0.00118654
0.00390184
0.00618117
0.00401939
0.00313657
0.00388143
0.00150967
0.00388992
0.00235293
0.00268192
0.00334171
0.00594839
0.00429773
0.00365316
0.00371873
0.00443184
0.00295873
0.00322695
0.00271729
0.00363444
0.00508199
0.00493129
0.00210423
0.00188513
0.0045745
0.00406698
0.00229124
0.00370242
0.00227198
0.0062548
0.00503521
0.00228498
0.00452655
0.00557105
0.00460173
0.00662935
0.0062035
0.00334179
0.0042223
0.00219041
0.00431022
0.00226884
0.00567208
0.0042173
0.000985837
0.00392597
0.00418708
0.0048341
0.0049697
0.00391802
0.00423117
0.000314967
0.00346263
0.00380247
0.0057504
0.00503191
0.00492109
0.00696243
0.00596447
0.00349916
0.00402434
0.00597069
0.00643153
0.00269333
0.000972381
0.00125682
0.00297623
0.00173486
0.00350022
0.00378166
0.00353255
0.00235938
0.00193325
0.00320802
0.00389808
0.000821772
0.00466498
0.00389191
0.00377904
0.0039208
0.00573352
0.000294213
0.00452776
0.0035325
0.00743041
0.00259923
0.00245134
0.00040584
0.000224314
0.00450132
0.00552283
0.00674933
0.00391436
0.00359128
0.00476608
0.00020366
0.00149052
0.00460758
0.00249966
0.0012563
0.0047457
0.00566758
0.00350959
0.00671073
0.00485462
0.00637357
0.00415606
0.00274461
0.00381491
0.00415462
0.00502607
0.00183845
0.00416163
0.00743716
0.00155523
0.0057191
0.00329458
0.00281899
0.00104081
0.00165888
0.00341049
0.00287963
0.0048327
0.00284779
0.00282044
0.00585793
0.000578764
0.00164552
0.00287974
0.00383403
0.00339964
0.00380108
0.00376291
0.00108986
0.00698065
0.00643658
0.00574171
0.00538224
0.000842967
0.00124331
0.00124649
0.00179241
0.00293443
0.00287971
0.00700709
0.00665706
0.00454911
0.00478055
0.00497881
0.00540478
0.00694399
0.00104826
0.000749678
0.00688696
0.00555112
0.0025264
0.00253342
0.00282085
0.00689311
0.00471857
0.00178819
0.0008844
0.00337232
0.0020058
0.00341535
0.0015055
0.000542961
0.00309051
0.00594476
0.00678539
0.00617163
0.000884416
0.0051051
0.00435008
0.00414105
0.0069855
0.000868871
0.000390538
0.000460436
0.00163413
0.00463056
0.00575686
0.00661901
0.00212977
0.00365847
0.000897101
0.000840428
0.000846954
0.000517183
0.000830129
0.0016401
0.00646319
0.000773294
0.00739759
0.000325497
0.00390476
0.000761995
0.00444221
0.0016451
0.00526366
0.00288734
0.00224757
0.00225489
0.00436832
0.00559522
0.00398881
0.000868876
0.0010279
0.00500267
0.00516347
0.000467767
0.000471579
0.00352974
0.00162474
0.000750356
0.00155191
0.00453142
0.0065021
0.000892956
0.00074897
0.00151075
0.00703504
0.00137178
0.00603256
0.000780195
0.00108605
0.000594954
0.00232771
0.00546976
0.00145957
0.00637944
0.00460129
0.00370431
0.00210419
0.00563011
0.00347434
0.00425877
0.00375086
0.00408175
0.00635374
0.00609639
0.00322226
0.00649001
0.00553589
0.00415768
0.00381676
0.00148558
0.00375125
0.00235843
0.00399527
0.00472426
0.00389339
0.000930723
0.00338914
0.00328126
0.00182775
0.000550871
0.00410731
0.00421469
0.0029982
0.000945302
0.00168773
0.00125284
0.00448221
0.00619322
0.00426937
0.00332627
0.00527856
0.00334443
0.00309231
0.00359062
0.00675435
0.00443697
0.00434143
0.00435401
0.00311263
0.00415406
0.00362081
0.000637315
0.00339632
0.00392327
0.00408283
0.00285869
0.00107128
0.00295048
0.00365794
0.00441179
0.00305118
0.00122706
0.00109102
0.00373721
0.00317893
0.0003638
0.00148707
0.00203292
0.00401741
0.0014646
0.0030744
0.00396603
0.00260258
0.00110101
0.00469242
0.00403242
0.00251826
0.00627104
0.0023435
0.00267147
0.00305218
0.00332915
0.00194436
0.00401469
0.00584213
0.00676644
0.00173402
0.00320716
0.00418256
0.0061369
0.00481931
0.000785442
0.00293938
0.00332209
0.000433719
0.00169932
0.00537106
0.00341359
0.000938829
0.00160912
0.00226165
0.00676362
0.00289571
0.00100173
0.0047959
0.00698355
0.000654142
0.00175753
0.0013061
0.0026871
0.00461352
0.00448243
0.00151885
0.000625791
0.000744347
0.00493717
0.00523464
0.000596098
0.00497923
0.00175477
0.00307953
0.00148845
0.000922435
0.00455702
0.00333629
0.00115762
0.00396168
0.00491842
0.00444568
0.0035526
0.00539322
0.000861662
0.000284879
0.00337157
0.00354483
0.000701494
0.000508055
0.000666617
0.00198917
0.00105885
0.00192511
0.00053035
0.00352553
0.00353175
0.000848506
0.0022395
0.00226958
0.00110679
0.000965303
0.000426813
0.00536219
0.00494009
0.000759912
0.00660327
0.00421631
0.00079972
0.00516816
0.00327006
0.00395733
0.00290457
0.00498672
0.00601313
0.000454353
0.000582095
0.00241163
0.0006795
0.00238589
0.00353443
0.0042716
0.00423906
0.00326043
0.00421203
0.00494449
0.00384608
0.00444681
0.000676187
0.000625934
0.00409331
0.00163816
0.00386155
0.00420392
0.00252044
0.00350827
0.00362456
0.00437114
0.000460152
0.00106047
0.00421593
0.000604396
0.00279178
0.00139839
0.00287057
0.00336346
0.00106858
0.00279389
0.00103929
0.00360131
0.00289776
0.00289741
0.00607541
0.00112613
0.00688685
0.00524089
0.00229389
0.0042347
0.00141369
0.00327262
0.00240508
0.00338235
0.000841032
0.00381086
0.00340647
0.00362983
0.00682642
0.00432768
0.00332891
0.00173708
0.000441177
0.00272526
0.000740948
0.00329192
0.00424766
0.0050488
0.00436687
0.00479969
0.00445671
0.00329425
0.00118293
0.00177729
0.00117185
0.000600287
0.00386716
0.00389319
0.00015678
0.000834645
0.00502357
0.00511049
0.00120002
0.00373912
0.000690101
0.00043902
0.00265321
0.000765756
0.00127079
0.00271421
0.000722617
0.00163206
0.00549573
0.00348351
0.00100333
0.00124515
0.00598528
0.000929604
0.00620666
0.00262934
0.00422112
0.00261843
0.00178387
0.000804312
0.000983158
0.00589219
0.00568909
0.000234504
0.00665668
0.00453586
0.00114312
0.00556569
0.0027504
0.00429851
0.00308935
0.00051907
0.0014344
0.000929941
0.00165335
0.00315235
0.00106699
0.00546092
0.00466016
0.000978704
0.00637543
0.00361156
0.00261384
0.00494556
0.00124223
0.000631655
0.00651652
0.0021866
0.00680934
0.000716716
0.00378894
0.000564364
0.00276681
0.00299535
0.00538053
0.0024667
0.00265067
0.00606433
0.00418155
0.00317606
0.00684606
0.00138096
0.00321427
0.00346063
0.00623981
0.00379373
0.00345088
0.00236402
0.0028501
0.00181173
0.00300132
0.00334174
0.00362253
0.0013811
0.000540152
0.000773146
0.000688303
0.00111156
0.000807636
0.000928706
0.00249776
0.000207734
0.000712405
0.00146656
0.00168684
0.00246783
0.00100914
0.000959419
0.00218713
0.00144726
0.00205047
0.00601602
0.00249303
0.00175118
0.00374587
0.000902654
0.0033188
0.000627265
0.00180365
0.00113744
0.00136921
0.0014356
0.000726219
0.00176925
0.000630478
0.00260484
0.00280822
0.00379553
0.00159163
0.00487555
0.00532413
0.000901982
0.00324991
0.000939629
0.00180301
0.00502581
0.0023293
0.00387616
0.00147477
0.00122156
0.00640044
0.00527007
0.00156743
0.000916337
0.00361753
0.00265512
0.0011873
0.00105272
0.00408287
0.00677617
0.00382619
0.00397885
0.000750804
0.00693618
0.000861494
0.000355285
0.0048829
0.00240128
0.00402265
0.00326813
0.000859967
0.00275687
0.000761885
0.00316213
0.00415114
0.000501285
0.0010267
0.00506484
0.00229501
0.00503317
0.0062628
0.00125429
0.00319048
0.000734089
0.00351704
0.00595073
0.00260374
0.00640221
0.00462137
0.00501389
0.00449802
0.00271044
0.00201102
0.00139997
0.00423593
0.00104292
0.00517893
0.00638628
0.00214076
0.00122711
0.000800497
0.000834668
0.00189724
0.00193023
0.00102552
0.000887741
0.000826116
0.000814294
0.00291826
0.0029915
0.00388936
0.001354
0.0050057
0.00261484
0.00307756
0.00128064
0.000501912
0.00348141
0.00288853
0.0034754
0.00422307
0.00334631
0.00349943
0.00572258
0.00439869
0.00248184
0.00282891
0.0026308
0.00518366
0.00285811
0.00151607
0.000733165
0.00414227
0.000556488
0.00744383
0.00277962
0.00684216
0.00438455
0.000865248
0.00268041
0.0010992
0.00359004
0.00337444
0.00319485
0.00431024
0.0045616
0.00404814
0.00312137
0.0118473
0.00723186
0.000752726
0.00284334
0.00117301
0.00277718
0.00106713
0.00542665
0.004448
0.00331859
0.00377352
0.00285868
0.000931571
0.00615753
0.00411657
0.0011953
0.00246717
0.00243078
0.00248881
0.00243945
0.00221568
0.00205385
0.00473162
0.0073653
0.00629545
0.00190788
0.00141891
0.00444517
0.000487264
0.00688584
0.00169818
0.00660168
0.00589378
0.00175779
0.00435094
0.00635563
0.000913807
0.00742105
0.00401331
0.00134034
0.00370955
0.00658258
0.00123079
0.00651259
0.00725034
0.00103844
0.00266727
0.00285704
0.000723895
0.00704391
0.00184886
0.00126442
0.00161888
0.000898759
0.00113535
0.00425073
0.0058247
0.00279
0.00565302
0.00174078
0.00283938
0.00483084
0.00550835
0.00348112
0.00114981
0.00294799
0.00418137
0.00314063
0.00338615
0.00241281
0.00738817
0.00209993
0.00107043
0.00356634
0.00319643
0.00444605
0.00406482
0.00277713
0.0043233
0.00214745
0.00316029
0.000590931
0.00380322
0.00703241
0.000944861
0.00286875
0.000648005
0.000952014
0.00644793
0.00327186
0.00116598
0.00309252
0.000652302
0.00136937
0.000561392
0.00135951
0.000622756
0.00301869
0.00141016
0.00151749
0.000517436
0.00110324
0.00283329
0.00061942
0.000657223
0.00256919
0.0003192
0.00116871
0.00444348
0.0032776
0.00130532
0.000898089
0.00709396
0.0036149
0.000936291
0.000705782
0.00104457
0.00122646
0.00150391
0.000771651
0.00273453
0.00358447
0.00420409
0.00663844
0.00303907
0.00616001
0.000965121
0.00291809
0.00425921
0.000645524
0.00371793
0.00226802
0.00410855
0.00579564
0.00309979
0.00408914
0.00175494
0.00609506
0.00166172
0.000586645
0.00455033
0.00602485
0.00320128
0.00471502
0.000978352
0.00401524
0.00510049
0.0058133
0.000539814
0.00589391
0.00333181
0.0062544
0.00159885
0.00300905
0.00423247
0.00561894
0.00485644
0.00149466
0.00345702
0.00250368
0.00731759
0.00670069
0.00645265
0.00480283
0.00435709
0.00346044
0.0057442
0.00327255
0.00354681
0.00226323
0.00119962
0.0010502
0.00305793
0.00168456
0.0041009
0.00259396
0.00345153
0.00368836
0.00611737
0.00313421
0.00422888
0.00601242
0.0020735
0.00447022
0.00299021
0.00100941
0.00466268
0.00266747
0.00111617
0.00346857
0.00107691
0.00178362
0.00114406
0.000322692
0.00270821
0.00492715
0.00202884
0.000433612
0.00259186
0.0068092
0.00578582
0.0048026
0.00322945
0.00431533
0.00686159
0.00682972
0.00348592
0.00270883
0.00719792
0.00636222
0.00709786
0.00496246
0.00273226
0.0016559
0.00291495
0.00585815
0.00320571
0.000897016
0.0049883
0.00563884
0.00379254
0.00057897
0.000588298
0.0037487
0.00539701
0.0044297
0.00282873
0.00426108
0.000884908
0.001644
0.00465091
0.00397402
0.00544616
0.00333025
0.00172212
0.00450335
0.00316545
0.00339144
0.00123304
0.00192822
0.0014354
0.000895988
0.000220734
0.0020795
0.00188728
0.00382228
0.00373806
0.00326668
0.00318949
0.00529834
0.00419583
0.000463088
0.00609934
0.00175432
0.00070301
0.0032464
0.00291834
0.000737049
0.00198015
0.00387277
0.00374638
0.00710238
0.00289388
0.00104788
0.00374775
0.00143114
0.00723359
0.00250036
0.000716287
0.000814965
0.00315704
0.00289768
0.00101612
0.00437264
0.000650575
0.000568055
0.00116818
0.0074196
0.00641068
0.000304604
0.00550065
0.000498139
0.0018558
0.00299598
0.00104157
0.00113085
0.00581811
0.00696337
0.000927534
0.00584797
0.00562451
0.00456278
0.00612562
0.00421311
0.00345875
0.00202449
0.00526821
0.000347748
0.00304464
0.00358659
0.00365668
0.000299059
0.00402783
0.000542679
0.00453192
0.00289168
0.00348676
0.00105067
0.0055907
0.00408278
0.00461693
0.000945516
0.00177034
0.00174738
0.00127371
0.00262874
0.00589782
0.000768149
0.00323845
0.00314734
0.0032778
0.00436134
0.0030097
0.00378832
0.00717916
0.000354493
0.00120777
0.00420321
0.0045749
0.00329243
0.00366094
0.00265132
0.00264035
0.00434964
0.00220893
0.00416017
0.00460527
0.00409148
0.00154788
0.00434499
0.00422387
0.00433238
0.00338797
0.0067514
0.00536813
0.00456747
0.00273573
0.0039835
0.0026893
0.00252291
0.00345032
0.000776778
0.0046338
0.00256113
0.00159795
0.00116608
0.00146766
0.00353783
0.00726679
0.00174314
0.000843072
0.00390882
0.000975098
0.00394723
0.0069003
0.00264316
0.00170772
0.00376351
0.00406814
0.0070325
0.00460798
0.000338782
0.00458487
0.00624649
0.00230097
0.000496506
0.00049521
0.00332388
0.00028566
0.00151167
0.00112389
0.00220971
0.001243
0.000504285
0.00452017
0.000762064
0.00383001
0.00478822
0.00791309
0.000480223
0.00198961
0.00657909
0.00543498
0.000975799
0.00377804
0.000479888
0.00482434
0.00286433
0.00393186
0.00286578
0.000616613
0.00712794
0.00310741
0.00277803
0.00519382
0.00362667
0.00535092
0.00279189
0.000444719
0.000450372
0.000765092
0.0013678
0.00123959
0.00555585
0.00584783
0.00479918
0.00358868
0.00665087
0.00135773
0.00698518
0.000845523
0.00413995
0.00620825
0.00547578
0.00467235
0.00630692
0.0031777
0.0029176
0.00720084
0.00304414
0.00084837
0.00494503
0.000978339
0.000911291
0.00616618
0.000312779
0.000536488
0.00271258
0.00286434
0.00352986
0.00118536
0.00464767
0.00189224
0.00114479
0.00506746
0.00155328
0.00691916
0.00192952
0.00392829
0.00221477
0.00211958
0.000867885
0.00332799
0.00369704
0.000635096
0.00121579
0.00188768
0.00144028
0.00566125
0.00197463
0.00393733
0.0017698
0.00314696
0.00612341
0.00124418
0.00257899
0.00229208
0.00646591
0.000548597
0.0007964
0.00053097
0.00538304
0.00382469
0.000825708
0.000531737
0.00192397
0.00361396
0.00248671
0.00100005
0.000634181
0.0016516
0.00465925
0.00560116
0.00422729
0.00458864
0.0039904
0.000537295
0.00489465
0.00160853
0.0030906
0.00651229
0.00255968
0.00253872
0.00465355
0.00385342
0.00495065
0.00227242
0.00209598
0.00468838
0.00584953
0.00218703
0.00294544
0.00272934
0.00191876
0.00214127
0.00354252
0.00574584
0.00554683
0.00505784
0.000730692
0.00344532
0.000903878
0.00206183
0.00356154
0.00474266
0.0031903
0.00703671
0.00241782
0.00747111
0.00193599
0.00232723
0.00358894
0.00407925
0.00234641
0.00333938
0.00240178