/*--------------------------------*- C++ -*----------------------------------*\
| =========                 |                                                 |
| \\      /  F ield         | OpenFOAM: The Open Source CFD Toolbox           |
|  \\    /   O peration     | Version:  2506                                  |
|   \\  /    A nd           | Website:  www.openfoam.com                      |
|    \\/     M anipulation  |                                                 |
\*---------------------------------------------------------------------------*/
FoamFile
{
    version     2.0;
    format      ascii;
    arch        "LSB;label=32;scalar=64";
    class       volScalarField;
    location    "0.075283";
    object      omega;
}
// * * * * * * * * * * * * * * * * * * * * * * * * * * * * * * * * * * * * * //

dimensions      [0 0 -1 0 0 0 0];

internalField   nonuniform List<scalar> 
47425
(
59.3555
67.0383
71.1433
159.486
144.892
70.3085
96.9843
100.201
49.394
581.82
135.379
43.7186
72.4034
78.709
95.2643
87.1092
67.9771
47.383
1364.03
196.945
83.7303
44.1525
103.176
62.3608
44.9527
43.4231
76.9868
689.643
69.5016
54.7118
42.9642
44.4061
47.7433
68.0529
55.5339
66.0816
43.7994
67.5584
65.51
73.875
70.8161
122.177
208.252
144.994
1884.18
102.316
94.8002
77.6015
78.1075
46.5856
570.494
234.208
49.0086
688.036
111.615
122.284
44.3934
57.891
78.3668
60.664
884.804
1208
843.666
43.6121
49.3523
44.3663
61.4087
87.3877
744.078
44.0836
77.8072
52.105
48.7416
89.8193
604.099
49.4036
854.142
80.316
1336.33
275.622
621.291
64.663
42.7917
46.9238
56.806
80.9593
54.0627
53.5276
128.172
401.773
43.7386
75.4791
41.2494
113.928
146.306
193.597
47.0991
52.7589
87.566
77.6381
60.0968
91.8462
51.8726
96.5488
49.6318
52.0952
51.117
92.9887
73.5394
43.9726
336.189
61.8765
74.0138
154.23
43.4575
878.141
42.6949
227.085
77.0071
62.0443
79.1142
48.5448
58.0982
62.8913
95.7832
58.0162
84.4014
49.1901
104.603
41.4597
44.6177
94.0553
124.149
118.141
110.676
68.0253
47.4444
61.3662
68.3747
96.0557
70.9428
128.713
69.784
93.3045
51.2522
49.3287
117.656
62.6888
148.876
72.3637
93.741
503.829
48.7557
691.839
46.0158
83.2586
59.117
887.821
90.4258
70.6349
43.7363
42.8581
49.4015
45.9362
426.195
810.83
45.46
609.65
105.616
727.807
671.38
84.168
73.8615
45.4657
70.5653
65.6753
725.297
69.5681
52.3005
42.7904
989.407
48.4308
59.7779
45.3108
45.9389
48.3842
56.2638
75.2814
148.141
56.8629
47.9246
71.4742
82.4751
77.0217
45.4402
41.9109
61.869
71.1368
42.9371
83.0479
65.4643
122.84
69.6064
42.3278
48.9651
158.461
52.8546
42.1091
86.6006
48.4399
62.7887
65.5048
47.2046
92.8564
63.8188
63.4295
76.3849
255.085
46.3083
92.9259
290.077
119.768
136.574
95.8264
166.222
244.495
45.1595
128.437
47.8595
60.8384
71.8953
71.4207
101.337
49.3224
163.808
91.2849
335.647
110.288
279.804
180.051
82.8113
59.5779
41.5264
101.04
44.3375
49.4523
68.0768
60.6015
42.6636
76.6347
41.6021
225.6
66.4335
49.2833
91.023
41.7707
44.8377
119.037
93.6138
48.3484
123.737
47.2065
78.2317
134.29
72.5132
88.7014
43.3603
72.6669
62.6351
81.3506
79.4345
244.856
321.33
48.5197
229.747
177.905
230.547
110.412
304.425
182.371
922.891
58.7332
888.681
121.786
78.8672
84.1443
103.128
90.1951
89.3996
44.7519
628.29
43.3217
50.3438
56.1111
67.06
96.4898
109.967
46.1544
64.9372
55.2617
85.8527
43.2294
84.255
59.8714
833.146
1017.92
657.938
41.6025
47.7659
42.9667
98.8142
681.848
85.437
115.091
283.963
72.1149
103.607
121.311
92.7082
449.247
247.161
43.4129
59.7006
46.8631
80.0491
42.8798
77.3508
62.9136
52.3914
71.2801
83.1397
728.664
55.1272
73.7808
129.126
41.8433
725.663
49.5463
45.2388
52.5584
44.5672
44.9826
45.2956
51.9128
51.2526
49.9422
59.0267
46.4406
82.9489
81.8651
45.498
44.6672
61.6188
46.4717
46.5518
45.9656
79.639
42.6881
47.566
93.3997
53.6755
60.3595
76.1603
93.8165
47.8768
48.1942
129.601
48.2153
66.3818
43.855
128.267
935.366
77.4656
42.8962
200.232
42.9414
106.065
93.0286
72.5499
43.9792
63.5007
43.7549
42.1061
73.7854
84.5377
82.8567
82.5212
52.1827
48.7483
81.4015
47.9404
46.1988
79.1782
56.7202
64.9597
48.0758
61.5535
87.2875
68.2807
48.5842
482.817
44.4832
434.436
68.4309
104.002
101.103
46.3315
144.366
45.59
92.4943
45.9595
493.425
363.854
42.4612
49.4392
79.2921
84.9023
81.9292
73.6012
80.1784
88.306
66.172
45.8628
100.003
70.4393
47.8602
92.6187
77.3373
51.862
146.028
1217.34
45.1775
282.275
1006.08
88.496
1031.3
709.942
46.9154
79.2785
74.9441
78.1415
646.047
85.4153
49.2463
48.1434
74.1673
74.5803
79.2365
79.4677
493.644
714.068
155.298
65.5409
72.2081
125.183
57.5188
43.1885
68.411
42.7225
83.9821
75.8097
132.705
69.1908
49.3502
79.9296
59.236
75.9868
42.7909
64.3554
66.7227
66.6386
63.5366
108.577
117.805
61.4807
81.9336
42.7204
552.603
129.896
75.2619
46.3432
132.318
243.674
46.5426
42.2206
46.6622
47.2999
67.2877
48.9102
103.464
83.9007
47.3775
55.0612
139.845
98.8323
46.5268
49.6139
56.8313
53.5129
48.913
51.0453
43.1094
68.7189
59.2463
109.574
61.2235
45.5171
42.8969
42.6673
73.0222
125.228
43.8816
41.5894
55.8081
59.0788
57.6721
58.8138
68.1299
71.6424
51.316
76.9246
100.902
428.978
60.6384
68.5084
52.519
49.3451
135.214
133.158
74.863
50.4146
78.8514
106.617
46.3888
144.368
48.4578
261.937
47.1108
50.2731
58.0961
129.053
40.878
71.8139
72.6501
63.8805
42.5098
51.3268
1117.22
62.4168
143.896
44.9323
100.67
46.2701
58.5495
85.6594
72.5785
69.1675
44.5272
389.974
54.5823
58.5551
55.6423
47.7279
43.5452
57.3663
119.854
48.3181
64.4918
67.0837
42.8311
270.73
44.0515
63.6845
473.23
70.7487
41.9624
334.333
589.9
42.9812
643.199
674.805
69.9164
46.5989
51.6207
43.7293
84.9802
86.7235
698.928
43.4517
124.194
48.837
117.613
56.1205
85.3083
66.1597
479.326
304.259
51.4123
93.5248
100.925
84.0001
120.188
123.515
47.7192
96.622
132.906
98.6511
67.4407
138.494
50.8987
47.5164
139.18
92.203
77.3135
117.654
99.4862
67.7013
73.4177
60.8548
53.0949
67.624
46.5759
48.3049
1300.64
62.0496
78.4823
1013.55
986.461
42.107
75.951
1592.79
166.279
94.1511
302.401
119.462
763.615
59.283
47.9298
60.0457
175.844
113.729
112.841
45.9431
117.058
67.1442
82.5397
47.9649
78.7194
57.9062
461.42
712.567
120.004
48.5844
84.8633
42.5045
109.473
47.4196
58.21
63.5
65.0543
44.0231
173.009
75.503
47.2765
66.3812
183.452
687.33
236.911
85.2411
42.5107
74.2291
42.8297
707.075
69.4312
665.677
82.6567
112.896
66.5575
67.9117
57.9904
87.0878
53.9324
87.8281
56.8454
205.639
91.2013
49.2336
72.5685
88.6892
474.586
66.5641
200.912
69.5202
48.6641
43.2495
138.844
79.5182
72.4695
45.9303
62.358
67.745
71.2471
80.271
78.8354
64.4585
125.999
196.954
70.4105
98.2719
67.0716
111.34
90.0941
47.8005
152.182
61.3248
77.0128
77.1467
43.8053
297.38
397.924
93.4947
65.9173
46.0714
90.0006
55.6286
133.381
43.2328
268.234
79.3498
43.6487
75.9638
45.9622
58.7472
69.0054
49.4654
88.0829
41.4053
45.3054
48.2617
164.912
40.9479
345.909
269.626
267.865
382.765
77.4531
223.509
58.8689
45.7961
143.312
311.831
406.574
104.436
62.3342
129.27
113.453
166.257
126.259
93.3899
54.2483
69.8518
104.421
111.605
55.4888
80.0266
307.964
56.8526
62.7053
153.541
118.761
114.915
184.823
730.819
458.982
220.125
242.99
80.6895
118.031
43.9429
45.7356
70.2855
429.691
173.223
70.0832
71.7519
42.1601
371.208
420.449
41.8937
167.001
88.5085
41.7796
163.478
41.6705
42.939
71.9524
71.3112
83.1766
47.2387
42.0208
60.4941
68.0065
66.6143
136.516
106.746
42.5926
240.592
47.7884
46.4812
47.0641
191.876
77.973
212.662
118.616
54.194
43.0054
67.6757
1423.94
70.5765
81.2872
69.6554
63.9984
61.1337
112.081
117.322
127.943
300.003
97.6968
813.708
49.4171
65.1286
56.4252
64.4884
44.9187
163.661
123.414
44.0485
282.791
93.1359
71.6677
234.722
78.7046
54.6768
69.6402
68.6826
68.4437
111.095
318.734
65.7865
74.1441
205.121
218.452
665.703
213.153
87.3632
169.164
44.561
46.8528
108.055
184.57
85.7332
82.1591
90.5637
102.37
47.9112
67.9253
101.842
98.1204
89.09
355.918
473.237
91.4304
145.477
183.973
644.455
374.638
199.464
91.5784
67.1553
96.5894
91.4925
251.987
45.6407
47.5741
96.4888
375.067
119.291
77.8123
96.8991
53.3777
108.159
125.535
78.6073
526.444
53.7834
65.1573
131.331
97.2572
65.422
66.1365
104.734
105.792
88.5415
57.0756
122.826
44.3067
44.3995
44.5629
78.8061
57.3744
148.866
52.2609
213.138
283.015
254.231
99.2307
83.7015
44.7043
70.3027
113.415
487.351
252.629
835.818
44.8315
57.7445
54.4443
313.006
87.8924
325.51
236.049
230.133
131.729
213.787
89.6504
85.3298
72.3389
45.9707
126.676
66.9516
75.303
261.587
70.5649
68.6815
50.8586
266.602
391.039
151.952
208.098
653.503
189.999
89.8703
67.1858
88.9241
103.197
182.543
186.38
394.604
45.7021
58.28
71.8107
47.8173
62.1984
100.281
94.7759
54.3426
122.636
52.7483
75.5618
50.6155
47.2952
122.719
67.3916
113.233
43.9953
44.7909
160.414
46.0292
98.0513
103.711
43.7369
62.4567
98.2788
79.3373
68.5775
79.4887
496.002
182.927
123.304
106.097
1855.26
997.345
618.807
449.556
100.61
49.2646
1225.67
408.511
53.2486
62.7003
105.7
86.4732
396.851
137.203
44.5807
112.1
58.685
49.6887
201.227
960.087
137.558
1219.88
150.66
249.723
662.017
56.918
75.7914
133.001
338.081
91.0117
45.2404
45.6072
752.354
114.792
373.108
73.0041
159.944
48.0656
52.9134
528.517
548.382
81.1691
51.9327
76.4111
558.964
43.4212
51.6162
427.086
539.226
72.5943
43.3296
1040.84
686.25
587.472
98.8473
298.131
521.158
602.898
79.3862
86.4153
108.817
64.1457
106.41
524.765
1309.47
64.2333
60.2681
58.7257
51.8189
46.5434
81.0148
124.1
65.5807
49.5561
48.2934
96.4502
384.887
1207.02
50.8406
225.958
105.445
71.889
164.367
57.2796
89.7137
76.0242
45.7154
197.419
53.3292
531.529
43.1718
785.319
438.553
644.051
201.598
102.671
62.0619
101.868
68.6802
221.581
1453.21
103.552
396.113
176.003
495.945
161.741
751.913
616.848
90.4651
73.6455
1694.63
88.5392
48.8484
72.9767
648.546
1120.39
79.0786
52.1185
484.494
75.9963
643.033
763.352
107.22
112.05
833.96
102.643
44.0255
622.102
51.1942
459.044
987.105
42.9028
69.5194
83.5275
56.503
122.197
100.941
42.1024
120.821
89.0124
117.312
57.5951
42.6373
203.019
228.477
582.435
50.5959
93.4622
234.642
44.971
849.239
85.4739
111.038
150.753
454.692
86.1949
337.454
180.995
146.501
56.8417
490.225
223.323
266.55
88.3798
162.944
62.4415
76.0309
73.3687
351.863
214.369
111.82
718.614
150.101
109.31
255.472
121.553
141.746
699.661
287.718
67.0803
154.388
83.8661
148.415
309.86
692.369
58.2449
45.2295
62.3945
467.372
63.5151
293.159
57.911
62.3112
47.6547
155.323
54.3504
204.357
313.02
53.6985
59.9714
91.4575
79.3768
965.549
413.074
115.885
753.895
351.294
121.981
234.126
64.2452
56.4046
883.297
56.3768
350.077
375.385
44.791
58.4107
109.884
96.275
56.2586
70.8163
159.647
71.7049
77.5404
66.0124
80.2918
236.645
66.1965
188.475
153.24
226.449
55.4826
726.87
441.975
53.7247
588.195
257.284
56.7452
104.211
616.265
215.468
45.8735
180.499
486.649
203.665
542.065
56.9457
583.078
117.988
54.6552
68.99
107.199
188.48
119.492
65.0798
230.733
51.0433
229.708
105.808
1307.83
141.904
80.2672
117.355
268.999
55.0963
297.86
110.782
107.287
577.821
78.2734
78.5465
1141.15
43.0238
102.272
370.699
61.9884
302.474
498.372
149.812
69.6085
82.842
938.88
237.898
504.122
255.512
77.3633
69.8171
99.0233
686.335
675.335
309.632
87.9418
48.2484
85.2611
86.27
129.296
328.497
92.4899
55.4633
62.2858
61.1092
44.4587
85.0363
43.5117
46.8156
119.783
79.0992
45.5583
127.196
235.198
60.1278
47.3438
129.291
64.2138
48.1055
54.4481
98.7876
93.0967
49.2904
96.9016
520.245
87.5662
48.5179
54.2607
43.1007
250.397
66.4105
52.714
632.79
502.346
288.601
47.3089
615.056
147.243
65.4057
936.93
90.5929
918.159
90.3388
66.5493
81.4649
66.7564
44.1942
81.8799
83.2517
90.3564
112.99
88.4682
102.657
165.741
79.5734
82.0452
432.907
86.5122
1434.04
70.6257
700.114
46.095
117.364
175.544
51.6407
67.6092
189.864
42.3619
493.554
332.371
1141.42
50.362
616.237
59.198
107.886
178.721
58.9425
592.208
89.2364
294.764
73.7645
752.77
694.908
79.0914
42.8936
457.294
67.6061
455.723
85.0787
94.749
69.3897
72.0836
55.9532
43.9565
88.4112
295.35
75.1721
176.505
82.0311
86.8899
41.2618
154.739
371.379
89.0044
320.101
127.23
67.6067
119.039
77.7332
73.3417
55.1126
148.564
130.221
48.5681
84.7858
82.3935
66.382
92.6682
379.885
350.213
79.6576
88.3941
328.284
86.7246
52.0369
63.8874
47.4731
163.488
164.699
203.932
104.431
69.036
74.0971
63.9408
56.8387
58.1696
58.0252
485.601
129.822
662.859
516.888
631.967
58.0457
67.5198
73.1405
71.0581
47.6085
327.476
81.2312
46.3592
77.4167
111.66
77.3125
288.272
76.1021
155.889
116.053
95.6474
49.2389
69.7676
87.8581
86.4915
67.4419
111.096
97.1547
178.514
86.2201
68.9091
78.5886
148.485
167.614
64.7777
78.9402
132.991
95.7526
168.505
46.7544
56.5218
134.453
68.3424
53.5022
74.9731
43.8068
49.1205
88.3488
73.2337
377.272
71.1661
88.6662
50.1016
69.5581
616.098
78.3197
84.1432
59.7259
60.1255
86.4864
85.029
927.274
106.917
408.055
50.8302
59.5027
70.2261
41.7495
48.1825
108.044
79.8553
47.9028
44.7452
307.853
106.798
513.33
118.075
255.549
104.331
78.3029
109.075
533.125
180.394
94.4542
77.6598
933.663
63.7071
79.0044
84.8585
81.2944
62.553
928.406
66.3568
89.0425
46.7627
121.794
54.5063
896.707
992.816
66.4615
53.0587
43.1317
89.0591
91.7599
60.3255
1156.62
709.05
63.9775
136.177
472.316
64.0522
186.54
123.155
43.1269
61.2698
46.426
73.1786
206.201
84.2497
76.7312
44.4192
55.3798
73.9769
48.6131
331.257
63.4586
143.297
170.574
443.499
334.346
100.69
134.642
76.6026
133.155
116.927
43.1162
599.565
339.211
131.227
90.4061
106.053
88.7834
86.2818
247.451
41.4159
44.8622
62.1875
65.0116
136.045
73.4619
354.319
385.644
44.9519
131.226
43.2458
42.6285
80.2627
61.1246
62.8787
54.0467
41.7761
247.233
344.93
42.1202
63.5479
249.911
388.623
47.6104
41.9807
96.4535
178.818
916.85
92.4703
394.565
325.383
570.302
391.936
71.7111
48.8779
42.31
58.4308
949.087
56.3993
85.6804
79.6294
41.5783
657.572
1109.45
1086.81
195.108
275.692
50.2451
45.0316
53.2599
83.7589
708.328
576.013
431.848
532.742
407.331
54.1278
47.7639
847.828
47.8092
895.972
95.2423
892.909
79.4261
149.998
105.722
181.868
169.166
169.716
149.666
63.0037
88.7173
70.3539
65.1401
72.1046
66.0491
1275.52
762.625
90.8494
348.609
637.771
339.065
66.9646
45.55
601.457
491.571
514.548
43.0378
783.903
49.7574
1018.02
578.722
697.073
288.427
53.3853
61.9326
46.1721
71.1342
86.953
171.596
72.9794
84.4389
69.2954
93.4548
77.7791
45.5671
47.4826
123.283
44.8812
51.6256
77.6068
100.836
96.4897
85.886
150.739
89.7716
66.874
126.605
97.1968
89.3354
92.3741
145.579
1007.82
59.0463
331.662
69.0563
88.9668
496.793
63.7781
57.0437
46.9581
112.225
94.2166
54.1571
108.469
100.037
82.9228
46.0041
66.4865
72.529
71.0108
103.154
72.6488
97.0632
276.477
88.9421
79.3509
74.7155
109.713
77.3842
351.005
43.7375
67.3353
104.433
315.272
257.302
88.6525
100.389
931.547
228.863
185.044
89.7792
71.5391
108.396
87.4052
53.7507
128.73
77.6475
86.7378
431.428
50.4277
163.402
127.406
108.312
106.182
200.991
77.3911
57.6068
43.7264
53.0103
98.9646
79.4721
448.7
62.2502
91.8907
127.911
103.531
868.456
56.2851
110.385
105.274
269.566
398.355
143.332
43.4808
135.342
65.1906
45.2838
42.5148
550.866
99.6674
57.6069
417.648
128.717
68.1553
145.177
719.407
1122.27
181.292
71.4489
781.14
91.1294
243.244
139.925
594.867
257.517
120.019
93.6852
517.806
90.7978
66.5261
83.5321
99.1432
53.7903
62.2724
343.363
44.2242
100.449
553.512
155.18
566.51
87.9707
441.087
48.6351
1141.7
105.892
106.079
649.264
242.989
300.972
518.134
432.68
262.19
71.4883
72.8799
417.232
55.3524
84.9809
319.602
66.7735
56.9201
77.2777
163.343
70.3353
49.9206
735.263
485.023
185.245
281.975
166.353
92.5829
80.7324
80.8783
113.09
75.4844
57.2037
85.8927
63.0323
280.334
290.192
127.921
54.1842
104.808
81.049
126.214
105.065
97.2654
78.9147
280.791
58.4111
66.6158
272.939
131.259
587.634
201.422
98.5417
736.56
137.348
111.854
369.077
133.901
128.14
49.5971
524.645
42.2583
56.3799
50.3892
85.3045
67.3264
99.7463
231.484
104.709
119.551
80.1362
110.546
99.3194
42.3674
376.313
153.323
573.994
1042.6
108.54
394.251
142.244
69.3206
444.76
67.8815
60.8379
103.642
123.173
696.675
481.052
53.6834
316.319
350.931
94.1276
1932.58
403.207
152.613
360.229
61.7044
88.3915
242.857
336.859
145.669
734.79
53.2693
51.8887
154.341
50.6013
48.1253
106.157
323.232
558.774
47.6892
137.9
43.228
144.359
62.668
143.761
320.66
93.2021
312.842
59.6348
63.3982
776.224
44.1316
53.608
104.235
53.4043
122.373
249.604
46.0865
940.5
553.869
868.296
478.76
119.396
66.4699
52.9654
61.8072
85.5386
46.4074
84.8745
148.414
61.793
69.9367
658.412
45.4687
169.792
43.8039
136.214
71.4727
728.055
127.441
113.911
44.9818
128.995
150.504
48.7838
59.8792
97.4387
42.5928
196.384
96.5614
103.947
54.8107
44.8491
101.316
46.1001
126.585
446.518
44.0766
75.281
50.1208
62.7008
291.504
215.813
122.557
458.241
858.694
295.819
82.8918
432.072
323.982
651.239
74.1489
211.046
298.33
341.781
307.174
823.883
54.1902
44.3744
209.425
730.084
53.2379
433.911
119.916
452.241
79.6951
65.2791
659.031
579.125
288.361
56.8098
271.331
130.186
368.715
44.1327
200.932
63.7333
56.5572
94.3341
95.2445
288.388
102.144
63.4199
160.436
79.2945
272.077
405.722
43.2967
77.6613
53.4077
859.343
94.8561
130.698
213.771
136.572
71.0476
43.4429
90.5757
75.5198
491.983
42.8257
104.312
312.159
64.3703
49.6318
76.9733
73.4512
685.364
137.425
209.595
94.8537
73.3699
966.401
580.603
59.7088
142.497
59.878
47.7974
409.77
91.9504
537.38
56.4103
50.3619
93.9015
57.9853
46.6807
60.6606
71.0089
135.426
255.654
253.096
379.908
69.3649
71.1094
46.8597
169.913
614.296
941.676
66.9902
407.394
178.181
686.321
76.3849
346.696
109.604
173.875
129.245
80.934
256.276
76.6423
192.045
112.956
59.5197
1019.96
107.579
489.104
107.394
77.4761
108.515
160.157
69.7802
67.7748
374.231
104.447
120.672
57.3201
122.734
487.349
125.724
79.0143
157.162
46.4719
62.963
44.3318
74.4031
77.203
147.042
69.5388
92.8542
95.4208
74.4452
75.3989
63.6805
73.1976
59.9182
417.9
48.8423
106.89
48.2346
67.0424
121.641
72.7637
53.6402
77.9305
98.6834
86.2559
125.198
347.472
46.9962
181.999
442.082
158.582
156.246
50.7248
156.802
92.6181
333.516
64.4662
44.166
52.4289
169.71
54.9908
65.7927
870.2
221.829
373.231
44.3289
50.5997
191.115
81.1276
55.6353
135.04
49.1072
78.9209
53.9023
392.625
44.9827
154.64
44.9877
43.5993
75.2166
66.8296
132.021
106.063
42.3923
302.789
63.6894
66.7073
88.6293
806.429
64.9217
61.7972
124.565
62.606
57.1965
121.5
60.0637
51.5738
107.57
212.939
124.561
82.222
403.413
108.71
239.601
48.5037
182.4
63.6896
94.1843
239.029
49.3596
121.004
66.0746
82.1151
153.825
70.9686
570.013
111.484
44.4083
519.55
131.392
980.174
305.898
221.418
85.843
93.105
122.129
367.852
59.3378
447.858
92.3324
351.486
65.1715
417.54
63.1471
253.295
219.094
121.241
328.196
532.467
366.938
1111.7
537.798
373.182
467.022
456.315
324.656
42.6305
94.6457
336.255
68.8579
650.517
58.1046
510.158
620.841
117.02
99.04
75.3219
43.6078
113.566
47.1197
250.462
130.427
82.6645
187.298
84.4484
153.026
71.9655
53.9183
110.464
48.4859
217.317
47.6026
68.3854
704.978
65.3679
42.7241
103.197
63.6803
818.854
295.155
73.6585
70.4956
172.333
49.9882
85.1651
49.3731
50.371
104.12
75.5817
54.9365
62.0866
317.896
87.9707
54.0472
43.128
43.9367
45.8878
205.21
71.171
94.4385
53.4422
82.6751
97.7673
55.0642
222.73
71.9576
47.6629
59.1793
82.3097
135.231
110.649
98.655
49.8477
118.999
84.1797
51.6209
51.0489
75.5336
86.2849
101.884
67.6373
121.867
65.5914
90.2754
115.437
305.872
772.506
1114.54
120.913
60.1037
516.501
169.037
203.632
44.7262
50.8053
43.1443
89.5393
71.9406
43.2929
44.0081
44.7386
109.954
42.2005
47.4306
42.6942
59.4133
190.081
51.943
112.056
52.003
97.0045
238.509
59.3986
53.5512
65.0208
1084.08
862.231
99.8161
67.1175
68.433
59.0402
105.007
467.309
62.852
67.1959
89.9649
42.5993
94.3274
49.9747
88.0719
110.797
90.9593
61.9381
201.818
265.295
63.2406
2063.74
269.341
197.543
61.5239
84.2082
98.5766
113.658
54.2796
74.713
298.776
45.3547
189.948
632.978
104.339
122.912
617.551
63.8012
78.9419
90.7922
42.4061
115.954
406.474
91.1996
91.7383
460.839
222.859
1043
625.734
99.4029
48.1798
139.02
67.8261
186.039
151.036
565.115
49.8488
45.6593
641.454
53.0421
191.192
78.3215
102.759
659.979
767.154
50.3399
43.1386
918.071
49.9622
53.477
65.823
48.0185
80.9469
158.938
273.283
61.0529
578.277
103.291
51.6113
84.3187
721.795
78.6709
603.29
65.1646
61.5847
85.5279
84.1299
59.8852
116.342
64.6118
561.603
116.365
120.223
525.85
121.66
53.2356
719.469
115.175
104.296
84.64
175.308
106.492
79.9298
44.575
265.601
72.8559
71.7412
63.9579
125.692
84.3762
58.7974
45.5358
67.5051
144.574
72.1918
65.7797
79.9706
486.033
72.1619
71.4535
69.4096
92.4665
46.1724
63.9761
63.599
131.282
104.737
141
147.64
89.1727
465.127
63.4597
56.357
434.887
391.568
485.558
88.3965
331.625
52.0964
557.663
94.1555
300.664
95.0803
43.9047
113.86
197.446
92.8403
69.8792
43.0091
63.5173
416.526
63.7452
49.4602
53.5846
1412.6
291.368
44.493
1463.2
562.825
325.233
244.111
675.344
270.474
76.7764
269.699
87.7564
97.478
391.578
915.357
62.3093
44.2229
54.4153
486.633
45.0168
914.746
140.123
127.503
146.965
123.723
331.823
42.3384
114.519
122.032
55.8634
103.908
53.3856
119.471
2018.23
1831.58
821.41
97.3603
707.392
43.129
49.1133
62.0449
99.6599
44.2068
55.2407
43.1295
73.8999
89.5049
47.1926
54.4961
75.9196
46.5595
100.399
119.76
43.3194
114.025
119.732
43.5093
53.0239
870.428
55.858
847.315
597.689
124.347
131.294
83.5819
122.125
68.3683
51.8538
615.038
58.5134
57.1259
47.4463
50.2049
77.92
137.823
132.829
174.339
112.831
46.7401
570.148
60.8161
327.604
394.632
63.6798
425.661
83.1514
53.4073
60.8295
57.4087
62.465
46.4519
128.216
50.7961
318.887
220.17
342.422
56.7863
56.5908
82.8743
294.624
500.328
93.7026
146.56
64.3147
277.673
64.1022
179.21
426.536
83.7386
56.2506
91.6086
931.636
62.4801
59.1402
119.31
47.2418
136.779
124.151
143.456
84.3277
304.825
169.947
417.235
71.3848
279.604
427.698
311.23
53.4761
173.605
88.7046
102.071
53.6153
65.2207
62.9529
493.36
85.273
98.0611
299.957
82.2206
62.4474
96.2203
45.2476
141.685
48.2482
64.0174
163.382
103.56
78.6161
164.728
97.0026
94.9953
80.2581
125.281
44.1226
295.572
239.165
105.376
103.554
44.7443
264.265
59.5853
43.9616
84.6301
46.5768
106.858
88.5124
50.2677
55.2706
98.3111
294.667
222.031
49.6423
810.471
44.3543
97.5319
94.8208
48.1617
764.231
146.857
662.897
49.9557
67.7745
537.984
677.105
86.4685
101.144
186.627
127.983
49.0542
102.54
63.2093
144.346
81.8327
132.854
49.8203
134.5
100.091
105.531
60.6176
87.508
42.9585
59.9956
593.082
412.292
105.304
107.612
99.5372
85.6802
85.245
163.271
43.7327
49.5933
59.4585
85.6714
80.1422
66.3739
110.982
51.4533
58.0839
51.8441
71.9883
57.7815
69.2314
195.517
87.693
67.7789
964.968
77.245
64.4357
77.8262
43.7005
82.5575
205.678
45.6642
74.6844
80.7295
405.189
64.3234
63.3174
94.2488
1442.53
94.7934
156.677
117.907
64.9541
78.053
78.7548
62.256
856.425
93.6559
68.32
63.0523
42.7717
283.163
45.9303
350.784
422.63
112.119
72.6625
59.3151
117.96
87.3346
56.2181
439.711
118.833
294.608
43.1871
137.633
504.34
119.091
48.752
98.875
53.5694
499.152
56.0883
54.5616
89.0516
42.4151
60.0938
87.5467
51.4448
408.778
42.4872
383.024
45.9029
72.4397
66.6197
147.462
85.9965
124.737
112.713
573.53
110.872
117.948
74.609
44.5859
104.239
58.4579
52.745
79.9014
75.6055
62.8426
121.572
46.9035
66.1016
47.3312
297.545
86.7136
581.681
549.831
316.558
155.664
67.8148
70.4155
60.741
192.007
89.1022
43.6276
42.0421
112.207
147.523
46.0665
70.8
1030.69
129.649
65.8521
74.5204
463.787
837.923
59.1481
554.859
545.401
200.086
373.221
160.741
548.013
71.7823
216.782
739.227
74.3685
42.1365
61.4805
109.295
314.329
42.9716
44.119
70.5915
141.507
152.487
875.929
108.314
1054.48
118.438
69.1817
83.3921
76.3137
76.7876
501.463
205.879
400.738
469.342
66.4887
356.035
1099.74
65.6683
175.135
119.418
406.172
150.229
130.101
694.782
1032.56
108.773
627.902
124.76
437.611
80.6782
43.8494
151.365
800.561
694.535
62.4739
100.88
145.028
99.0896
258.21
48.5223
72.4554
963.381
370.697
345.819
72.4168
328.205
66.1667
343.02
55.6124
117.308
184.764
286.251
86.798
122.662
278.345
105.63
850.94
71.0248
59.353
399.415
46.3915
143.979
44.9665
54.683
42.9095
80.8414
431.072
436.673
320.954
58.2128
63.2994
312.693
56.9537
522.499
72.3507
53.1311
79.9081
210.137
153.844
634.898
50.2513
72.0313
63.1268
270.471
99.1325
578.063
910.331
423.72
104.579
60.0134
433.63
323.716
149.909
46.5336
61.3748
42.4256
684.366
282.298
436.282
1161.36
240.676
93.7624
78.8441
768.798
411.218
62.8617
87.495
100.914
362.773
60.5777
47.2883
88.2183
80.8223
770.69
265.847
221.995
221.501
326.648
322.306
161.166
88.8241
828.263
394.661
713.503
200.239
356.951
669.114
149.292
57.4157
107.826
58.1488
59.2308
78.9132
77.5182
134.142
288.697
84.0756
178.337
181.74
146.33
112.964
190.843
115.056
103.076
128.165
771.374
1122.37
414.243
69.3757
117.334
82.3379
244.452
588.454
156.488
574.223
80.1078
482.242
411.697
173.38
47.0773
43.1939
69.456
63.6157
709.127
95.8212
58.0326
462.182
71.6628
868.529
465.969
108
466.978
63.4726
45.1498
45.8904
42.6005
96.7737
60.3653
89.7674
128.697
72.6746
45.135
141.363
627.834
542.935
43.7306
105.54
47.9864
62.0905
56.6286
647.607
47.9159
54.3041
52.9148
103.578
45.3531
54.5997
99.3822
55.8483
58.0618
52.3515
239.305
43.7663
56.2171
135.313
408.302
331.774
63.6596
484.125
686.069
53.5592
52.2511
164.724
78.3751
333.913
71.5591
90.0193
82.3946
244.603
67.6107
90.2708
1014.48
507.89
83.3618
627.328
45.9847
46.1486
60.9999
45.213
47.0885
70.0761
53.0236
79.8223
215.709
88.5379
331.858
245.045
200.762
80.5674
43.0088
539.652
129.048
82.175
537.027
100.841
688.296
60.9351
422.87
44.2708
183.151
85.5012
224.157
46.4992
84.7421
76.4457
587.267
49.0445
42.7248
194.704
80.9649
138.308
60.5187
73.4254
91.5375
46.9603
141.67
48.0933
63.1426
145.884
93.9568
353.404
68.269
45.3306
60.8528
44.1465
51.3695
309.139
42.6148
96.2137
43.1824
218.341
113.794
49.201
109.655
110.957
56.0844
70.3572
75.6976
126.907
146.459
51.0121
48.3699
90.7132
66.4024
283.961
628.653
507.139
59.5986
44.5446
58.5499
64.7426
89.0304
932.842
236.8
62.9032
52.6018
77.537
45.8073
47.974
75.8692
153.336
203.24
513.381
351.285
56.5342
78.3127
71.8078
42.7638
219.952
71.9999
117.761
112.336
48.8949
990.704
76.7917
57.2919
70.1585
73.1493
157.948
615.429
44.6275
454.681
54.1321
730.335
125.255
532.693
69.1812
43.4428
60.3341
104.677
48.2393
48.5082
123.937
44.2459
43.504
54.4222
60.9067
238.087
52.2519
751.008
70.3138
59.9791
157.163
171.477
48.3928
395.581
958.033
741.215
476.765
432.496
54.9717
381.231
288.098
72.0629
56.9743
52.7634
659.476
89.8377
95.4848
48.1076
78.4369
278.164
775.642
159.949
85.8662
45.8408
65.0971
209.712
45.1245
55.629
618.821
452.209
232.246
769.203
73.4428
46.4099
69.7434
80.6551
1130.18
50.6348
45.6672
43.0611
265.638
46.4073
49.8324
90.2455
100.067
44.4442
112.017
45.6317
142.573
85.5534
140.62
49.5941
238.261
86.7181
111.179
160.717
109.935
207.641
48.0545
623.154
93.9471
278.102
303.059
308.312
85.4901
128.035
207.287
65.3902
44.4296
50.9514
53.3245
85.6251
570.579
115.419
45.9057
81.9792
64.8068
48.4105
119.607
61.9875
133.668
102.769
46.4126
96.9804
48.3069
78.4544
297.307
593.965
71.61
99.1492
79.8106
102.802
519.661
273.378
421.799
835.36
140.624
46.257
47.8199
43.6442
104.113
822.396
79.1945
755.203
112.953
44.2897
116.935
449.502
45.664
46.0425
55.2408
74.0785
59.7963
235.78
75.4022
90.0166
319.052
52.8972
96.3497
65.7838
128.288
194.518
50.6826
693.044
81.4371
108.587
54.696
125.238
45.6846
134.393
123.23
93.6678
90.2487
80.1088
66.1107
69.8081
49.7555
224.591
61.8621
49.869
114.388
197.665
228.542
165.281
98.1273
109.893
193.659
70.696
262.628
131.121
132.01
99.8905
103.476
136.626
72.4861
158.629
348.576
98.1792
53.0374
48.7443
271.243
88.6147
100.375
49.1644
98.7729
87.5793
48.0112
92.863
411.937
97.7066
71.1921
85.058
665.612
76.6933
88.9176
147.45
58.128
153.748
46.827
781.966
85.4745
77.7636
81.5662
54.4494
111.951
54.4968
472.69
43.1601
75.8151
661.816
59.5019
108.094
196.199
98.6873
49.2027
596.364
59.1006
44.2441
102.654
128.871
61.1743
337.927
44.4907
344.896
97.2915
43.403
69.3434
115.692
727.513
182.33
71.7152
43.6804
130.537
409.003
335.614
115.941
122.905
972.744
212.68
261.768
126.975
80.4724
101.886
59.7944
514.934
1055.52
152.996
159.422
100.197
1133.95
451.855
547.299
394.176
185.389
64.5475
50.1027
152.802
73.7494
548.952
305.676
73.8169
922.333
105.814
118.634
71.0172
50.5365
104.415
86.8552
90.1702
80.4825
149.201
184.326
874.648
57.393
119.107
640.155
614.758
182.268
175.54
61.2854
612.978
47.4604
65.8889
342.358
148.443
43.1593
330.682
424.759
72.5353
122.826
48.2785
92.7984
54.9961
80.9263
172.431
80.9115
609.599
44.0267
50.0315
85.6755
475.114
172.985
122.293
161.431
279.385
120.651
78.1679
436.577
107.305
68.4473
212.18
794.539
227.842
59.5276
353.131
160.407
93.9226
65.6225
127.898
46.9334
110.881
79.6181
73.1177
63.7386
60.0819
85.2972
43.4079
43.301
49.4743
100.245
49.8086
160.565
389.44
731.716
94.7823
88.2018
59.2819
48.3944
102.381
642.123
51.7109
142.282
71.9718
237.633
66.9629
140.694
220.158
437.497
47.7964
57.2848
278.873
52.9019
69.3642
141.047
95.965
406.461
87.0944
241.356
472.89
198.743
639.231
197.397
379.913
98.2331
168.449
146.636
53.514
490.857
141.457
83.6564
176.072
102.764
92.9808
43.4648
51.6632
49.2945
44.6089
87.7767
348.973
42.3445
952.213
109.534
350.627
113.574
381.427
1083.58
54.8433
248.442
813.872
155.496
351.773
76.647
69.8201
763.106
996.501
289.3
168.566
51.6955
464.967
103.133
632.595
52.9836
53.0972
242.324
1014.55
61.0301
84.605
50.7616
242.661
525.812
47.7374
445.1
200.851
538.015
719.632
49.5341
341.357
74.0042
649.784
305.913
199.277
428.427
263.932
513.452
346.715
229.052
82.0675
78.5083
73.9461
48.5956
53.6286
1429.47
74.2181
111.782
79.7072
80.81
141.026
1178.56
152.719
212.847
292.949
157.372
242.38
123.987
43.5481
78.9142
1058.7
639.758
306.044
192.161
251.069
88.7578
492.58
60.8444
260.015
354.429
58.042
548.779
90.1167
313.724
309.601
177.581
259.928
263.237
162.946
49.6826
133.376
60.406
559.975
72.3004
195.169
83.9749
269.277
54.624
67.0538
324.943
119.361
279.605
44.5471
1371.49
46.1338
59.0218
57.5428
54.2245
99.9068
520.498
185.748
102.361
656.394
73.5955
49.6399
56.4286
872.597
90.2763
99.1639
847.884
365.85
910.332
547.231
180.585
254.494
157.298
185.384
729.353
65.7712
441.081
141.562
66.1225
180.104
64.3044
159.248
78.5968
663.056
469.256