/*--------------------------------*- C++ -*----------------------------------*\
| =========                 |                                                 |
| \\      /  F ield         | OpenFOAM: The Open Source CFD Toolbox           |
|  \\    /   O peration     | Version:  2506                                  |
|   \\  /    A nd           | Website:  www.openfoam.com                      |
|    \\/     M anipulation  |                                                 |
\*---------------------------------------------------------------------------*/
FoamFile
{
    version     2.0;
    format      ascii;
    arch        "LSB;label=32;scalar=64";
    class       volScalarField;
    location    "0.075283";
    object      p;
}
// * * * * * * * * * * * * * * * * * * * * * * * * * * * * * * * * * * * * * //

dimensions      [0 2 -2 0 0 0 0];

internalField   nonuniform List<scalar> 
47425
(
0.254997
0.57384
0.0829999
-8.22775
-25.1562
0.0503115
-23.0092
0.0347441
11.277
-41.0681
0.024421
11.7339
-18.2344
0.0289057
-4.00193
10.4855
0.067446
22.2776
-119.365
-41.1792
0.707149
13.8942
-0.0341306
0.579589
12.6624
0.505898
0.0214045
-49.8031
0.032696
0.156576
13.9147
10.6548
11.9139
0.289218
0.0863005
0.0197265
14.6281
11.6976
5.05068
0.491241
0.794117
-4.06626
0.481492
11.6151
-42.1873
0.67386
0.0622089
11.5124
0.538855
0.315452
42.4541
-2.13188
0.193961
-37.3685
0.313334
6.81531
0.47857
0.113579
-11.0645
0.0860055
-39.2043
-37.1992
-58.2744
19.1296
11.123
1.19335
11.9952
-4.42651
-47.447
21.1663
1.84788
0.463821
-0.805005
0.87222
-50.7637
10.9624
-57.1347
0.137504
-66.8435
-25.2631
-52.6529
8.69101
19.0255
10.8425
1.12378
0.0500833
-0.819463
0.504653
-6.82557
-31.0114
13.182
0.246787
0.351648
0.0504596
0.0993591
0.279008
0.222582
0.098595
0.291929
9.80084
10.7181
19.1373
7.51165
44.1002
7.55164
-1.14171
0.733752
0.276945
0.871539
11.9872
-34.7447
11.6093
-1.5173
-0.0350404
-2.87433
31.9686
-2.46205
43.6526
6.36824
-5.68177
-0.0515443
11.9362
11.4981
-11.5089
9.45284
-3.08411
0.0703747
11.0192
0.424348
0.474017
19.8753
-1.03799
52.7728
6.30641
-3.44799
-14.4798
0.996173
-2.98197
9.46397
-2.64606
11.9762
-5.63349
4.27517
-2.79602
9.47864
11.0816
-23.9693
11.2432
4.28542
11.8658
-2.21921
34.7894
11.3162
-10.6552
19.5229
0.701042
-1.02735
-127.506
0.312794
0.120759
-4.37063
0.647525
0.373044
9.1711
-53.6029
-95.4981
11.2958
-51.4792
0.571676
-50.23
-51.7763
0.439868
11.077
16.6817
0.233535
11.9348
24.7062
-0.0020842
0.129168
0.223748
18.0723
0.656078
0.0296961
0.187054
0.255026
10.7003
8.49182
47.5488
0.244906
0.54031
11.8266
0.2614
-14.1047
12.0409
0.302818
-3.64702
12.0227
0.450613
-4.39731
0.263388
0.203183
-0.532989
1.29613
-3.36567
7.02684
0.229968
0.0264794
-2.87299
10.5937
10.9642
0.275294
-3.81192
11.0434
0.616213
-0.438619
-4.76766
0.144933
-29.5503
19.6288
11.8248
-27.7004
-6.42057
1.96183
-0.164102
0.5918
-25.5359
0.313812
-4.54827
-6.96775
-11.4593
0.471766
0.0950378
-0.438577
11.655
0.0805161
10.7967
-30.5354
0.397024
-27.6429
0.0919419
0.00913968
0.276178
0.339473
-8.07916
6.54011
10.9731
0.232929
10.8632
0.486428
0.0867313
0.611807
-23.4941
0.00470634
12.0021
0.218361
0.0489072
13.2245
0.138381
5.8528
10.9
0.163069
11.5473
8.17027
8.07919
-13.8901
-0.301571
0.0562443
-13.7181
0.30441
8.13194
8.62281
-27.7613
-30.3019
8.54877
-25.3409
8.75863
-26.5306
32.3278
-28.755
30.3834
-36.0732
0.381981
-41.0056
0.417588
0.341006
-5.5594
0.38521
0.0411034
0.881784
-2.62499
53.4175
18.0967
11.1565
0.112828
0.0736312
9.86515
-6.52756
8.91639
11.3711
-11.8543
0.438041
0.504281
0.0880939
0.0177024
-48.3239
-61.496
32.6744
0.262021
0.372298
9.69383
8.97405
45.202
0.0137889
-0.0175174
-20.0743
0.340896
0.357702
0.146916
0.121817
-34.5027
-19.1241
10.3401
9.94888
0.0434681
0.165522
-0.0327535
10.2055
0.429157
0.34855
0.0938931
-8.45575
-55.4115
3.17275
0.0710709
11.8627
-0.00610064
-54.5274
11.613
0.384493
0.583987
10.2584
10.0362
0.684267
11.8783
0.364193
-0.000729332
0.145213
14.3688
0.0423025
0.191161
10.5524
5.73963
10.6511
11.5066
10.9302
-3.82211
0.326707
18.5787
11.3254
11.2583
17.1841
-6.11349
0.606854
0.0775017
6.8848
-0.873355
0.0781023
11.2824
11.5656
8.31732
0.0568435
-44.4201
-0.916997
9.44159
11.0973
9.27864
-5.20294
10.5903
10.9653
14.2291
10.8843
9.222
0.615473
11.4469
0.693752
11.4704
0.0642293
8.60482
11.9161
0.0648642
4.69783
6.11206
0.0652017
5.39388
0.374927
5.28168
11.9117
0.0385601
-14.908
0.154635
-32.6332
0.263444
-37.0443
0.17451
0.951335
0.193175
0.0658859
0.163982
-0.0354125
0.0762125
6.0985
-55.8679
55.3558
0.51997
5.63982
2.85435
1.32784
0.42934
0.0341151
0.305001
0.130855
0.442144
0.651878
1.26351
0.0276717
0.00895389
-9.52555
-6.81616
-3.29172
14.6023
-54.967
-0.66197
24.7912
-54.344
0.999849
-56.4567
-35.2344
0.540331
-1.71325
-0.696568
-4.76873
-57.8822
0.199708
0.536731
0.333762
-5.33938
-3.00293
0.433217
0.612438
-28.6002
-55.9738
-28.7907
11.7563
17.2601
-4.63273
0.551283
-0.716539
-15.0195
-0.505869
11.7251
11.9859
12.0054
5.64035
11.92
0.566223
9.21208
0.140182
-2.61858
0.45839
0.332759
11.792
11.9089
10.7872
6.70021
9.94189
0.416088
-1.68973
-28.6374
10.8596
-14.9795
11.9468
-2.90572
-10.8489
11.67
0.464801
10.1251
11.2875
10.8745
7.98058
0.391736
-1.75426
10.2518
0.416152
6.08418
19.6646
0.540454
12.7348
10.7836
14.2283
0.52384
0.191638
0.763978
0.0111375
2.42214
0.00187241
0.000721138
0.454965
0.658149
-1.71049
0.0641383
0.0672871
22.2686
-0.00172588
0.915358
0.76984
0.533253
0.0986477
0.192846
9.96103
6.34418
11.0536
11.0557
42.6414
0.122898
0.0222201
11.2915
11.5026
-21.9495
-25.6998
0.247805
0.729254
0.707187
-12.1652
10.6037
-29.0261
11.9104
-31.2439
25.4853
18.4061
0.0611134
-22.9592
0.237857
0.493946
0.229167
1.35097
-0.0153203
0.452493
-55.7993
0.162823
-0.019391
0.246493
-20.2292
0.437015
0.0748072
-20.5911
-16.8471
0.171166
0.16817
-30.4576
0.281231
-1.69894
0.0820917
0.371129
0.327839
-12.2105
-13.9171
18.2627
0.888825
0.624971
0.0288563
-29.3303
17.2194
1.47305
-30.1961
0.103822
0.175482
-30.4281
-42.707
12.5941
-30.1952
-30.179
0.0800141
11.8643
0.105345
15.7443
10.8397
-0.0172732
-45.3579
10.328
0.00421762
0.349168
-18.0903
-11.4017
11.8991
5.37534
-51.6067
-27.3925
0.710497
0.263525
-0.290311
1.46959
0.339191
0.401027
10.8377
6.96753
11.907
-3.23519
11.0496
-30.2417
4.66672
2.81037
-32.0453
9.58188
0.349461
6.32007
9.05601
0.384511
11.3094
-4.03501
28.067
11.0703
-2.26395
0.781164
-79.002
8.13478
-13.8304
-44.4292
-45.2393
0.184306
0.630765
-47.4233
0.0161429
2.57386
-30.0927
11.3642
-41.1524
0.0194842
0.177276
11.1776
-38.0463
12.0115
12.0815
0.441108
0.163744
0.534648
-0.00789564
0.404951
0.750787
-0.0878574
-34.1805
-28.1363
0.923986
13.1967
0.134544
16.9284
10.3835
11.9844
11.9877
12.0476
11.9752
18.3411
1.94448
11.9173
8.54899
-6.0804
0.0555173
-59.0325
-31.6136
-0.00244703
17.3435
3.57153
0.104784
-59.9784
0.0139762
-52.7795
0.314198
-15.7317
-15.9943
0.533611
12.3937
8.49321
24.8109
0.10048
0.372101
-0.148572
-19.8888
11.8451
-18.8959
-0.225611
-57.2428
-14.2424
-0.234537
-16.8684
11.9365
0.592817
4.75422
-0.081996
-18.0901
11.8115
10.4846
-17.4243
0.111147
-0.274397
-0.0486251
0.401026
27.348
25.8736
14.8574
14.3126
0.0241638
-0.0433685
1.03652
0.0319754
-2.4962
0.0271793
0.471057
0.0175114
0.562436
29.4701
-13.6318
-0.055946
10.7719
0.46232
0.50909
0.498298
-0.0174586
-4.59565
-26.9058
0.479069
0.154498
-0.00790379
0.598258
13.9527
0.0684686
-0.597462
0.436994
0.433359
0.556524
17.1882
34.2416
0.579572
-29.5596
-12.3535
-35.9609
-29.5112
-0.183978
-7.02355
3.36931
-0.484745
41.0769
-30.2456
53.5252
-13.2861
0.0190951
-22.6259
0.261815
55.571
0.922734
-0.65668
0.801643
0.138796
-13.4231
0.707706
0.657881
0.473208
-30.4475
24.4873
11.2277
11.499
43.4056
39.7301
-18.057
-47.9131
-30.1497
44.8369
41.8057
11.3865
0.36128
16.8643
0.282876
5.42872
-30.3692
0.240839
4.66579
5.92705
0.296841
-31.0545
-30.8447
0.0930498
4.76836
0.544114
0.3262
5.98778
0.273697
15.0197
-6.89363e-05
0.455013
30.4313
0.0556892
0.0598371
0.0957005
0.247389
0.241476
50.4337
-21.5576
0.0613411
3.92168
0.465108
14.7104
15.1781
-17.5567
0.281137
-29.0602
-19.0147
5.14095
1.34829
22.7917
-44.7379
0.00335562
-0.0118108
-7.84508
0.500575
11.567
3.16837
-0.00585546
12.0772
-32.8066
-19.5076
-45.9413
12.047
25.309
0.104874
-12.8951
16.4536
-18.3687
-0.0523179
17.9785
-36.2872
-9.31422
-19.9218
-30.3903
-18.4556
-0.486804
0.0377261
-14.4611
-0.0202881
-19.7806
-28.7485
-0.0131696
-21.6869
0.512451
0.608073
-40.0013
0.547122
0.234295
15.2586
14.7566
11.0139
-26.2657
-8.28653
0.669181
-13.0077
46.4102
-1.47905
13.1021
0.727271
-1.15789
0.579106
0.535556
-31.8375
-57.127
-11.155
-1.20191
-20.3452
-21.5022
-31.3619
5.54984
0.48533
11.6273
11.8169
0.60626
-13.8434
15.576
22.5863
11.687
-29.3493
-19.1963
2.07286
0.332901
0.327419
0.0550818
31.6379
11.3978
-21.8744
0.0562931
1.84027
11.5047
11.489
11.3886
11.1967
11.7219
-21.4472
-4.48336
22.7757
26.3372
16.4647
6.13642
-2.5278
34.0485
-0.531561
-9.33837
-1.43774
-18.1107
-11.9966
-12.6281
-1.56163
11.7269
14.3906
11.5319
0.151414
-36.8343
-33.3993
-45.0275
9.62171
-10.9101
4.54606
-22.1088
0.300066
-39.7376
0.235781
0.0198009
-11.8599
8.16727
0.178735
8.74078
0.255598
4.16188
-13.1567
0.537305
-4.43185
-27.098
-7.30363
-2.55642
16.0193
48.9976
-54.1068
39.6035
-29.939
-60.352
0.253638
0.444039
23.1181
0.255421
50.4414
0.291826
0.246487
-56.4052
14.0037
1.19116
0.367067
11.3137
21.0787
9.89101
0.388384
12.426
-21.5275
8.81099
12.2285
12.4282
11.94
0.429977
-16.157
-8.67673
27.7894
13.424
0.420735
9.51014
0.36638
0.36104
7.15342
-12.1022
-5.11926
-12.9101
-12.7637
9.47439
-43.8552
0.38339
0.378222
0.330554
-49.0415
-50.8823
-28.2577
-29.9971
-0.490798
-1.72106
-41.4218
-30.9996
-7.35594
10.6806
0.372732
-0.372409
-42.9136
3.01772
-2.93557
0.552952
7.97272
-0.272198
30.6201
-113.866
-18.1439
-33.6208
0.597287
53.3112
-54.7972
0.871315
9.79445
1.37754
-34.7349
9.84194
-7.06915
16.762
-29.2268
0.10495
-31.1333
1.32164
-13.0055
-0.00304154
6.09737
-33.0392
-31.7852
9.21239
17.9527
-13.9705
-47.4437
8.61265
0.370594
-33.4189
-41.4014
10.5879
7.94341
-62.6066
-54.7364
-43.7913
9.37425
-11.3367
-24.89
-43.7017
8.79564
24.0927
-23.0524
-10.929
-8.76629
-30.6142
-42.1847
-7.10828
6.81182
11.1592
11.436
12.8882
9.15637
-4.70609
11.9151
11.8741
12.8114
-0.735242
-29.1813
-39.3704
9.86162
40.7363
-22.2332
10.2859
-18.5747
4.69972
9.17791
-11.3528
-4.06061
9.34721
8.25991
-56.0959
12.2813
-37.3582
-56.8983
-37.3612
8.90084
-13.299
10.8149
0.889833
1.37809
-20.735
-42.3058
0.0786212
-30.7747
-21.1757
58.3992
-24.6711
-48.4893
-32.0976
-0.0589764
0.15236
-44.7754
-0.969713
13.7271
-0.0126847
-46.2904
-42.9575
-0.009917
-0.758436
-36.2471
-14.5493
-44.9028
44.3016
0.214829
-5.9503
-48.3272
-1.31985
21.4424
-34.2504
13.8773
-59.3171
-20.1231
9.97178
0.271337
0.155362
-0.394158
0.239246
-0.363844
-1.44218
0.223515
6.25606
33.2477
14.1405
23.6966
-21.6021
-11.8188
27.9885
-5.51867
3.23596
-14.6258
12.1169
-71.629
0.554687
0.0362746
0.627679
-40.6425
0.447194
-61.5382
0.516783
5.57713
6.17098
-55.8557
49.7441
-30.9755
-26.4781
33.3925
-5.70617
11.4037
-11.3235
-27.4224
-28.9589
-29.2611
42.824
11.2539
-20.1253
-31.0405
-7.41823
-7.61189
-41.0458
-31.3431
1.80418
-17.62
11.1366
11.4091
-24.4904
-48.888
-2.85687
9.10317
11.2933
-55.4136
11.4236
-12.1523
-14.463
11.4086
11.6571
-24.1295
2.95223
48.9843
-22.9668
2.77851
28.7275
25.5055
8.66121
-90.1416
-43.5293
-18.358
-119.942
60.1509
11.7266
-21.9133
11.7309
22.493
-59.1643
1.8142
-57.7829
-30.4807
-4.93594
19.9148
-9.57155
11.578
11.6291
14.1837
-23.6349
2.54824
0.114053
25.1829
0.14518
-14.0414
12.2494
-15.3208
-2.45362
-27.2086
14.6703
-61.6564
-44.4558
4.82276
-39.6908
-29.9406
0.105607
47.2653
-39.4419
-6.16637
28.328
-13.1475
-19.8107
-26.5634
-35.1665
6.36249
-48.0202
-24.3409
4.79385
-3.41792
0.447965
-26.7947
-5.68879
23.9017
-16.9105
0.334566
23.361
0.475973
-63.9754
0.0589043
0.0976684
-8.76212
-26.2146
20.0404
-9.72394
-15.7912
-9.76555
-58.8486
0.0520584
-15.6489
-68.0638
0.529328
-10.0946
56.3675
-8.71258
-32.5486
-53.6996
0.0956438
9.20373
0.022277
-130.802
-30.013
-28.4339
-29.4647
18.3315
-7.65931
-1.85259
-41.4429
-52.5004
-17.6146
0.339276
11.4597
0.799184
0.442918
1.12617
52.0725
11.8574
11.1634
-10.1445
0.418975
14.7642
12.033
20.9612
11.6104
0.239121
20.9129
12.5156
9.25888
-19.8695
1.03322
10.9429
8.77865
-12.7263
11.0028
0.392446
0.592492
9.49273
11.8289
11.743
-56.5061
10.9372
16.6678
0.640764
0.235875
-28.0014
12.6536
12.1466
-53.998
-51.1931
57.5477
13.641
-55.4378
22.3648
0.592835
-51.6987
8.70684
-53.6826
0.36558
0.32108
11.485
17.6717
9.70865
0.405257
0.398457
0.834724
5.10177
7.79432
0.592924
-21.4356
0.47432
-15.1623
56.6872
10.975
-47.9722
-13.6434
-74.2261
0.572133
9.73193
0.0932182
12.3744
0.472918
11.0379
0.696987
-44.4962
-27.2595
-40.4788
-5.93549
-12.9507
0.786363
1.05779
-34.0563
0.968305
-54.9972
-2.81299
-49.5112
1.00519
-60.7101
-89.9923
-0.719181
0.0260788
-34.646
0.217426
-34.7416
10.7236
0.221888
0.686947
-0.477963
-1.91089
-2.47062
-15.1278
-34.2702
-9.72994
10.7514
0.78974
10.8327
0.422173
10.7024
-36.1768
8.60243
-35.5342
-0.112566
0.953599
8.28909
0.392937
8.5729
7.84122
0.158315
0.655605
11.5596
0.459171
-5.51062
0.429792
0.361418
-31.9251
-32.9852
-3.68829
-0.337404
-24.8572
0.411981
0.317001
0.30959
0.317064
0.0851662
0.458578
10.9176
10.635
0.587955
0.458177
40.1675
0.320718
0.414186
0.564886
-50.3164
-0.519853
-55.3124
-40.0284
-49.3951
7.94015
0.230796
-0.257553
0.0644369
0.567535
-45.9712
-13.8655
0.485468
0.387759
-0.323974
-0.339868
-28.9129
-0.387048
0.00322298
-18.9695
0.527309
0.436283
0.191121
0.381978
0.140627
0.267816
0.420913
-14.0154
-19.5587
0.0427521
10.8191
-5.18428
-12.1805
-10.892
0.419262
0.579604
-13.8798
0.304767
-0.0090538
0.657004
0.442858
-13.1289
0.0455864
0.802831
0.482811
0.388062
0.74189
-8.21576
-0.0470174
-45.9642
0.371492
-18.169
-0.0206506
0.0327679
-48.019
-0.0172716
-0.78278
0.103201
0.508085
0.586597
-0.696151
49.4422
-0.526663
-36.2497
0.450431
0.139589
0.890683
0.458796
0.24403
-0.319846
0.281442
0.436357
0.110583
-20.4366
-11.9944
-42.2219
9.32458
-16.2728
-0.351493
0.476485
-0.307814
-33.597
0.094329
0.0931229
0.0129344
-60.1093
0.0316743
0.201085
-0.00313029
0.241881
0.60068
-149.993
0.0364912
0.872938
10.9433
-0.0005574
-8.88519
28.7971
23.9512
0.0339258
6.00549
-0.0228027
0.564866
0.367434
0.162828
-58.8253
-51.9348
-0.00961444
0.440791
-45.8667
0.0263857
-8.95867
-25.1144
0.0678928
0.521743
3.95538
0.0355007
-11.4256
-0.0290919
-0.0477486
18.3079
1.49777
0.0405
10.9415
-27.9637
10.9945
-31.0707
-27.154
-30.9761
-27.2776
0.452343
10.9255
-21.004
11.0706
-1.3698
15.239
-37.7228
-28.9256
11.3734
-11.6246
11.3591
0.304471
0.513653
-29.9766
0.471724
0.419457
11.1923
11.2172
39.6418
42.4254
60.9029
-18.955
26.6031
11.3865
13.5457
21.441
11.2529
0.381503
0.00385906
0.302897
0.121328
-29.9506
-29.7626
0.462782
1.78244
-6.19163
-54.6355
-3.39338
0.433588
-1.95261
-25.2698
-60.0161
0.423343
-40.6197
-12.1606
-32.7603
-43.9672
-15.0805
0.308428
0.36412
11.8512
-61.591
0.132681
11.9535
0.271574
0.183786
-51.4323
-51.2816
-53.8094
-1.039
-33.6628
14.8833
8.5583
0.18641
-17.7403
-56.5639
-55.5506
-29.7214
58.5096
-29.925
32.4423
10.8257
-45.5401
11.515
-64.4555
10.909
-60.2911
10.8085
-29.551
1.52345
-22.7541
11.3973
11.3255
0.506972
11.1888
11.0686
32.3895
1.67772
11.3034
11.0767
-72.7203
-46.1013
-16.8773
-27.91
-47.0075
-27.8575
0.575093
13.5304
-40.2368
-33.1178
-40.1036
12.4369
-52.2644
4.71556
-54.5334
-55.8161
-40.33
-24.3843
13.7264
1.74542
8.05354
11.25
1.05502
-34.6332
-3.37993
-1.34296
0.862249
0.0617208
0.13142
0.677772
0.283688
-28.5061
0.312518
0.155607
0.395732
0.244621
-23.4158
0.725221
-0.00439488
0.16484
0.956299
-12.9775
-8.82255
0.454498
11.8303
-33.9903
-55.225
-3.5531
-47.6566
-13.7261
-3.27757
-25.7289
35.6675
7.98484
7.22594
-10.0603
-0.0136844
0.0346399
-6.01465
-0.0514233
0.0210392
-2.21136
0.0200933
0.951148
1.12323
10.5627
-7.10009
0.126621
41.3032
0.018789
11.2498
0.0403921
-0.0381588
41.6785
-46.5093
22.849
0.0170403
-0.529711
-28.9329
-28.9462
-2.78123
0.284816
9.8935
-14.7351
0.103237
0.108752
-15.3354
11.1296
0.0970525
11.8609
53.1736
-0.314264
-0.751944
-19.7549
-3.46244
0.393018
0.318358
-0.978409
11.0544
11.0401
9.54932
11.1605
11.5334
2.93947
1.72029
-7.18241
-53.9192
3.67998
-8.14395
11.0935
10.9976
59.4364
1.8603
-0.384126
-0.47696
-22.5118
-40.7767
4.18634
14.7462
-0.658654
27.7149
-7.06485
13.6574
-36.485
46.0477
28.534
-23.1285
3.76265
2.93956
-22.4068
-54.3438
-84.0184
-1.05402
-13.8495
-55.4197
0.921919
-18.0809
-9.95277
-41.3604
-28.8714
1.86001
14.4382
-56.8394
9.17746
-9.95102
1.05707
9.48135
-2.41648
15.1734
1.666
13.2992
8.5797
-39.087
2.08901
55.8657
-22.3515
53.8226
30.8042
-76.8922
12.0637
12.1065
-63.1904
-16.5398
-3.85238
-33.2531
-27.8774
-0.788488
1.71166
1.36862
-33.8639
-5.16813
5.57272
56.9308
-10.7401
11.6299
-8.87206
-22.3429
6.38369
6.53509
-38.0826
-32.6586
-30.0746
-29.9584
0.234335
-19.3567
-0.169535
-20.2752
-11.7885
1.00973
-0.547783
-18.3544
-7.02586
-29.905
-29.6601
-4.5052
5.66949
-0.833597
-14.572
-25.1282
7.84077
7.5915
-19.0071
-29.3693
8.09819
-10.3711
-29.2706
0.0850222
-41.3071
-2.21981
-7.20062
-48.9996
0.245545
50.7691
-12.1133
-0.559175
-0.58415
-1.83259
-55.864
0.478762
0.539405
-5.23337
0.270893
10.1398
0.40184
-33.8937
10.17
34.7167
10.522
10.3459
10.0927
0.476817
-20.7136
-11.932
-13.1782
-53.5087
-3.56844
-42.8688
-14.2279
0.0206964
-58.1444
0.0121441
0.417626
-1.47064
-11.1334
-57.7262
-29.6889
9.83475
36.4014
-17.198
0.535717
-36.9733
-44.3884
-12.6833
-46.332
32.3144
10.9053
-13.8685
41.3553
10.936
-72.5095
18.9301
9.86832
47.2203
32.8343
10.7914
11.1032
58.7442
-42.1139
0.675681
52.4609
6.11818
11.0678
-12.1295
10.9498
-33.84
6.52631
58.1637
11.1625
11.3095
35.3691
9.37301
16.7776
-5.70721
-4.17548
14.0624
-28.9154
22.7398
-24.4904
-57.9571
-74.4431
-28.6256
11.3978
35.1324
12.904
3.32942
5.90538
10.6044
10.7269
0.168057
0.305504
39.22
-46.0894
11.5912
-31.0885
0.423774
5.70755
-20.4046
-73.1363
0.289488
-18.3472
12.3398
4.68025
0.119132
9.1707
-10.3245
0.304911
0.680133
-25.6927
1.12291
0.484255
-9.2878
9.39985
0.45558
21.1191
0.49343
-23.2231
26.2322
0.589628
14.614
35.5711
-28.5664
55.3836
40.0073
-33.908
-66.1165
-28.7916
-29.618
-28.6731
-28.7464
-32.1189
-25.9189
-36.6159
-28.9521
57.2656
-4.94889
-50.4129
10.2372
-1.45073
-41.0418
-49.519
-5.77906
-30.2283
-19.1447
-29.411
-16.9556
40.1092
-48.8676
-41.1708
-28.4375
22.667
-28.34
0.576252
-53.5129
21.8931
4.8352
0.325579
-3.25906
44.087
7.93091
-20.813
-9.48589
11.7825
0.234506
-9.18022
-28.5601
-33.8702
-3.08841
-7.08659
17.6458
-30.8318
-10.2924
0.471627
-25.6661
45.0863
-3.94424
4.31341
0.484477
1.15982
-40.3495
9.20508
7.22731
0.569319
0.401733
3.83073
-4.00645
-4.5943
61.2428
2.047
-17.564
-8.50306
0.831026
-55.2898
-54.0903
7.95677
8.13512
7.31724
10.2303
-26.5042
-12.2343
54.8541
-9.69564
10.0055
-18.2854
-5.38245
-6.79627
7.76631
-14.6828
7.75039
-23.4505
-28.976
-41.4845
30.2464
-14.8008
16.53
8.00676
-58.2168
-72.2728
31.859
-53.4918
8.53353
-63.4287
31.5352
-4.11285
17.7817
-22.4291
-0.88803
0.266879
-9.04196
-15.7509
-41.8324
-0.998938
7.68875
-95.6422
11.9113
-38.3146
11.7663
-3.16781
9.36187
0.0207067
-2.08185
0.185467
-10.5672
6.93996
0.41926
14.4053
-1.20667
-50.1809
33.8148
10.2753
40.0209
11.2044
-1.65041
10.2312
11.9868
29.942
-1.34313
29.8368
0.39816
-1.13642
-21.9399
0.53588
0.125917
-16.3503
-9.90479
-28.1888
-5.79031
32.1671
6.12628
26.3493
0.422945
17.6306
13.8269
0.471861
0.443674
0.313496
0.692493
55.7912
0.292812
-11.7773
-30.7324
11.2753
11.626
13.8109
11.479
-24.294
-33.4329
-2.15132
-5.60295
-5.63337
-17.3327
32.9447
0.219424
-62.7016
-11.0374
-37.5959
-1.25007
7.79331
-25.2262
11.3691
11.516
-22.274
11.6104
0.000926783
5.80065
-44.0331
16.3857
53.8982
-0.909545
-1.49562
32.9688
5.40098
-0.336451
33.2135
6.96782
-17.1664
36.0699
-12.2449
37.9726
-46.8411
0.608557
11.9898
-1.64885
-9.66354
-1.81141
0.566713
-2.63183
0.174747
11.9945
-36.8613
3.54269
0.31123
-39.4532
-0.489399
6.69599
11.4454
11.5733
23.9333
3.0429
-0.990281
-7.14042
-2.21224
-14.6141
11.241
0.385783
-22.7019
58.5424
-23.0298
-0.295854
57.179
11.4763
-52.8153
53.1616
-3.49148
4.36408
34.8899
11.6084
-29.3168
36.9221
-29.5273
-7.13434
-29.3016
-15.5357
-37.2034
32.5729
-7.60389
59.3586
0.44172
-29.3716
-29.6809
-57.6316
-50.7325
-37.6587
-58.963
-42.1977
-32.7955
56.0602
8.79838
9.40994
49.1257
22.8462
-49.6005
6.2222
-51.7849
43.2732
0.660679
9.77072
0.0527962
0.556079
0.451953
0.475733
57.4946
0.332569
0.456679
9.92873
0.653933
0.739265
9.98921
-7.07996
0.560579
-8.99649
0.429094
6.15348
25.1308
-49.5193
-1.22174
0.96451
-7.94682
-1.16511
-40.4493
-24.1647
-24.7247
-1.58244
36.7264
12.7817
-3.53364
-6.3627
7.26386
3.09738
0.552925
10.73
10.1694
-29.5138
0.700178
17.3321
-4.31586
1.76081
10.886
-2.52928
7.08784
10.714
10.5258
-15.1406
10.2819
7.65158
51.0079
23.6557
12.4339
21.2678
9.95061
-2.5346
10.3535
0.392258
-4.89544
0.357269
4.26479
0.0550765
21.8108
9.92636
-18.7572
21.7755
0.0743376
8.80683
26.66
-16.2158
32.6644
-28.4638
-55.0254
-40.4817
-1.05641
0.0892306
-29.0028
34.6837
-11.7629
-3.43978
8.1145
0.759962
-0.638924
0.0791029
8.61777
11.8576
27.9912
7.92516
0.443797
10.7012
10.6045
0.0281361
-36.8235
33.9933
0.0246279
6.83386
-13.8902
41.5055
11.854
9.26816
-11.5478
-50.1153
-51.6646
10.9419
10.8746
-5.19056
-9.10532
-10.9377
-31.8562
30.8088
0.4429
-0.266837
-2.23969
0.408686
18.1868
-18.2406
0.490719
0.347529
28.9815
0.337483
-10.8472
25.31
-37.2538
-27.2879
0.366331
-12.8611
12.767
-0.0619654
0.42112
11.4157
8.26113
-2.89225
19.6061
2.82263
-47.423
0.484098
0.487476
-36.3319
-4.06894
12.5612
0.51632
7.00144
11.0509
58.6143
0.488661
-12.0457
-37.7688
-42.0028
-95.467
-62.7392
0.477368
15.445
45.1951
0.00850376
6.29822
8.49615
-41.6664
12.1009
5.29231
-40.8136
12.0714
23.2859
-18.8107
8.34433
-41.3683
-56.999
13.5647
17.6917
-45.267
13.8654
9.8713
1.60684
13.2152
11.3725
0.047218
-37.6002
-8.1572
5.24604
12.9595
10.6253
11.7755
-0.111174
-0.0284284
33.1723
0.022935
-9.86875
-0.732333
35.2655
11.4953
-13.6407
3.57396
56.5503
-25.8519
-31.0441
-43.45
2.16576
-6.78118
-57.7954
-20.7978
13.235
-17.2198
-8.96313
-0.0198832
-11.2747
10.7978
3.70838
1.74825
0.033324
0.175376
-21.1705
-6.46204
-13.0354
0.148541
-1.06131
0.227808
-1.2401
-7.34217
12.0859
-46.4845
12.4562
-1.60818
-1.53774
10.3062
10.2137
11.2113
0.560591
-1.43586
-12.2238
2.89739
-1.28737
-1.65551
-29.2092
2.79057
-8.76787
-41.2773
-30.3311
-30.236
13.1281
-29.6574
17.1611
-31.5876
0.468381
-29.3183
0.489292
1.75809
-1.26832
-6.43148
0.414128
2.75425
-3.11435
10.8138
8.5729
12.3247
-6.25567
-6.96058
-50.305
-29.097
22.2655
35.5345
-36.1964
-27.4477
-31.2098
-53.1697
-28.8381
-10.4445
-29.0392
0.34312
0.0150397
-49.4211
-57.3573
-6.31805
-1.37985
10.7272
51.7139
-4.2396
-56.8865
-2.49664
3.78971
-4.81834
-1.33536
-29.8986
-0.32667
-0.00372512
0.131835
1.14082
5.80039
-0.695366
0.625276
-45.9972
-47.041
-43.2441
20.8183
-36.9123
11.7142
0.507183
13.3627
5.25962
3.18628
20.1238
10.9613
21.1983
0.17687
2.66831
4.20455
-0.315527
0.96935
-14.2555
7.72967
12.3311
7.736
41.4468
0.629406
22.6533
-59.0875
-6.43303
-49.4603
40.0136
9.38578
8.21076
5.39945
-16.2324
-10.1956
11.2589
-36.6244
6.47106
7.8299
-6.00859
17.0858
8.48879
-6.58664
-18.1114
-15.8308
11.9897
-2.59783
-60.5917
-1.09255
-46.3872
-31.541
11.8731
-57.5712
-8.77655
32.3975
-2.23663
11.8479
13.9309
16.3584
-7.99328
11.0992
-29.084
-16.1639
-29.0403
-5.62729
-8.85755
15.3557
-28.5058
-26.0691
0.487362
-0.344089
14.4033
-28.8247
5.59389
-5.45626
-47.6805
0.29392
-0.297115
10.5557
-54.0296
-7.09594
-3.27495
0.142399
-2.7204
10.2255
10.0132
-3.10409
10.2853
-30.1565
10.2686
-57.4564
10.5476
-32.1707
-32.3274
-9.27596
9.89688
-9.92838
0.00518397
9.88768
-3.43766
-0.731679
-9.72511
50.5559
0.13639
32.8405
-11.5306
0.150127
-4.47038
0.181899
11.4419
10.1153
11.2073
-10.0579
0.135601
10.7735
-2.06492
0.11959
0.515442
-26.6408
0.479571
0.0953024
11.5275
-27.9112
-31.3
0.145164
-6.87046
0.466948
-30.7193
0.315105
0.184315
-0.130646
0.316011
0.00289386
-0.139932
0.0367303
0.557701
10.1807
-22.678
-18.2101
11.498
43.597
14.811
11.2508
0.041209
11.9351
35.9137
0.0507891
31.7756
-0.670783
0.11387
-1.98202
23.6488
0.493696
-0.0398672
53.6611
12.0159
26.5553
-11.3767
-15.4268
0.0495847
-4.50285
-0.0339186
0.511383
0.796416
0.428591
48.0986
0.534664
0.342273
0.305428
10.7784
-42.8538
-25.4039
-5.95418
2.69792
-0.357396
0.357027
13.8628
-31.4076
24.2591
15.4377
2.18322
0.343482
40.9299
-15.6034
38.8043
30.3235
10.8433
11.3694
0.259
-6.90777
0.480764
-16.2003
-14.4229
11.3729
-51.7333
0.0967972
0.399394
0.54833
9.68373
0.488646
46.293
-5.7223
44.1917
0.401674
-57.0011
-10.61
-15.6644
0.363227
-45.7761
0.485021
26.9754
10.969
30.6988
0.514944
-19.5005
3.29105
-48.7628
29.3549
10.9085
10.5053
-1.9929
-26.6354
10.6463
-59.0426
-36.2088
10.9733
32.3052
10.8333
-24.2711
41.8109
6.35126
-7.94809
41.8343
36.5399
0.132372
1.71652
-55.5786
41.8052
8.95673
38.1701
-6.59699
-54.8302
28.4112
-3.83441
0.0261166
0.213445
0.0779658
-0.371544
12.716
-35.2131
-1.57673
-37.3623
15.1293
36.8699
-12.1837
35.2302
0.0351022
-0.039536
-16.2329
56.3685
-20.2797
46.098
14.9819
3.13387
23.2507
3.26779
15.6093
0.0165961
0.0417548
0.000811454
-0.0221395
7.72999
-16.495
12.1085
-33.7201
2.44276
-42.0804
8.1996
-24.7949
43.0857
-4.27587
-3.30714
0.118027
36.8265
0.0383622
21.5911
-3.05584
7.92775
-10.8941
-0.766402
30.2781
34.3103
-16.3476
0.18541
-0.888759
-38.4738
-63.4695
-8.89622
50.2894
25.5291
53.4759
57.0128
42.4409
-39.4733
-2.3645
42.2344
-44.7006
0.00298321
4.38959
0.0471097
-29.8067
-15.5668
-2.54072
0.501511
-10.2812
-0.0185268
10.2688
-37.7099
40.49
-46.636
10.2239
-3.07422
8.81151
0.125646
-7.73209
-59.291
-0.167166
-35.8404
-18.0873
10.5815
-58.7632
-47.5904
10.5773
-14.3739
-15.6304
21.5755
10.608
-15.3282
25.4611
-57.5846
-33.3252
-45.4317
38.5349
-37.0121
3.63368
24.1784
3.08664
-58.4191
-48.9251
-1.29328
-1.30754
47.7323
-4.15096
-39.6258
-3.49936
-18.5641
-66.477
-32.4159
-30.0756
1.35114
-30.0995
0.20687
-30.036
13.4844
-23.8009
47.9966
-28.7948
19.2406
-33.3442
-28.395
-21.3941
-46.8914
31.8961
29.6882
-35.0056
9.73509
24.5588
15.9389
4.91799
12.5451
-3.38568
-31.7152
-82.4632
-30.0232
14.4911
18.242
-42.04
22.3497
-31.7554
-16.9965
5.1564
4.84099
-31.5436
11.5835
-30.9304
13.0565
29.2774
31.3261
58.702
28.0012
-30.3855
-60.9611
41.7974
11.565
35.5607
-50.5334
-29.9718
49.9152
29.0588
-4.99776
20.8563
23.3602
-44.8058
-32.3882
-48.8881
14.3681
10.0305
34.3583
-59.6199
42.9221
27.2592
11.9
35.5837
-30.4857
0.943663
1.3759
11.8522
-14.1574
-54.6637
-29.1231
43.6006
-10.138
-20.4659
-47.4754
40.9136
45.1392
36.9542
-35.4846
-99.3566
43.2589
-34.6822
-57.9289
44.7105
-2.69623
-11.0776
11.4169
-0.109845
-0.333151
-9.98413
42.3342
-28.8011
0.815549
-0.0735516
-0.258762
0.152787
-1.32772
3.24913
-34.5491
-7.70261
-0.405045
-55.6116
-73.3892
-28.5173
-21.0224
-2.02604
-18.8097
-29.9108
-43.9164
-0.28245
-36.2434
-3.07412
-35.7206
-30.2867
41.5026
18.0187
25.2647
0.0615759
3.63394
-72.9323
-26.3887
-10.7857
-48.4925
0.00999347
-63.1124
-45.2692
-27.5038
-45.2351
-6.1706
14.9953
10.9005
14.2456
10.0647
41.7034
0.0414044
-0.015056
0.0116345
13.8017
-10.5936
-51.3828
-57.2191
15.3172
36.2274
23.5907
28.2868
-1.29297
-51.7932
-6.69041
11.5221
2.81701
-2.24056
18.0941
6.21773
-16.1403
13.7538
-12.388
-10.6432
-8.57723
16.5336
35.1567
-32.9219
51.3307
-28.0217
18.1123
-59.6976
-48.1419
-11.466
13.817
32.5364
-10.5522
-34.3248
5.91375
13.5101
-19.0651
-28.9934
15.0568
45.6367
57.4899
-37.201
-2.2968
-58.5969
13.7144
0.0640338
-10.6856
10.0585
6.32592
-16.8475
2.44212
7.19217
-44.6623
-10.6396
-28.4895
-14.2819
-29.1857
-0.0255066
11.1718
-59.4669
-19.2602
-0.0310792
58.4452
11.7475
44.6012
10.132
-24.3401
15.9953
-1.1421
32.4863
54.2461
14.5803
32.5871
0.0515138
-47.628
11.6395
11.4957
-6.37447
5.18646
-39.402
-5.74463
-10.4334
11.8006
2.78619
-23.9811
4.10266
8.64503
-8.56597
-14.0825
-27.9823
0.0187613
13.1967
0.0162413
13.4465
0.0435763
-21.5414
11.5474
-24.8342
10.9278
-29.3336
0.00223255
32.4074
-9.75242
33.9359
0.0498338
7.30289
0.107065
0.00681747
-5.34355
6.76954
16.1263
32.3711
29.0093
-29.8309
-53.5663
40.3154
22.9205
20.5835
3.8559
0.0197924
0.0658043
-77.1912
41.6999
17.2792
13.2402
0.0694902
17.6532
0.133073
0.057431
-23.4167
-25.7371
-39.9103
-34.7762
5.68333
1.01483
-5.88116
11.3941
41.4824
9.8433
-19.1348
9.75034
-8.02179
-79.0485
-17.2784
0.169597
2.57238
-10.9817
-8.35207
-37.2491
11.8886
-36.2032
22.0369
-77.9759
-32.8785
-30.3906
0.170098
20.7278
1.40105
11.7095
33.3925
11.7678
-12.7665
9.7984
10.7648
7.37017
11.666
-41.845
16.9471
2.33596
41.3553
11.0897
-24.4966
11.8584
11.7757
-30.4359
-79.7811
-31.0628
-29.4557
-30.5479
8.39338
56.6949
-30.2177
-4.30784
10.4034
18.1174
-30.5262
0.350333
0.172905
9.83525
-24.7358
-29.4
-50.4799
29.5913
-3.62112
0.548362
1.38954
-29.3269
26.5892
8.6073
-57.2899
-28.3782
-29.0015
58.0102
12.9181
9.50284
0.713885
13.022
-53.9106
15.5921
10.0568
17.7857
-3.75154
16.0932
21.3325
42.6377
34.4515
9.45677
-19.2327
20.8829
-11.3212
0.34371
0.375723
29.8735
-33.2178
-14.0751
0.322
53.4922
0.375985
-29.4561
28.9779
18.5343
37.2501
-28.7943
-20.6999
-29.2315
29.8384
-14.0115
-34.3018
-6.84215
10.2549
0.675318
12.8712
-0.279655
12.6995
-0.565964
10.2896
-0.63652
-13.9645
0.12182
32.9666
1.21222
3.1411
-27.4546
7.96641
0.252874
9.44537
-7.60788
-34.2883
-47.0831
-22.2232
3.41407
35.0681
0.535182
56.4537
-34.0616
56.7309
50.2529
0.655231
3.46437
5.38934
0.515656
0.500227
-92.5586
9.20948
-26.5139
-12.348
3.52621
-0.157646
-29.5226
5.72785
5.67274
8.21771
5.50344
0.493058
-31.9761
-5.79333
0.172908
-24.3777
0.473667
-0.373054
0.255158
0.139611
-11.8376
6.69711
-57.9846
-0.353385
0.1037
-13.3585
-13.823
21.6049
-20.0438
11.0658
10.9507
-0.0215793
0.132078
-12.1883
-18.3181
8.51759
0.106162
-3.91469
9.43215
0.0889425
54.9058
0.0331869
0.0577305
0.121945
-0.0280217
-31.5453
-0.00421745
-28.8601
-9.97631
50.9242
3.44354
-2.68973
-4.49432
-1.089
-9.84314
-37.6909
0.708085
0.0629532
6.21229
-29.0555
0.0128991
6.8547
26.1849
40.4329
-12.1255
8.44776
7.6774
-42.6647
-26.3204
-0.0139567
45.8685