/*--------------------------------*- C++ -*----------------------------------*\
| =========                 |                                                 |
| \\      /  F ield         | OpenFOAM: The Open Source CFD Toolbox           |
|  \\    /   O peration     | Version:  2506                                  |
|   \\  /    A nd           | Website:  www.openfoam.com                      |
|    \\/     M anipulation  |                                                 |
\*---------------------------------------------------------------------------*/
FoamFile
{
    version     2.0;
    format      ascii;
    arch        "LSB;label=32;scalar=64";
    class       surfaceScalarField;
    location    "0.075283";
    object      phi;
}
// * * * * * * * * * * * * * * * * * * * * * * * * * * * * * * * * * * * * * //

dimensions      [0 3 -1 0 0 0 0];

oriented        oriented;

internalField   nonuniform List<scalar> 
92401
(
0.148831
-0.0980161
-0.00691175
-0.0439033
-0.0636016
0.0606719
0.0398473
-0.0369176
0.0221813
-0.0396778
0.0429858
-0.0254893
0.00659415
-0.0131611
0.0129862
-0.00641919
0.00135901
-0.000540076
-0.00594966
0.00513073
0.0194143
0.00969902
-0.0253021
-0.00381121
0.00589403
-0.00483378
0.000298753
0.0322626
-0.0255563
0.0127079
0.0480789
-0.0386435
0.0324573
-0.0418928
0.000346258
-0.000670343
0.000154055
0.00017003
0.00469482
-0.0415536
0.0386044
0.0242655
0.0243421
-0.087212
-0.0174983
0.0110744
-0.00014716
0.0065711
-0.0344026
-0.0400158
-0.0163664
-0.0202784
0.0597619
-0.0231171
0.00212088
-0.0667343
0.0646134
-0.0025223
-0.00776757
0.00205515
0.00348636
0.00222605
-0.000960296
0.0015502
0.000216505
-0.000806406
-0.00497766
0.010921
-4.50861e-05
-0.00589825
0.0164913
-0.00577255
-0.00501293
-0.00570585
-0.0407902
0.00836118
0.0369818
-0.00455274
-0.0393954
0.0109479
-0.0547439
-0.054117
-0.00270779
0.0549115
0.00191326
0.0907242
-0.0893107
0.0220181
-0.0234315
0.0503367
0.0601714
-0.0716285
-0.0388796
-0.0325961
0.0511571
-0.0579564
-0.00275606
-0.00101015
0.00402673
-0.000260526
0.0314236
-0.0635695
-0.000450206
0.061154
-0.0601756
-0.0323512
0.0313728
0.0125128
-0.0173165
0.00135362
0.00345012
-0.0361197
0.106746
0.0618155
-0.132442
-0.0846906
0.107524
0.00897482
-0.031808
-0.131139
0.0324193
0.0295665
0.0691534
0.0148502
-0.0621134
0.03743
0.00983318
0.0602918
0.00924147
-0.0546831
-0.0442495
0.0100963
0.00249375
0.0316594
-0.0504155
-0.0411757
0.0654832
0.026108
-0.0332376
0.0406173
-0.0137683
0.00638857
-0.0201807
-0.102644
0.065878
0.0569468
-0.0856514
0.0864949
-0.000843428
0.0336937
-0.00452893
-0.0759438
0.0467791
6.84539e-06
0.0279443
-0.0197314
-0.00821971
0.0268848
-0.0503978
0.023513
0.000173315
1.3858e-05
-0.000139555
-4.76187e-05
0.000799599
-0.0584355
0.0576359
-0.0685531
0.0429422
0.0623352
-0.0367243
0.0901247
-0.0254251
-0.0128071
-0.0518925
-0.000427611
0.0707556
0.000805484
-0.0711335
-0.0476614
0.0731521
0.0398056
-0.0652963
0.000559135
0.00111294
-0.000388265
-0.00128381
-0.0021184
-0.0035385
0.000147916
0.00550899
-0.0382969
0.0839958
-0.0462829
0.000584099
0.000336613
-0.000785858
-0.000532888
0.000982133
-0.0548603
0.0542528
0.000607478
0.0755091
-0.00785125
-0.0186521
-0.0490058
-0.0994315
0.0919222
0.00460835
0.00290097
-0.0548266
0.0273536
0.0110482
0.0164248
-0.0028181
-0.0149863
0.00767455
0.0101299
-0.0125467
0.0258436
0.0374396
-0.0507365
0.000898382
-0.00036824
-0.000193529
9.67864e-05
-8.71302e-05
0.000791362
-0.000801018
0.000459831
0.000159489
-0.000376819
-0.0002425
0.00415256
-0.00919677
0.00504464
-4.31435e-07
0.0679106
0.00506076
-0.0172003
-0.055771
-0.0150467
-0.00475526
0.0106891
0.00911285
-0.0409689
-0.0528829
-0.0547739
0.148626
0.00340641
-0.0346622
-0.00305523
0.034311
-0.000307322
0.000521557
0.000422104
-0.000636339
0.00427793
0.00450491
-0.0279249
0.019142
0.0188263
-0.00646965
-0.00961239
-0.00274429
0.0418485
-0.0765227
-0.0276254
0.0622995
-0.0292674
-0.00311048
0.0102782
0.0220997
0.0122576
0.00829031
0.0130715
-0.0336194
-0.00033825
-0.000313205
5.33041e-05
0.000598151
0.0252301
-0.00973261
0.0365651
-0.000530781
0.000315435
-0.000604655
0.000820001
0.0442306
-0.0330942
-0.0681383
0.0570019
0.000393172
-0.000245635
-0.000147537
-0.00112465
2.03011e-05
0.000562701
0.000541653
0.000642158
-0.000199226
0.000266348
-0.000709281
0.0226739
-0.0231068
-0.0623005
0.0627335
0.00106089
-0.0126844
0.00289722
0.00872627
0.0430122
0.0585952
0.0185097
-0.120117
-0.111957
0.0253704
0.124421
-0.0378342
-0.00539997
-0.0446697
0.00374424
0.0463254
0.0550611
-0.0303877
0.026236
-0.0509095
0.0265494
-0.0033441
-0.153702
0.130497
0.00886953
0.0158262
-0.0287638
0.00406811
0.000687326
-0.000197347
-0.000754423
0.000264443
0.0381375
0.0122898
-0.00133104
-0.0490963
-0.00251574
0.0844721
-0.0860377
0.00408138
-0.0181299
0.0495884
-0.116195
0.0847367
0.042515
0.0053394
-0.0532544
0.0426577
-0.000142714
-0.00232468
-0.029261
0.0417207
-0.010135
0.0709038
0.0171773
-0.0316013
-0.0564797
0.131593
-0.145365
-0.0299278
0.0436999
-0.0151104
-0.045733
0.0585187
-0.0824843
-0.000677202
0.0831615
0.00108064
-0.0978491
0.16312
-0.0663514
-0.0025466
0.00339103
-0.000627504
-0.000216923
0.0898475
-0.149185
0.030426
0.0289113
0.00155565
-0.000444251
0.000904678
-0.00201608
-0.0872649
0.142854
-0.10408
0.0484912
0.0309392
0.00277403
-0.0414291
0.00771591
0.086038
-0.0149527
-0.0830422
0.011957
0.00575293
0.0317881
-0.0526515
0.0234519
0.0277749
-0.117813
0.0665858
0.0872052
0.113262
-0.0800617
-0.120405
0.000916568
-0.000238905
-0.000725586
4.79227e-05
-0.0936431
-0.028633
0.110758
0.0115178
0.00130284
-0.00591315
0.0160647
-0.0114543
-0.0141114
-0.0340694
0.058373
-0.0101923
-0.005616
0.0174857
-0.0146171
0.00274736
0.000408739
-0.000681467
-0.000609398
0.000882126
0.0223183
-0.0264109
-0.00152339
-0.00188749
-0.000699585
0.00154829
0.00103879
-0.0577861
0.0604389
-0.00265283
-0.00258595
-0.00635275
-0.00215901
0.0110977
-0.0369018
0.0283683
-0.00557787
0.018339
-0.0472337
-0.0557959
-0.0513057
0.0415588
0.0983383
-0.0885914
-0.00764416
-0.00181925
0.00513859
0.00432482
0.0468594
0.0110721
0.00221438
-0.0601459
0.000554728
-0.00957381
0.00705618
0.00196289
-0.0401855
-0.0540204
0.0114789
0.082727
0.0647085
-0.0388773
0.0266278
-0.052459
-0.00965
0.0597973
-0.0587408
0.00859346
-0.0590037
-0.0339637
0.00775198
0.0852154
0.0162162
0.004904
-0.0329317
0.0118115
0.0629716
-0.063186
0.000214445
0.00185979
0.00178482
-0.00157683
-0.00206777
0.0406231
-0.0439588
0.00333572
-0.0580738
-0.0374339
0.108035
-0.0125269
0.000838151
-0.00996612
0.00988468
-0.000756707
0.00275572
0.00590418
0.00275635
-0.0114163
0.00171119
0.00671663
-0.0078731
-0.0245786
-0.0579541
-0.00898083
0.0915135
0.0257947
-0.00802393
0.0185696
-0.0363404
-0.0840028
0.0925651
-0.101279
0.0927172
0.0776621
-0.0502305
-0.0274317
0.00160853
-0.0346436
-0.0101421
0.0431771
0.00816617
-0.00562599
-0.00957878
0.0070386
0.0464212
-0.0701431
-0.0621677
0.0858895
0.0740262
-0.0647104
0.0293645
-0.0386803
-0.0137683
-0.0090967
0.0334693
-0.0106043
-0.0581693
-0.0867622
0.057288
0.0876435
-0.0416027
0.0543216
-0.0111104
0.0976973
-0.0482754
-0.0494219
-0.00474892
0.0155694
-0.00265434
0.00101024
0.000686239
-0.000714231
-0.000982243
0.0473384
-0.0157941
-0.0052461
-0.0262982
0.00365335
-0.00190242
-0.000454284
-0.00129665
0.00537532
-0.0101997
0.00873004
-0.00390566
0.0723601
-0.0425156
0.0259722
-0.0558167
0.00893602
-0.000444794
-0.0068754
-0.00161582
0.00165936
-0.000608962
-0.0010504
-0.0658646
0.0652549
0.000609761
0.0119656
0.00570257
-0.0967338
0.0790656
-0.0119173
0.0143775
-0.0102898
0.00782957
-0.0730636
0.016326
0.0835173
-0.0267797
0.0185572
-0.097607
0.0756875
0.00336235
-0.0526715
0.0429622
-0.00838382
0.0180931
0.0087599
-0.0018282
-0.00297971
-0.003952
8.92194e-05
-0.000774025
0.000684806
0.0283265
0.17084
-0.245604
0.0464368
0.000291748
1.21597e-05
-0.024875
0.0602891
-0.0526939
0.0172798
-1.13108e-05
0.00522882
-0.00447449
-0.000743025
-2.12649e-05
0.0013824
-0.00156036
-0.0708934
0.000598283
0.0702951
-0.0323787
0.11377
-0.0477405
-0.0336512
0.000535396
0.000479762
0.00947317
-0.0104883
0.000452275
0.091836
-0.0922882
0.00240669
-0.00162914
-0.00122801
0.000450455
0.0013803
0.000705566
-0.000713653
-0.00137221
-0.0366939
-0.00156063
0.0324502
0.0186772
-0.0636741
-0.0724444
-0.0162837
0.00654366
0.0821844
-0.000629681
0.00200998
-0.100792
-0.0418184
0.112787
0.0298234
0.02718
0.170692
-0.0852731
-0.0578013
-0.0276175
-0.0183496
0.119268
-0.0435476
-0.0573713
0.0397301
0.0299245
0.0386194
-0.108274
0.104707
-0.249036
0.109516
0.0348133
0.00164926
-0.00146384
-0.00138478
0.00119936
-0.012316
-0.0353766
0.0554593
-0.00776663
0.0262389
0.0404431
-0.0264648
-0.0402172
-0.035355
-0.0257992
-0.0197688
0.080923
-0.0533732
-0.0139563
0.0550134
0.00117813
-0.0120212
0.00922609
0.00161701
0.0553731
-0.0284455
-0.0508472
0.0239196
-0.089607
0.105561
-0.0502827
0.0343287
0.0168218
-0.0234328
0.0068751
-0.000264067
0.0517893
-0.0600572
0.063641
-0.0571528
-0.00347472
-0.0138553
0.0744828
-0.00533794
-0.0132656
0.00252158
0.016082
0.000186524
0.0590237
-0.0583942
-0.00081596
0.135207
-0.0537582
-0.00242778
-0.0790208
0.0599196
-0.00758655
-0.049058
-0.00327504
0.0507983
-0.0223299
-0.0691129
0.0406445
-0.0100301
-0.00173573
0.0151175
-0.00335167
0.00542042
-0.00169898
-0.00477431
0.00105288
0.00258884
-0.0441707
0.0407711
0.000810759
-0.000751961
-0.0863074
0.0034679
0.0197224
-0.0129308
-0.0631318
0.0465221
0.0166097
-0.0595515
-0.0170397
0.0109766
0.0656146
-0.101101
-0.000814157
0.104465
-0.00255005
0.00372182
0.0238523
-0.0128494
-0.0147247
-0.0713259
0.149759
-0.0659877
-0.0124458
-0.00470679
0.0133099
0.0224318
-0.0310349
-0.0523367
0.100384
0.0391997
-0.0872469
0.0293074
0.00139324
-0.014435
-0.0162656
-0.0363376
0.0380421
0.000884264
-0.00491745
0.00753765
-0.0102352
0.00761505
-0.000253293
-0.00457804
0.0102067
0.0360118
0.0378199
-0.0738317
0.00108411
-0.00190694
3.45467e-05
0.000788277
0.0200624
0.00834409
-0.0192513
-0.00915514
0.0226528
0.0106029
-0.00170028
-0.0315555
-0.0525925
-0.00208136
0.00707432
0.0475996
-0.000200955
-0.0439697
-0.000992078
0.000533172
0.00154302
-0.0518438
0.0371167
0.0519129
-0.0371858
-0.044831
0.030262
0.0175668
-0.0029978
0.00137912
-0.00361809
-0.00992276
0.0121617
-0.00983518
-0.00508402
-0.00296842
0.0178876
-0.0436746
-0.00487268
0.0122097
0.0723747
0.0396326
-0.0720781
-0.0399292
-0.0455469
-0.000236185
0.0457831
0.0861897
-0.0486804
0.0595909
0.00368971
-0.00765658
-0.0372439
0.0412108
0.0359384
0.0113022
-0.00530482
-0.0419357
-0.000474727
0.000343422
0.00102172
-0.000890417
-0.0168589
-0.0449902
0.0618491
-0.000218218
-0.00138116
-0.00412145
0.0308119
-0.0230007
0.00618604
0.0278697
-0.0417123
0.0978202
-0.0906357
-0.00209538
-0.00508909
-0.0214737
0.101485
-0.0185658
-0.0614457
-0.0319749
0.0067906
0.0137216
0.0114627
-0.039104
0.0359191
0.01385
-0.0106651
0.0325696
-0.0251264
0.00134353
-0.00878674
0.0191947
0.072713
-0.122994
0.0310867
0.0762962
-0.075276
-0.0243131
0.0232929
-0.14344
0.00204653
0.00363408
0.137759
0.0305852
0.012384
-0.0412349
-0.00173437
0.0400071
-0.0576269
0.0203691
-0.00274926
0.00215167
-0.00121599
0.000245059
-0.00118074
-0.0146149
-0.00113401
0.0734004
-0.0416423
0.0188065
-0.0505646
-0.0120189
0.0477356
0.000381539
-0.0360983
0.00513202
0.0959763
-0.0932515
-0.0078569
0.0495222
-0.098976
0.0579243
-0.00847051
-0.0483586
-0.000429884
0.0367696
0.015082
-0.00339039
0.00867224
-0.0203638
-0.023423
0.0477907
-0.01331
-0.0110577
-0.0482923
-6.63001e-05
-0.00557375
-0.122871
0.175896
-0.0474511
0.0101014
0.00980214
-0.0635307
0.0436271
0.0494585
0.00546557
-0.0448227
-0.0130857
0.00678349
-0.00368061
0.00998282
-0.0581721
-0.00054342
0.0587155
0.110698
0.0442933
-0.136896
-0.0180959
-0.00940378
0.000285368
-0.00396729
0.0185048
-0.116252
-0.0226364
0.120384
0.012705
0.0664184
-0.0693212
0.00281674
-0.0558349
-0.0105125
0.000534469
0.00193686
-0.00268954
0.00206203
-0.00178107
0.000253505
-0.0507873
0.0261819
0.0738179
-0.0492125
-0.00193586
0.000983429
0.000972734
-0.0341871
-0.00772616
0.04473
0.000297446
-0.000296451
0.000356687
-0.000898755
0.000121694
0.000420374
0.000252832
0.00210665
-0.00182025
0.0014649
0.000140946
0.000214404
0.000325509
-0.000131223
0.000704095
0.106344
0.122854
-0.0803673
0.000169904
-0.000705401
0.000861006
-0.052864
0.052728
0.000135946
-0.0105214
0.076113
-0.07163
0.00603846
0.00168789
-0.0197011
0.00530378
0.0127094
-0.0603536
-0.00303177
-0.0172496
0.00400842
0.04747
-0.0342288
-0.0629467
-0.00290719
0.0658539
-0.00707762
-0.0166278
-0.0127598
0.0364653
0.00034267
-0.000395824
-0.000545867
0.000599021
-0.00390131
-0.00740729
0.00913237
0.00217623
0.0549852
0.0439053
-0.0175075
0.0483259
0.0896186
-0.0380628
-0.0998817
-0.0126881
-0.0442394
-0.018932
0.018572
-0.0538617
0.0542217
-0.0112008
0.0286614
-0.00573444
-0.0117261
-0.0150892
-0.0134576
0.0134011
0.0151457
0.096606
-0.0946871
0.0187671
-0.0206861
0.00123839
-0.0044112
-0.000466724
0.00363953
0.00124324
-0.0670061
0.0657629
-0.0725165
0.0033552
0.0667503
0.002411
0.0389818
0.0383026
-0.0772844
0.0190987
-0.05999
0.0282033
0.00197809
-0.00111632
0.000456503
-0.00131827
0.000251231
-0.000158094
0.00106689
-0.00116003
-8.87638e-05
0.000442181
-0.00102616
0.000672747
0.064123
0.056619
-0.0393137
-0.0814283
0.00587158
-0.0869703
0.0824164
-0.00131767
-0.0137966
0.000719236
0.0264875
-0.0134102
0.0535361
-0.052678
0.0191203
-0.0199784
-0.00054106
0.00139898
-0.000701437
-0.000156485
0.0202544
0.047908
-0.0490637
-0.0469492
-0.00169949
0.00102959
0.00148594
-0.00081604
0.0013844
0.080827
-0.0822114
-0.0499394
-0.0150242
-0.022261
0.0872246
-0.0499725
3.31622e-05
0.0116441
0.016763
0.0166792
-0.0450863
0.000555077
-0.00273603
0.000449933
0.00173102
-0.00179749
-0.000497792
0.000595796
-0.106218
-0.00935185
-0.04313
0.1587
-0.00971144
0.0072798
0.136978
-0.134546
-0.0386095
0.041885
-0.0647451
0.0614696
-0.0798528
0.0794671
0.00038561
0.00128297
-0.0499742
-0.030517
0.0671332
0.0192714
-0.00599984
-0.0804047
0.0505662
0.0950891
-0.157426
0.0117706
0.0416889
0.0157873
0.0332713
-0.0907476
0.103917
-0.108419
0.0434836
-0.00365964
0.0133573
-0.0121265
0.00242878
-0.00139249
-0.000153068
-0.000559914
0.00210548
-0.00289155
-0.00567233
0.00173643
0.00682745
0.0608149
-0.006209
-0.0184082
-0.0361978
-0.0567454
0.0282161
0.0285294
-0.0929511
-0.00757598
0.0119096
0.000706054
-0.000565482
-0.00153307
-0.118168
0.026532
0.00517774
0.086458
0.00123914
-0.0532514
-0.0102936
0.0623059
0.0456271
0.0290888
-0.101649
0.0269329
0.038473
-0.0433927
-0.019119
0.0240388
0.0484099
-0.0600641
0.0501272
0.0316923
-0.0564145
0.0496168
-0.0248946
0.0347125
-0.0360281
0.000290825
0.00102469
0.0162154
-0.142222
0.0913819
0.034625
0.00143119
-0.061774
-0.00391995
0.0521097
0.000361403
-0.107298
-0.0339361
-0.00867545
0.00689115
0.0357204
-0.0485586
0.0444157
0.0500153
-0.0458724
-0.0423305
0.0819951
-0.0396646
0.0104036
-0.102017
0.0482205
-0.0170479
0.00742455
0.0246774
-0.015054
-0.0880341
0.0936308
0.0362075
-0.0418041
0.0587191
0.0328632
-0.0828193
-0.00876301
-0.0460735
0.141656
0.0041518
-0.099734
-0.000546667
0.00290937
0.00366742
-0.00603012
0.0537111
-0.0720476
0.0830168
-0.0646803
0.0077906
-0.038972
-0.0082722
0.0394536
-0.0433675
0.031381
0.10334
-0.0913533
-0.0499876
-0.0264429
0.052866
0.0235645
-0.00954971
-0.000482454
0.00619665
0.00383551
-0.0112093
0.0239983
-0.0183826
0.00559361
-8.59107e-05
0.0743242
-0.0742383
0.0148893
-0.0439738
-0.0194742
0.048042
-0.0343292
-0.000570889
-0.0131419
0.00170459
-0.0266474
-0.0211204
0.0460631
0.0345495
-0.0344674
-8.21047e-05
0.0611749
-0.0417182
0.064317
-0.0837736
-0.0990238
0.097154
0.0984758
8.37807e-06
-0.0108407
-0.00177041
0.0126028
0.0494388
-0.000254632
5.70065e-05
0.000257353
-5.97275e-05
-0.00056544
0.0487558
-0.112258
0.0640674
-0.00855895
-0.00067568
0.00500375
0.00423088
0.0268861
0.00996055
-0.0368467
0.00123736
-0.00092395
-0.00887237
-0.0322961
-0.0400033
0.0142255
0.0572436
0.00100506
-0.0582487
0.072847
-0.0441355
-0.0511904
0.0224788
0.0016793
-0.0252093
-0.0207195
0.0693858
0.0430337
-0.0395725
-0.00804441
0.00929016
0.133446
-0.11946
0.0369297
-0.0509162
-0.0450179
0.036488
0.0218875
-0.0133576
-0.0526005
0.0523555
0.00024499
-0.0477777
0.0296445
0.0107042
-0.0467353
-0.0108513
0.0468824
-0.00213905
0.161189
-0.161146
0.00209626
0.107657
0.0159335
-0.0160669
0.0508046
0.00856184
-0.0512196
-0.00814685
-0.01455
0.00471413
0.0107591
-0.000923242
-0.0095649
-0.00542867
0.00471439
0.0102792
0.0660388
-0.0377358
-0.0526244
0.0243214
0.0295402
-0.0152718
0.0240515
-0.0383199
0.0267892
-0.0937435
0.0896781
-0.0227239
-0.00593403
0.000486532
-0.00910251
-0.0943318
0.106909
-0.0228789
0.0103012
-0.0114685
0.048154
0.0140482
-0.0507336
-0.00405846
-0.000729583
0.00320778
0.00158027
0.0839224
-0.00460681
0.0508986
-0.130214
3.60695e-05
-0.000677795
-4.79164e-05
0.000689642
-0.0671955
0.0589146
0.074169
-0.0658881
0.0031935
0.000726185
-0.00220148
-0.00171821
-0.0776133
0.0754147
0.0021986
0.063537
-0.0601303
-0.00340671
0.0604853
-0.00077278
-0.0597125
-0.0106811
0.123472
-0.000549128
-0.112242
0.00988053
-0.0310785
0.0328421
-0.02374
-2.38352e-05
-0.0562236
-0.0675339
0.0115291
0.0663831
-0.0103782
-0.0133541
-0.00214481
0.000101556
-0.000400465
3.80998e-06
0.0002951
0.00122787
-9.20449e-05
-0.00025551
-0.000880311
-0.0634884
0.00783908
-0.00145851
0.0571078
0.000357035
-0.00549713
0.0019639
0.0031762
0.0122976
-0.0147492
-5.96899e-05
0.00251122
0.00824062
-0.00673843
0.0107954
0.0555959
-0.00956712
-0.0225747
-0.0234541
0.0362078
-0.00533178
-0.0364246
0.00554855
9.97382e-05
0.066791
-0.000275011
-0.0666157
0.00758135
-0.0712183
0.0191576
0.0444794
-0.0431371
-0.0316586
0.0415761
0.0332196
-0.0354764
0.0218098
-0.0912674
0.104934
-0.000991697
0.0153441
-0.00785683
-0.0064956
0.0490259
-0.0588393
0.0473298
-0.0375164
-0.0626512
-0.00678557
-0.00800739
0.000998224
-0.000342137
0.00438019
-0.00503627
-0.0122009
-0.00274709
0.00177765
0.0131704
-0.0082379
-0.00939671
0.0109025
0.00673209
-0.000146585
-0.00223767
0.00146385
0.000920408
-0.0002801
0.000347857
-6.77576e-05
0.00160901
-0.0741352
-0.0276789
0.100205
-0.000150402
-1.26026e-05
-0.00146887
0.00163188
9.26693e-05
-0.000287687
-8.50816e-05
0.00265748
-0.0656042
-5.92975e-05
-7.49056e-05
0.00048206
0.000594259
0.000194697
-0.000373566
-0.00041539
-0.0281314
0.0630746
0.078585
-0.113528
-0.00925342
-0.00219909
0.00728835
0.00416416
-0.0146707
-0.000354052
0.00577129
-0.00539248
0.00551148
0.0133351
-0.0134541
-0.000354299
0.000528787
-0.000233786
-0.0667795
0.0675793
-0.00079974
0.0303501
0.0473097
-0.0600897
-0.01757
0.0115818
-0.0754143
-0.0213645
0.085197
-0.013664
0.0027237
0.00554778
-0.0045508
-0.00646859
-0.00264456
-0.0165413
0.0586521
0.0127616
-0.0548723
0.0693859
0.00486501
-0.0541785
-0.0200723
0.000250625
0.000411604
-0.00070973
4.75004e-05
-6.86981e-05
-0.000192931
-0.00267426
-0.00117034
-0.00139734
0.00524193
0.0650904
-0.0459274
0.012049
-0.031212
-0.000851263
-0.00268981
0.0013876
0.00215348
-0.0173457
0.0104086
-0.00270666
0.0096438
0.00122371
-0.10159
0.101524
-0.001158
0.00317303
0.000807227
-0.0106547
0.00667443
0.0104166
-0.0109115
0.00155126
-0.00105637
0.00992523
0.00405385
-0.010806
0.0367725
0.0562758
-0.0279579
-0.0272775
0.0548039
0.0281932
-0.0557195
0.0277532
-0.0550307
-0.000899467
0.00060693
-0.0329451
0.0124738
-0.010048
0.0792171
0.02336
0.00736095
0.0696934
-0.0541972
0.0978151
-0.113311
0.00482621
0.0926124
-0.0974386
-0.00698301
-0.0072638
0.01364
0.000606836
-0.0342142
-0.0869718
0.0275151
0.0936709
0.0217871
0.0615353
-0.0243341
-0.0589884
-0.0235297
0.113238
-0.0529355
-0.0418486
0.0448967
0.0517558
-0.055838
0.0558133
2.46952e-05
-0.0391095
0.0367171
0.00239244
0.0396565
-0.0779696
0.0725608
-0.0342477
0.0676525
-0.0841938
-0.0100157
-0.00812624
0.0111589
0.000735572
0.000623798
-0.000489571
-0.000869799
-0.00581968
-0.0426505
-0.00736785
0.00123139
0.00149345
-0.00263472
-9.01196e-05
-0.0574082
0.0518767
0.0855336
-0.0800021
0.0366998
-0.0336527
-0.0030471
0.0130474
0.0198908
-0.0137916
-0.0191466
0.00421977
-0.000398834
0.00218427
-0.00600521
-0.0644463
-0.000788331
0.0201117
0.0451229
-0.00295205
0.0066764
0.000495424
0.0389749
-0.109389
0.104736
-0.0343218
0.0460654
0.0133532
-0.0593709
-4.76371e-05
-0.00364916
0.00697763
0.00171441
-0.00504287
0.000153813
0.0606269
-0.0607807
0.0381608
0.00673006
0.0150893
-0.0599802
0.00433239
-0.00734242
0.00261121
-0.184413
0.0282751
0.163727
-0.00758848
0.0399044
-0.010934
-0.0289704
-0.00126188
-0.00151548
-0.00117849
0.00395585
-0.042133
0.046392
0.125168
-0.129427
-0.00192089
0.000690866
-0.00192241
0.00315244
0.0914278
-0.00210231
-0.0432601
0.000506305
-0.00126111
0.00204995
-0.00129515
-0.019128
-0.116762
0.0161043
0.119786
0.00370243
0.0524564
-0.00407529
-0.0520835
0.0486146
-0.0702381
0.0605074
-0.0388839
0.0319314
-0.0365659
0.0487463
-0.0441117
0.00832311
-0.00148585
0.00559703
-0.0124343
0.00125531
-0.0443795
0.0534088
-0.0537459
-0.0362288
0.0971811
0.0177142
-0.0243443
-0.090551
0.0466204
0.0188201
-0.133732
0.0682914
-0.0018967
-0.00863765
0.00631404
0.00422032
0.0277925
-0.0498494
-0.00324521
0.0288392
-0.0266029
0.00737748
-0.00588157
3.15359e-06
-0.00149906
-0.0863357
0.00263051
0.000172061
0.0713169
-0.149133
0.0776435
-0.0277161
-0.0874868
0.0409157
0.0742872
-0.0728538
0.0203814
0.0031783
0.0492941
-0.0431412
0.0290545
0.0102754
-0.0826631
0.0956422
-0.0129791
-0.0209343
-0.00944579
0.117717
-0.0873373
-0.00365243
-0.00381801
0.00611803
0.0013524
-0.0258023
0.0591825
0.040646
-0.0721682
0.0280327
-0.000825198
-0.00040771
-0.00103845
0.00227136
0.0466079
-0.0490247
0.0545265
-0.0376204
-0.00720614
-0.0448779
-0.123442
0.0476751
0.0757667
-0.0429215
-0.0325208
0.0276647
0.00304608
-0.00222225
0.000865998
-0.00168982
0.00291835
-0.000457932
0.000585664
-0.0864793
0.00366084
0.0828184
0.0613153
0.0125589
-0.122221
0.0483466
-0.0711246
0.000567015
0.0705576
0.00130745
-0.00165618
0.00857289
-0.00822416
0.0486981
0.156512
-0.226493
0.0212829
0.00189019
-0.0023348
0.00137417
-0.000929564
-0.0916442
0.0649424
0.0265318
0.00017
-0.000497683
-3.27867e-05
0.00196407
-0.0014336
-0.000631941
0.00835103
-0.00851812
0.000799027
0.00760407
0.00789775
-0.014762
-0.000739822
0.0407702
0.012427
0.00305086
-0.00279471
0.00163405
-0.0985285
0.105321
0.0070772
-0.0138701
0.0123965
-0.0674493
-0.0234437
0.0784966
0.00194153
-0.00445504
0.0876925
-0.085179
-0.0389915
-0.0358003
0.0850081
-0.0102162
-0.0407105
0.0245058
0.0406032
-0.0243985
0.0536171
0.0206671
-0.0721422
-0.00214201
-0.00122705
0.000177898
0.00141601
-0.00036686
-0.12363
-0.0432455
0.0397303
0.127145
0.0483641
-0.03766
-0.0319261
-0.037613
-0.0310325
0.100572
-0.00182969
0.0042618
0.000463373
-0.00289549
-0.0309474
-0.0806028
0.0287042
0.082846
-0.0297108
-0.0284632
0.0205536
-0.000721355
-0.00333059
-0.00164047
0.00309806
-0.00381539
0.0023578
-0.00573127
0.00560395
0.0252908
-0.0773899
-0.0854454
0.137545
-0.000527309
-0.000110249
0.000312183
0.000325375
0.0571292
-0.0602985
0.0480774
-0.0449081
-0.0149236
0.0446978
-0.00788452
-0.0218896
0.0869241
-0.0863833
-0.0187265
0.0181857
0.0265837
0.022202
-0.0634615
0.0146759
-0.127255
0.0738898
0.0183387
0.0350265
-0.00533501
0.00325012
9.0067e-05
0.00199483
-0.00825698
0.00971469
-0.000150262
-0.0134715
-0.00372279
0.0179506
-0.000756249
-0.0616819
-0.00480608
0.0139416
0.0525464
-0.00809609
0.103147
-0.00514761
-0.0899029
0.00889908
-0.0474629
0.0808283
-0.0422645
-0.00145864
0.00417843
-0.00147952
-0.00124027
-0.0152576
0.000337404
-0.00204871
0.0169689
-0.105985
0.0049296
0.0130308
0.0880244
-5.2951e-05
-0.000297319
0.000521963
-0.000171693
0.0372767
0.00801923
0.0270787
-0.00504514
0.0464212
0.0527517
-0.0941278
-0.00022614
0.000386234
-0.000213045
-0.000509313
0.00219495
-0.00149833
-0.000187301
0.0172416
0.111373
-0.0479322
-0.0806829
-0.00025198
-4.53388e-05
0.000126439
-0.000378419
0.0618299
0.0170292
-0.0922647
0.0134055
-0.157169
0.0860122
0.0772075
-0.00605086
-0.0181298
0.000189155
-0.0515253
0.069466
0.0248702
-0.0145148
0.0167198
-0.0270752
-0.0664596
-0.0230971
0.0895567
-0.0780273
0.0387342
0.0392931
-0.00180094
-0.000401823
0.000763476
0.00143929
-0.0378984
0.0410124
0.00777751
-0.0108916
0.0465159
-0.0545077
0.00799182
-0.0604633
0.033616
0.045058
-0.0182107
0.004535
-0.00280852
-0.00156278
-0.000163704
-0.00326834
-0.00246791
0.00040124
-0.0422125
-0.0417903
0.047072
0.0142012
0.00262355
-0.0638967
0.00191497
8.20441e-05
-0.00166365
-0.000333358
0.00350644
0.00662072
0.00252978
-0.0126569
0.0071088
0.022875
-0.0409775
0.0109938
-0.0190403
-0.0154052
-0.00923039
0.0436759
-0.074973
-0.010039
0.0293807
0.0556313
-0.00183604
0.0152036
-0.00830183
-0.00506573
-0.052935
0.0006292
0.0332655
-0.000206984
0.0253553
-0.135699
0.126342
-0.0159983
0.0285862
-0.0345695
-0.0518028
-0.0271131
0.0548663
-0.000416528
0.0407
0.00372219
-0.0440057
-0.0551225
-0.0599584
0.115081
-0.00323894
-0.00103616
-0.00176092
0.00603602
0.00316506
-0.00479429
0.00171456
-8.53316e-05
0.036943
-0.00637192
-0.028194
-0.00237709
-0.00326871
-0.00232376
0.00235353
0.00350981
-0.0107898
0.0659842
-0.0587042
0.0761601
-0.000254051
0.0271614
0.00980977
-0.00685872
-0.0301125
0.0586242
-0.000792685
-0.0578315
-0.0530204
0.113775
-0.0284237
0.0596856
0.020092
-0.0513539
-0.0169491
-0.0254382
0.0178945
0.0244927
0.00307652
0.00377111
0.00086229
-0.00770991
-0.0342132
-0.0379635
0.0993342
-0.0271575
0.0454093
-0.0367906
-0.000626683
-0.00799197
-0.0488343
0.116138
-0.0519335
-0.0153706
-0.00132687
0.00159632
-7.70123e-05
-0.000192438
-0.000531041
0.0214186
-0.00485698
-0.0160305
0.00307394
0.00380275
0.000281996
-0.00715869
-0.000293634
-4.18605e-05
2.9033e-05
0.000306462
3.96434e-05
-1.04721e-05
-0.000322806
-0.00926696
0.0230752
0.07027
-0.0840783
0.0798919
-0.0814078
0.00151584
0.000286434
-0.000276865
-9.56891e-06
-0.0127144
0.000976993
0.00231092
-0.00132436
-0.00196356
-0.00832707
-0.00646153
0.00620689
0.00858172
-0.0557564
0.0273327
0.000302135
0.000219415
-0.000787137
0.000265587
0.0334983
0.0552358
-0.0352883
-0.0534458
0.0117813
0.159556
-0.179895
0.00855723
0.0582912
0.0632943
-0.0618999
0.00190796
-0.0136648
-0.0018736
0.0136304
-0.0334042
-0.0301121
0.0635162
0.0311183
-0.0645225
-0.0544508
-0.0450375
-0.0655528
0.165041
0.0496905
-0.0555247
0.00583426
-0.0728604
0.134781
-0.0714877
0.0329694
-0.0299993
0.0860543
-0.00347882
-0.0690244
-0.0135511
0.0697546
-0.0699584
0.0115517
-0.0113479
0.000136637
-0.006235
0.0071649
-0.00106654
0.000585747
-0.00449516
0.00679158
-0.00288217
-0.000239955
0.00022582
0.000648573
-0.000634438
0.0221952
0.0233457
-0.0337671
-0.0117738
-0.00541801
-0.00490163
0.00620945
0.00411019
-0.0109031
0.0320895
-0.0427573
0.0215709
0.00114262
-0.00857316
0.0106865
-0.00325594
0.0484971
-0.00415016
-0.0443469
0.0380471
0.0357451
-0.126568
0.0527758
-0.097899
0.0599838
0.0759623
0.032978
-0.0997587
-0.0469278
0.107882
-0.0370639
-0.0238899
0.00162871
0.00923928
-0.012462
0.00159403
0.0272239
-0.00229327
-0.0249306
-0.0305188
0.0435748
-0.00391525
0.0202922
-0.0314662
0.000940403
-0.000200916
0.00110775
-0.00184724
0.0117527
-0.0383556
-0.000538866
0.000169296
0.000336801
3.27687e-05
0.00279722
-0.000417584
0.00108535
-0.00346498
-0.000749948
-0.00257728
-0.078193
-0.0127594
0.00155734
-0.0119087
0.0231107
0.0201498
-0.0905765
0.0208505
0.0495762
-0.00340677
0.0581914
-0.08185
0.0270653
0.000699059
-0.000432646
0.000336358
-0.000602771
0.0792128
0.0125313
0.00229613
-0.0940402
-0.000347647
-0.000779298
0.00122371
-9.67677e-05
0.00498272
-0.000862631
-0.0690256
0.0649055
0.00679499
-0.00117024
-0.00506422
-0.000560527
0.00651186
0.00462449
-0.00369495
-0.0074414
-0.110457
0.0964767
-0.0875959
0.101577
-0.0540959
0.109184
-0.0550876
0.00232238
-0.0437358
0.0086567
0.0327568
0.00373296
-0.00352239
0.000687209
-0.000897779
0.0492684
-0.00270704
0.00117423
-0.129528
0.00243019
0.074077
-0.0341887
0.000119349
0.00134098
0.0326563
-0.0264715
-0.00752579
0.0781815
-0.0307725
0.034208
0.00419111
-0.00512046
9.84497e-05
0.000830895
0.0343347
0.0238514
-0.0758677
0.0176816
6.322e-07
3.32252e-05
-9.82479e-05
6.43906e-05
-0.00047552
0.00153706
0.00545032
0.000145963
-0.00809465
0.00657733
0.00570843
0.0746284
0.0407454
-0.0370562
-0.0783177
-0.131044
0.142072
-0.00935353
-0.00167451
0.0315302
-0.0326897
0.00115946
-0.036865
8.25111e-05
0.000378429
-0.00323642
-0.00226247
0.0146542
0.206768
-0.158927
-0.0624956
0.0293361
-0.0610133
-0.0180651
0.0497424
-0.00309173
0.0389673
-0.00100072
-0.0852441
0.0472775
-0.0231368
0.0101233
-0.0379929
0.0477012
0.0461789
-0.0558872
-0.0668103
0.0895583
-0.152158
0.12941
-0.000202448
4.75731e-05
-0.00145387
0.00160875
0.000183568
0.00231291
-0.000621558
-0.00187492
0.0432349
-0.0144059
0.0379916
-0.0668207
-0.00357118
0.000341728
0.00344711
-0.000217658
-0.0118047
0.0105097
-0.036698
0.012214
-0.0462208
0.00593891
-0.00326049
0.0185861
-0.0212645
-0.137765
0.0188988
0.129767
-0.0109016
0.031017
-0.021487
-0.0131458
0.00361581
0.0344588
-0.0529292
0.00666575
0.0044036
0.00772817
0.0521363
-0.0642681
0.0247299
-0.00710349
-0.0251679
0.00754151
-0.0794789
-0.00841229
0.0148276
0.00124927
-0.00111967
5.39711e-05
-0.000207544
0.00289552
0.0021174
-0.00480538
0.0184422
-0.0321331
0.0384208
0.0179795
-0.143335
-0.023004
0.148359
-0.113699
-0.0150473
0.0263024
0.102444
0.057083
-0.0348268
0.028419
-0.0506752
0.112023
-0.0061282
0.00314163
-0.109036
-0.016975
-0.037088
-0.00423278
-0.016402
0.0082789
0.0123559
-0.0013134
0.000456735
-1.46041e-06
0.00085812
0.0153158
-0.0777933
0.0624775
0.10871
-0.00703441
-0.112357
-0.0264036
0.0558488
-0.0464202
0.0397192
-0.122241
0.0150414
0.0674805
-0.00395372
-0.0122046
-0.0269216
0.0430799
0.00376966
0.050285
0.0860077
-0.134585
-0.00170778
0.0492239
-0.083001
0.0890908
-0.0553137
-0.0959352
0.0959659
-0.0074677
0.00743703
0.00261334
0.00448341
-0.0950627
0.0879659
-0.00177165
0.00362181
0.0061189
-0.00796906
0.000251341
-0.00096667
-0.000288365
0.00100369
0.089009
0.000717082
-0.0173628
-0.0723633
-0.000777646
0.000753823
2.84549e-05
-4.63162e-06
0.000727002
0.00329992
-0.00230279
-0.00172413
-0.00182019
-0.000680534