/*--------------------------------*- C++ -*----------------------------------*\
| =========                 |                                                 |
| \\      /  F ield         | OpenFOAM: The Open Source CFD Toolbox           |
|  \\    /   O peration     | Version:  2506                                  |
|   \\  /    A nd           | Website:  www.openfoam.com                      |
|    \\/     M anipulation  |                                                 |
\*---------------------------------------------------------------------------*/
FoamFile
{
    version     2.0;
    format      ascii;
    arch        "LSB;label=32;scalar=64";
    class       volVectorField;
    location    "0.075283";
    object      U;
}
// * * * * * * * * * * * * * * * * * * * * * * * * * * * * * * * * * * * * * //

dimensions      [0 1 -1 0 0 0 0];

internalField   nonuniform List<vector> 
47425
(
(10.2764 0.214526 0.00449737)
(10.1094 -0.233418 -0.0051296)
(9.99578 0.00221133 -0.0102964)
(11.6114 -0.534657 -0.243139)
(12.6519 0.350649 0.706186)
(10.0307 0.00855808 -0.00114975)
(12.5544 0.186271 0.700441)
(10.0233 0.00958282 0.000587263)
(10.0046 0.00859262 0.00571524)
(1.37352 3.72363 -1.9522)
(10.0006 0.0121304 -0.000777995)
(9.98929 0.0668076 -0.00767162)
(12.3467 0.330066 0.236614)
(10.0048 0.00314775 -0.00821391)
(11.2103 0.0726205 -0.150205)
(10.1134 -0.217568 -0.0030664)
(10.0173 0.00112853 -0.0057644)
(8.79935 -0.539706 -1.51967)
(8.70149 1.33379 -5.14108)
(13.7189 -0.519289 -1.12459)
(10.9466 -0.697482 -0.623681)
(9.79973 -0.0418234 -0.0254183)
(9.95701 0.0215181 -0.00548069)
(9.94989 0.011211 0.0127022)
(9.90393 -0.0828861 -0.00466939)
(10.0165 0.0321228 0.00253145)
(9.99697 0.0227331 -0.00431292)
(11.541 -0.421572 -8.95902)
(10.004 0.018108 -0.00522029)
(10.0119 0.0214161 0.0206542)
(9.69012 0.753299 0.00747719)
(10.0441 0.0906408 -0.000917407)
(10.0017 0.00680864 0.0058753)
(9.98804 0.0111476 0.0123443)
(10.0086 0.00418776 0.00525933)
(9.97062 -0.00357306 0.00544049)
(9.73961 -0.02232 -0.0920071)
(10.0015 0.0163999 0.00764526)
(10.5521 0.44088 -0.0212053)
(10.1033 0.0696388 0.0116732)
(9.85752 0.18158 -0.00532872)
(9.39039 0.165703 -0.83785)
(5.70259 -2.7709 -0.570783)
(9.98328 0.0133922 0.00522341)
(0.0697842 -1.9448 -0.00638066)
(9.96718 0.0817195 -0.00653384)
(9.96349 -0.00370842 -0.0157312)
(9.99524 0.0294636 0.00549097)
(10.1114 -0.0902443 -0.00359188)
(10.0665 0.00878673 -0.00766566)
(2.16127 -0.632574 -5.91375)
(9.03003 1.26805 1.37191)
(10.0527 -0.0132989 0.0031182)
(6.45828 -4.84496 1.60068)
(10.0027 0.0527798 -0.00410197)
(10.2112 0.0167506 0.0211463)
(10.2816 -0.183211 0.0267197)
(10.0079 0.00416762 0.0206569)
(11.9959 1.37921 1.55688)
(9.9966 0.0261056 0.00826993)
(5.37223 -4.78349 1.05173)
(5.40277 -0.726227 2.26561)
(3.34827 -2.25478 0.303329)
(9.04114 -1.18829 -0.0973852)
(10.0075 0.0106928 -0.00664383)
(10.8342 -0.372306 -0.00783542)
(9.98706 -0.0109825 -0.0065787)
(10.7749 0.267865 0.633259)
(7.65928 -3.74081 1.9609)
(8.98164 0.568343 0.296487)
(10.8162 -0.656575 0.134733)
(10.0613 0.0142568 -0.000932322)
(11.0219 -0.169252 -0.0222311)
(10.8723 0.298716 -0.643505)
(3.3396 1.16769 0.0123629)
(9.9989 -0.00379633 0.000822745)
(3.49016 -2.0568 0.959416)
(9.97198 -0.0182244 0.00858625)
(5.94247 -2.22529 1.31565)
(11.9943 -0.109414 1.50931)
(3.79167 0.778263 0.14263)
(10.2239 0.346895 -0.0123578)
(9.18451 0.147856 -0.342562)
(10.0136 0.0129207 -0.0065421)
(9.58706 -0.00260546 0.0874178)
(10.3186 -0.0649472 0.0181778)
(10.8576 -0.109624 -0.0495251)
(10.1836 0.125843 -0.00357405)
(11.1371 -0.0660345 -1.59837)
(11.0862 -0.729003 2.04531)
(9.75622 0.449426 -0.0505878)
(10.7106 -0.00560159 -0.0394403)
(10.0529 -0.00319347 0.0105165)
(10.1826 -0.0560806 0.00750054)
(10.138 -0.0552383 0.0162039)
(10.0912 -0.010965 -0.0027547)
(10.0509 -0.0170396 -0.00670304)
(10.3985 -0.316265 -0.00637568)
(10.2269 -0.0468634 0.00718895)
(10.0435 0.0179596 0.0270388)
(10.021 0.037353 0.00242639)
(8.74127 0.123394 -4.15562)
(10.3025 0.18707 -0.00535724)
(5.32355 1.94701 -0.801975)
(10.3092 0.163952 -0.0331323)
(10.7708 -0.764422 0.0335688)
(10.1711 0.293109 0.0738973)
(10.2027 -0.0822453 -0.00198986)
(8.72457 -0.138519 -0.45122)
(9.96057 0.0782972 -0.00423319)
(-0.327986 -1.07472 -0.547371)
(10.0043 -0.0801408 0.00119415)
(10.6983 -0.963019 0.0773656)
(10.3534 -0.0205594 -0.00873347)
(11.0276 -0.43722 0.0229519)
(1.79134 -4.15394 -5.93364)
(11.0278 -0.389952 0.0110246)
(4.06984 0.0378864 -4.4364)
(10.387 0.161447 -0.00167821)
(11.2158 0.387869 0.415172)
(10.4381 -0.0605604 -0.00415351)
(10.0002 0.00381438 0.00547753)
(9.99852 0.0525451 -0.00458949)
(11.8617 0.770386 -0.751201)
(10.0649 -0.0480906 -0.00251754)
(10.9795 -0.816642 0.0494726)
(10.2704 -0.1013 0.000869979)
(10.0073 0.00376283 -0.00683993)
(9.95385 0.0114561 0.00724458)
(10.0065 0.0285712 -0.0106185)
(9.19747 -0.309364 0.294043)
(10.6729 0.405506 -0.0451955)
(4.2988 0.0475235 0.480356)
(10.3832 -0.53503 0.0266366)
(10.0045 -0.100367 -0.925782)
(12.1781 -0.531909 -0.943837)
(10.8956 0.89806 0.258632)
(10.9956 -0.858549 0.18114)
(10.1503 -0.0902165 -0.00653503)
(11.1582 -0.0288048 -0.0573682)
(9.98219 0.00694335 0.00288747)
(12.0175 0.277268 0.295506)
(10.5157 0.0410143 -0.0347221)
(10.7152 -1.22734 0.126573)
(10.1931 0.227336 -0.0120515)
(10.0046 0.00523002 0.00562055)
(12.4632 0.193325 0.78798)
(10.0116 -0.0295973 0.0066077)
(10.4679 0.0237039 -0.0160832)
(9.97578 -0.017098 0.00678391)
(10.6315 -1.24824 -0.0153098)
(2.92867 -0.389645 -6.92311)
(10.0069 0.0147825 -0.0101567)
(5.60976 0.0953338 -11.4906)
(8.96772 -1.18127 -0.767801)
(9.97392 0.0939498 0.0143329)
(11.0355 0.472571 -1.70685)
(7.37637 -3.95923 -2.6645)
(10.1511 -0.0675943 0.0141076)
(9.99 -0.0101775 -0.00403605)
(11.2963 -0.257254 0.00115509)
(10.0206 0.0542059 0.0108387)
(10.0154 0.0101182 0.00822732)
(10.16 0.306228 -0.0107384)
(12.0694 0.191735 -0.514794)
(-0.50005 -1.73033 -2.08281)
(10.0143 -0.028968 -9.64766e-05)
(3.74698 1.01177 -0.0137406)
(9.94807 -0.00926481 0.022646)
(12.18 0.72916 -4.34851)
(4.81117 0.780295 -0.152404)
(9.98606 -0.00469415 0.00624299)
(10.0009 0.0237627 -0.00342032)
(9.44311 -0.991278 -0.670525)
(10.3051 -0.0286128 0.0241911)
(9.29989 -3.05298 -1.40094)
(2.7731 0.970759 -7.71048)
(10.0055 0.0227596 -0.00402331)
(10.0288 0.0117049 0.000496207)
(10.0515 0.0115566 0.000727599)
(2.61683 0.43173 -11.0453)
(10.076 -0.14059 0.0212179)
(10.0189 0.0146459 -0.00227155)
(10.0227 0.00786877 0.0139625)
(10.038 0.000989967 -0.000341572)
(10.0266 0.023694 0.0044118)
(10.2145 0.0866279 0.00184812)
(5.65839 -0.534454 -0.683187)
(9.83339 0.0068573 -0.0129427)
(10.1608 0.187099 0.0673625)
(10.0006 -0.00988307 -0.00350897)
(9.98733 0.0015707 -0.00222563)
(12.2491 -0.756277 -0.662996)
(9.9972 0.00178753 0.00378582)
(10.02 0.00499837 0.0274245)
(11.213 0.00757233 -0.0389977)
(10.0021 0.00119416 0.00741614)
(10.0231 -0.0113621 0.0115931)
(11.3816 0.0852274 -0.0421562)
(10.3777 -0.252212 0.0763044)
(9.98115 0.0130803 0.00413192)
(10.4335 -0.0493071 0.0110753)
(9.17004 0.312867 -0.213543)
(11.1854 -0.147249 -0.0376261)
(10.3267 -1.47707 -0.970441)
(10.6754 -0.0149707 -0.0450757)
(10.0002 -0.0104718 0.0106151)
(11.158 -0.0482604 -0.0377263)
(9.99869 0.0896432 -0.0140037)
(10.0027 0.0131847 -0.00291766)
(10.351 -0.169683 0.000922788)
(11.1562 0.12422 -0.0108708)
(10.0066 0.0246073 -0.000669137)
(9.9524 -0.0237497 0.0236793)
(10.7441 -0.0587318 0.0237248)
(11.3892 0.153449 -0.161707)
(10.8225 0.0289659 -0.0690497)
(11.2506 0.192954 1.73379)
(8.69667 -1.29736 -0.690862)
(9.94448 -0.0397082 0.0102887)
(11.8531 -0.504288 1.49194)
(11.2274 0.186127 0.1842)
(9.98854 -1.19724 -1.01665)
(10.9075 0.169512 -0.0224482)
(10.6589 -0.00735388 -0.0314145)
(11.9495 -0.742371 1.39991)
(10.0342 0.00405091 0.00998858)
(11.3056 0.173499 -0.0626598)
(11.4987 0.22576 0.0666355)
(12.0139 -0.0470392 -0.308885)
(10.8225 0.0294478 -0.064684)
(10.0052 -0.0139025 -0.00636283)
(10.5475 -0.0934361 -0.0101868)
(10.0008 -0.00444172 -0.000584758)
(9.78022 -0.00833512 -0.00516501)
(10.0144 0.264803 0.0116094)
(11.797 -0.0639311 1.5482)
(9.97922 0.0323882 0.00343023)
(12.12 0.00587925 1.37819)
(9.77111 0.00109787 -0.045709)
(9.86373 -0.0154171 -0.00883727)
(10.0036 0.00630884 0.015053)
(10.076 -0.0217653 0.00141842)
(11.7646 0.808685 0.0651897)
(10.404 0.452682 0.00830059)
(10.0077 -0.0028609 0.0119646)
(10.3827 -0.0755786 -0.00774914)
(10.0107 -0.000213663 0.00284612)
(10.0263 -0.0167172 0.00557137)
(9.97059 -0.00221157 -0.0134798)
(9.99703 0.0682955 0.022045)
(11.9781 -0.425966 1.52355)
(9.96853 -4.66398e-05 0.00572199)
(10.0034 0.00418069 0.00559684)
(9.92353 0.00432672 0.00513757)
(9.99778 -0.00213355 -0.00779986)
(9.85255 0.0664735 -0.0310172)
(9.73988 0.0145184 0.0109293)
(10.4461 -0.691558 0.12265)
(10.0098 0.000524544 -0.00679419)
(9.73955 0.0248222 0.00939631)
(9.99902 0.0254685 -0.000684002)
(10.2281 0.0544035 -0.01009)
(10.1276 0.0124214 0.00624425)
(11.9299 0.0356224 0.828437)
(10.3975 -0.48747 -0.134024)
(10.0344 0.00238191 -0.00967388)
(12.009 0.0601391 0.653667)
(10.0183 0.00191168 0.000537029)
(10.2413 0.0888501 -0.00725056)
(10.1967 0.0543737 -0.000832754)
(12.2077 0.137757 1.14621)
(11.6775 0.121633 1.38826)
(10.1706 -0.167171 -0.0225416)
(12.0696 -0.165586 1.5179)
(10.0595 0.00371781 0.00245662)
(12.1404 -0.00376427 1.34508)
(6.64075 3.35611 2.18125)
(11.6537 0.000699184 1.46804)
(5.9337 1.27812 -5.27373)
(4.68414 -4.95039 0.94224)
(10.2552 0.17834 0.0065634)
(3.62235 -4.61052 0.194775)
(9.87588 -0.00967119 0.0100822)
(9.99783 -0.00196248 0.00926784)
(11.3375 -0.165468 0.0168139)
(9.90282 -0.00654078 0.00838545)
(9.95922 0.00189189 -0.011204)
(9.80569 -0.19708 -0.000291035)
(11.0623 -0.520804 -0.12289)
(1.38307 1.73908 -3.69944)
(9.22773 0.819609 -0.0177682)
(10.0028 -0.00167786 -0.00221641)
(10.0127 -0.00652341 -0.0218449)
(9.99879 0.0017445 -0.00932281)
(10.1914 0.386905 0.426326)
(11.6856 0.902998 0.23965)
(10.202 -0.707389 0.0922605)
(10.0105 -0.136865 0.0107905)
(11.9389 -0.137602 0.0927106)
(10.1397 0.165983 0.0334779)
(10.0788 0.0313075 0.00488493)
(9.95933 -0.0162696 0.00372063)
(10.0223 -0.0018644 -0.0118302)
(10.2058 4.13324 -0.550512)
(5.85229 1.78549 -0.471012)
(1.50578 1.20931 -6.37518)
(10.0358 0.00289158 -0.0044988)
(10.0884 -0.0367305 0.0087693)
(10.0461 -0.639404 -0.0689501)
(10.1718 -0.503125 -0.157226)
(1.25661 -0.765026 -5.89649)
(9.98119 -0.000417666 -0.0149114)
(9.95383 -0.000440563 -0.0154918)
(10.8787 2.3088 0.753552)
(10.2504 -0.140769 0.0208951)
(9.85724 0.00519947 -0.000543127)
(9.81642 0.0008907 0.00758269)
(9.90535 0.00291871 0.00416947)
(12.4458 2.49673 -1.02962)
(11.2847 2.00939 0.659823)
(10.0364 0.191172 -0.0100713)
(10.1047 0.138689 -0.00707137)
(10.0206 -0.00617997 0.00746849)
(10.2923 -0.0346716 0.00787859)
(10.049 0.00163383 0.00359309)
(10.0823 0.243441 4.77966e-05)
(10.137 0.0436227 0.00779863)
(10.0482 -0.0137352 -0.0118796)
(9.984 -0.0135923 0.00423784)
(11.5036 -0.0703416 0.253285)
(9.21518 0.297526 -0.308499)
(10.6191 -0.732885 -1.39431)
(10.0006 0.0171083 -0.00634782)
(9.96593 -0.00731165 0.0074249)
(10.0352 0.00916949 0.0122571)
(9.35763 0.667153 -0.330224)
(9.97496 0.104023 0.000661839)
(10.0319 0.0197807 0.00165178)
(10.0187 -0.0209331 -0.0167006)
(10.0025 0.258082 -0.0482144)
(10.0052 0.286574 -0.0484622)
(10.1401 0.09723 0.0127008)
(9.93917 0.271901 -0.0356615)
(10.0427 -0.0188024 -0.0057904)
(10.0436 0.00676397 0.00450996)
(9.99498 0.00258842 0.0176676)
(9.6583 0.462835 -0.200144)
(9.95283 -0.000425434 -0.00387632)
(9.9545 -0.021743 0.00190378)
(9.99213 0.236009 -0.045204)
(10.4254 -0.470063 -0.0827339)
(10.0806 0.252212 -0.0219865)
(9.95061 0.203875 -0.0274304)
(10.0003 0.1925 -0.0411086)
(11.1951 -1.38458 -0.227015)
(9.94258 0.00440704 -0.000442119)
(9.19743 0.24928 0.0538078)
(9.97428 0.151312 -0.0214637)
(9.99531 0.0223766 -0.00795933)
(9.49456 0.318975 1.9332)
(11.548 -0.000831419 -0.489485)
(10.1004 -0.030599 0.00720395)
(9.93644 0.00144324 -0.00428364)
(10.3584 -0.440846 -0.0145175)
(10.7818 0.468638 -0.0717603)
(9.79452 0.00149493 -0.0109993)
(10.0111 -0.00641997 -0.00875531)
(9.9958 -0.138037 0.0103329)
(10.2509 0.750033 -0.126063)
(9.83048 -0.00351188 -0.00930502)
(-0.857445 -1.91593 -0.312243)
(10.7568 -0.104597 0.0196013)
(10.062 0.986255 -0.107096)
(9.97932 -0.00177731 0.00743818)
(10.054 0.87084 -0.0827659)
(10.9703 0.148436 -0.676844)
(10.0119 -0.002703 -0.00124246)
(10.0034 0.00574387 0.00433679)
(9.769 -0.0199093 -0.0749206)
(10.0112 0.00322046 0.00468355)
(10.0732 0.882574 -0.133314)
(10.1205 -0.102717 -0.00226772)
(10.0057 0.0236079 0.00661323)
(9.95028 -0.0346455 -0.00148198)
(10.0019 0.0181351 0.00592936)
(9.98851 -0.0115344 0.00590151)
(10.2315 0.17936 -0.00826465)
(10.0008 0.00673519 0.00834456)
(9.97899 0.0243122 0.00723339)
(10.5713 0.929913 -0.346816)
(10.3692 1.13871 -0.399236)
(9.96143 -0.0108233 0.00242566)
(10.5054 -0.539062 0.0100401)
(9.97756 -0.0089509 0.0153633)
(10.4967 0.872555 -0.305086)
(9.96033 -0.0697585 0.00436481)
(9.97767 -0.00248959 -0.00102723)
(12.2383 0.572012 -0.476242)
(10.0448 0.00901013 -0.0139839)
(10.708 -0.0569688 1.24501)
(10.0669 0.00201114 0.00228645)
(9.77641 1.43511 -2.36448)
(9.93913 0.000488232 -0.0133222)
(10.7199 0.138867 0.0109313)
(9.95071 0.000717695 -0.0179502)
(10.0275 0.026946 -0.00833962)
(9.82119 0.011994 0.000849432)
(10.0372 0.00493677 0.00833269)
(9.97938 0.00118373 -0.0183574)
(10.3669 1.0191 -0.306276)
(1.13127 -1.73539 0.807398)
(2.04027 -0.69999 -2.62671)
(10.0926 0.0777467 0.00739385)
(10.3786 1.53438 -0.952091)
(10.7626 0.762374 -0.346589)
(10.8637 0.718949 -0.335905)
(9.98878 -0.0149632 0.0220264)
(9.99252 0.00660341 0.00500567)
(9.96336 0.0203548 0.0117084)
(9.87252 0.00663305 0.000416612)
(9.95966 0.00313499 0.000111078)
(10.1607 -0.244684 0.00561142)
(10.8726 0.657224 -0.23032)
(9.94761 -0.0218797 0.00403729)
(10.0398 0.0104513 0.00876134)
(11.5663 -1.14343 0.0982349)
(11.5947 0.52844 -0.240127)
(11.2211 0.596615 -0.193069)
(8.1108 -1.33056 -5.20582)
(-0.0267991 3.59687 0.573321)
(10.6851 -0.316785 0.0279533)
(7.45061 -0.983358 -5.75198)
(-0.0866292 3.42815 0.821919)
(9.80779 -0.214245 -0.00972487)
(-0.134218 3.49309 0.730001)
(9.38779 -0.599377 1.05249)
(10.0067 -0.063016 0.0140093)
(11.1134 0.667106 -0.362314)
(11.0592 0.726317 -0.389581)
(11.3577 0.62772 -0.354793)
(-0.964951 2.58608 1.00849)
(10.2272 0.13182 0.00579652)
(10.0119 0.0283836 -0.00475247)
(10.0011 -0.00694757 -0.00873751)
(11.4334 0.663245 -0.468588)
(11.302 0.706301 -0.533858)
(10.1074 0.0198145 0.020051)
(10.1263 0.129939 0.0276818)
(9.7392 3.24107 2.00119)
(-0.850428 2.611 1.02267)
(13.0595 -0.537793 -3.18368)
(10.0063 -0.0142453 0.00828888)
(8.83658 -0.760429 -3.36989)
(10.2974 0.495606 1.22256)
(10.0008 -0.0759922 0.00253849)
(11.0278 0.480627 -0.0587901)
(12.1427 0.229227 0.247119)
(11.007 0.391284 -0.0480915)
(9.99469 -0.017843 0.00496458)
(9.99866 -0.00470511 0.00707868)
(9.98283 -0.0065942 0.000759835)
(10.4667 0.41935 -0.0178656)
(9.99929 0.0018892 -0.000434122)
(9.98926 -0.0209509 0.0187119)
(10.1556 0.0748153 -0.0172832)
(9.95959 -9.10307e-05 -0.0227517)
(11.1956 0.261852 -0.0706391)
(10.0139 -0.0154743 -0.0197555)
(9.97464 0.0304424 0.00125641)
(9.99599 -0.0194189 0.00179312)
(10.0056 -0.00722778 0.0088843)
(9.9625 -0.000349091 0.00477736)
(10.3923 0.342806 -0.0172152)
(10.1005 0.0533156 0.000310431)
(10.0987 0.0145509 0.0290956)
(11.1066 0.268675 -0.0623109)
(8.75117 3.64246 1.58824)
(9.97262 -0.00455738 -0.00101671)
(12.0427 1.53304 -1.53953)
(9.99704 -0.00849802 -0.00284319)
(11.0168 -0.0227311 -0.0446511)
(7.21244 -0.717688 2.41012)
(9.77998 1.45387 -0.645369)
(10.011 0.0272678 -0.00897592)
(9.84955 1.53604 -0.720218)
(10.0078 0.0255706 0.00694032)
(10.034 -0.0137952 -0.00744824)
(10.0979 1.31952 -0.949423)
(9.98098 -0.00519209 0.0126938)
(10.7814 -0.233559 0.00838066)
(9.97008 1.21614 -0.668142)
(10.3151 -0.0804611 0.0211005)
(10.6525 0.0937956 -0.283896)
(8.26367 0.327461 -4.22324)
(10.088 -0.0420708 0.0138827)
(9.6268 1.91869 -0.67443)
(10.0499 -0.0177855 0.00238501)
(9.04208 2.0458 -1.10018)
(10.1372 -0.144532 0.0358879)
(10.0142 -0.00656954 0.00734017)
(9.99557 0.0210426 0.00135999)
(9.99833 0.00997409 -0.0156651)
(10.7019 1.11563 0.844515)
(9.96346 0.00714053 -0.0177654)
(10.003 0.00849312 -0.0220522)
(10.029 -0.0339798 0.00971661)
(9.9464 0.108981 0.0444127)
(11.1584 0.705626 -0.0184471)
(10.0203 0.00709646 0.00102431)
(10.009 0.00801199 0.000392074)
(8.63478 0.324653 -0.648557)
(9.97794 -0.00534775 -0.00375987)
(9.81428 0.141315 -0.00832744)
(10.1078 -0.191134 0.0560465)
(10.0758 0.0343281 -0.00820498)
(10.0605 -0.00141774 0.00178664)
(9.95196 0.0200034 0.00870926)
(10.0959 0.0335417 -0.0047305)
(10.3792 1.35602 -1.10867)
(10.0034 0.00988801 0.00683209)
(9.98896 0.00450488 0.00281471)
(3.03339 -0.564548 -5.92051)
(9.98039 -0.00796773 0.00947074)
(10.0124 -0.0109406 0.00290677)
(9.98096 0.133735 -0.0209943)
(10.0042 0.0110597 0.00684908)
(12.6552 1.39099 -0.876586)
(12.7702 1.08836 -0.646387)
(9.96521 -0.00624097 5.43052e-05)
(9.89734 -0.121943 0.00755156)
(9.88693 0.0248135 0.0192497)
(11.6152 0.142712 1.25866)
(10.0502 0.0621547 -0.00716548)
(12.7901 1.24772 -0.731773)
(9.9995 0.00616637 -0.00336164)
(-1.84659 -0.44907 1.29964)
(8.16614 -0.549384 -0.7495)
(9.13187 -0.900508 1.7675)
(10.0111 0.0142592 0.0172522)
(12.72 1.19303 -0.676498)
(10.0574 0.0193253 -0.00702953)
(10.168 0.11973 0.028195)
(9.99245 0.00474889 -0.0288252)
(9.49131 0.154573 0.0548959)
(10.0407 -0.000702726 0.00959589)
(10.0131 0.0277413 -0.0149396)
(6.19443 -1.3727 -0.803143)
(9.99388 0.000666775 -0.0123219)
(9.93409 0.0117144 0.00395165)
(10.0134 0.0100132 0.0244952)
(12.5292 1.53133 -0.789667)
(10.06 0.0258491 0.00587462)
(10.0104 -0.0154329 0.00277254)
(12.373 1.45892 -0.820964)
(12.3121 0.957005 -0.361628)
(9.98552 -0.0105359 0.0109762)
(10.044 -0.0124041 -0.00328189)
(-0.151353 1.929 0.451764)
(10.0419 0.0123241 -0.00198998)
(10.7584 -0.394458 0.111725)
(10.0081 -0.00176177 -0.0100647)
(10.046 0.00631608 0.0379445)
(10.0426 -0.0224224 0.000182543)
(11.9489 1.07548 -0.429734)
(11.4634 0.272545 1.43214)
(9.20754 0.729799 0.758758)
(9.84457 0.12201 0.125415)
(10.0569 -0.0861093 0.016894)
(10.0298 0.00786519 -0.00709399)
(12.6266 -0.504667 -0.194965)
(9.31396 0.250213 -0.460376)
(9.69174 0.0645457 -0.0721053)
(-0.0484849 1.76212 0.294905)
(10.0112 -0.0187885 -0.00697693)
(10.0397 0.00842845 -0.0155239)
(-0.286671 1.67092 0.421584)
(12.1552 1.72257 -1.26907)
(9.90192 0.078252 -0.00697279)
(0.0232183 1.87888 0.330149)
(0.0186643 1.90361 0.436315)
(10.0085 0.00493799 -0.00832544)
(9.99787 0.0143692 0.0020208)
(10.0202 -0.000346442 -0.00540332)
(9.59813 -0.346769 -0.012682)
(9.99791 0.00363737 -0.00682693)
(9.97184 -0.0162594 -0.000237233)
(10.3771 -0.0680798 -0.398637)
(10.0199 0.273598 0.00321967)
(9.93774 0.0133141 0.00171912)
(10.0402 0.0152859 0.0108834)
(12.5754 1.32479 -0.374333)
(11.8572 1.35176 -0.428008)
(9.96968 0.0103913 -0.000179673)
(10.4991 0.382845 -0.027271)
(-3.63347 -2.27852 -0.109216)
(-2.16455 -3.20455 1.58018)
(10.8878 0.421525 -0.120089)
(9.93367 0.00109004 -0.00365023)
(10.2644 -0.113728 0.150219)
(11.0417 -0.0946005 -0.794458)
(9.86128 -0.00493814 0.00186188)
(9.85866 -0.0104796 0.0100007)
(10.0505 -0.0352758 0.00369472)
(10.3482 0.140783 0.00507245)
(9.97956 -0.0130264 0.00690444)
(10.8915 0.299944 0.325236)
(9.99939 0.00300038 0.000275663)
(13.138 0.790978 -0.700072)
(10.354 1.54035 -1.20594)
(10.7742 0.403233 -0.0638784)
(13.1596 0.976076 -1.04297)
(10.0692 0.0337197 0.00173141)
(9.99516 0.00235765 0.00546196)
(10.3723 0.795762 0.136239)
(10.1697 -0.0989918 0.0310707)
(10.0134 0.00726295 0.00527368)
(10.004 0.0072764 -0.00323381)
(11.2208 0.469544 -0.58177)
(7.94493 -0.794139 -1.53404)
(10.0175 -0.00502171 -0.0080927)
(11.0246 0.137412 -0.0166498)
(9.96828 0.25345 0.00190066)
(11.2223 -5.25185 -2.50321)
(10.4194 -0.902789 0.84838)
(11.8751 0.0388941 0.950534)
(6.57319 0.297736 0.264507)
(6.34073 0.261529 0.107581)
(10.053 0.0208305 0.000677032)
(9.93808 0.313416 -0.0671271)
(4.43098 0.147385 -0.202179)
(9.97328 0.0124548 -0.00133785)
(10.0483 -1.74694 -3.60855)
(7.95579 0.161916 1.77373)
(9.98432 0.00149817 -0.00222567)
(10.0225 0.614826 0.370754)
(10.0244 0.00979611 -0.0112251)
(10.0346 0.000846784 0.0151115)
(10.017 0.00188292 -0.000837398)
(13.3925 0.559319 -0.195912)
(9.97651 0.0104892 -0.00386094)
(9.98471 0.00452523 -0.00121644)
(10.0515 -0.0316989 -0.01226)
(9.81752 0.00181156 -0.015544)
(10.0514 -0.0126261 0.0277525)
(9.98248 0.00216892 -0.00986596)
(10.0468 0.0199234 0.00691407)
(9.87445 -0.0526919 0.00919768)
(10.9884 1.18464 0.695126)
(9.30199 -0.85537 -2.49727)
(12.3635 3.74752 1.86635)
(10.7641 0.556907 0.0244775)
(9.62885 1.48788 1.28689)
(10.0081 1.11895e-05 0.00250096)
(9.27692 -1.00658 0.0519667)
(9.97416 0.0125393 -0.000511994)
(10.0006 0.00210663 -0.0105114)
(10.003 0.00376604 -0.00827822)
(9.99962 0.00128029 -0.00756018)
(9.98463 0.0185952 -0.00544125)
(9.20092 0.441203 -0.916754)
(11.1273 0.796509 0.215205)
(9.98644 0.0139655 -0.00544388)
(10.2166 -0.578953 0.0552807)
(11.2296 1.65757 2.00092)
(9.98898 0.00389339 -0.000421269)
(2.18692 0.651785 0.743803)
(13.3247 -1.00643 -3.11442)
(9.96256 -0.0137191 -0.000674464)
(9.31836 -0.563959 -0.000859597)
(10.4618 0.0216502 0.0422205)
(10.0278 -0.00711045 -0.00651447)
(2.9074 1.20306 0.638427)
(10.0019 -0.0141896 -0.00366629)
(5.94176 -1.80243 -0.0256027)
(9.97233 -0.0032043 0.00356446)
(11.8784 0.00901603 1.14578)
(12.1674 0.402294 -0.0480417)
(9.95622 -0.0186897 0.00108648)
(9.9142 -0.00897614 -0.00731333)
(10.173 0.611729 0.0377439)
(8.65464 -0.635558 -2.35599)
(9.93027 0.00302413 0.00422374)
(10.0294 0.00247063 -0.0026976)
(10.3569 -0.00883686 0.00307046)
(12.4392 -0.0680604 0.706347)
(10.0013 0.0038529 0.00215136)
(12.4152 0.327021 0.237701)
(10.4989 -0.0157775 -0.012411)
(0.254865 -0.206145 -0.454036)
(12.1153 0.323776 0.0659549)
(10.4299 -0.0177267 -0.00421994)
(12.2445 0.323797 0.178095)
(10.0008 -0.00367784 -0.00358871)
(10.1201 -0.152305 0.000521218)
(10.533 0.424806 0.0193638)
(10.478 -0.0578414 -0.011492)
(12.4246 0.407227 0.055004)
(9.99864 -0.022234 -0.000232228)
(10.0687 -0.225982 -0.0227238)
(12.2723 0.392875 0.01526)
(9.96038 -0.0404561 0.00143902)
(10.516 -0.057249 -0.0090697)
(9.98854 -0.0217909 -0.00899657)
(10.0359 -0.0150651 0.0126307)
(6.90973 0.374089 -5.24895)
(6.73473 -0.138023 -5.85251)
(9.6676 0.0918991 0.354207)
(8.87116 0.387825 -4.2848)
(9.99795 -0.0235171 -0.0120592)
(9.96137 -0.0182219 -0.00787875)
(10.8656 0.657054 -0.277039)
(10.4993 -0.174523 0.0184146)
(7.83941 0.101543 0.813862)
(10.0168 -0.0302144 -0.0123245)
(10.0671 0.0510152 -0.00942312)
(9.99636 -0.0237596 -0.00193396)
(10.0194 0.0591647 0.0151658)
(5.29333 0.231324 -6.51374)
(3.67196 -1.26273 1.67932)
(9.98335 -0.0257494 -0.00208336)
(10.017 0.0401421 -0.00669492)
(10.0288 -0.0792953 -0.00904726)
(9.89633 -0.0403076 0.00972788)
(10.2146 -0.163985 0.0407556)
(9.97256 -0.0260685 -0.00428819)
(11.3334 -0.00948929 -0.0331179)
(11.8061 -1.28012 1.1734)
(10.1378 0.023836 0.0151759)
(10.0381 0.0214168 -0.0125698)
(10.0113 -0.025905 -0.00709759)
(10.0114 0.0519356 0.00671178)
(9.70227 0.207471 0.026137)
(10.0199 -0.021621 -0.0107475)
(10.7594 -0.158593 -0.031729)
(9.95156 -0.00856975 0.00100071)
(10.0115 0.0272123 -0.0156403)
(10.0883 0.061665 0.00727945)
(9.26971 -0.882371 -1.31743)
(5.17655 0.701048 -4.91534)
(10.0549 -0.0779954 -0.00300578)
(-0.0971806 -2.03313 0.29021)
(9.99988 -2.5326 0.746229)
(13.2931 -1.19551 -1.19447)
(-0.126181 -2.06019 0.253828)
(10.4182 0.0509914 0.00399236)
(5.78613 -0.343226 2.23357)
(10.5992 -0.510477 -2.66951)
(10.9053 -1.649 0.365847)
(5.68548 0.308694 -3.90007)
(-0.215236 1.7915 0.735431)
(1.51049 0.6369 -3.70809)
(11.5786 -0.0607524 0.69978)
(10.8056 -0.0145 -0.0663752)
(11.5207 0.0408538 1.30613)
(9.91978 0.00556068 0.00413357)
(3.71747 -0.285563 -0.423068)
(10.8621 0.0730006 -0.353203)
(10.7171 -0.0180498 -0.00890603)
(9.97611 -0.0509706 0.0379842)
(10.0153 0.0179445 -0.0326544)
(11.6528 0.143792 1.22905)
(10.0209 0.137592 0.0539992)
(10.1879 -0.0394724 0.0216143)
(9.95934 0.0171545 -0.000911439)
(-0.527749 1.0954 0.162002)
(8.11776 0.291932 -2.57586)
(10.0143 -0.0071178 0.00836594)
(9.98437 -0.00472747 0.00437603)
(5.03315 0.292708 -2.52412)
(5.93047 0.146127 -3.18322)
(10.7012 -1.44284 -1.11254)
(-2.07776 -2.65003 -1.13378)
(5.29157 0.201964 1.9594)
(4.0509 0.00161814 -4.01771)
(3.7787 -0.0549748 -4.87465)
(10.0054 -0.00392705 0.0103076)
(9.80569 0.00227326 0.00350128)
(9.47 -0.0259531 0.0170671)
(10.0167 0.00206065 -0.00760823)
(10.4138 0.0429764 -0.0160394)
(-0.277579 1.89591 0.411644)
(11.0055 -0.0276267 -0.268637)
(10.4667 0.0349693 -0.0177532)
(10.3359 0.0360801 -0.00750599)
(10.05 0.01217 0.0032244)
(-0.248314 1.81503 0.939834)
(-0.471442 1.89423 0.888064)
(10.0575 0.019399 -0.0179806)
(10.4135 0.00109374 -0.0270562)
(9.93314 0.0175191 -0.00146401)
(10.0411 -0.00165195 -0.00899474)
(10.3606 0.0158004 -0.00914442)
(10.0415 -0.00106154 -0.0172548)
(9.68951 -0.00236811 -0.0766904)
(10.0116 0.00627372 -0.011949)
(10.0018 -0.0077735 -0.00767083)
(7.00655 -0.767069 -3.23855)
(10.0467 0.00527287 0.00773683)
(10.0384 0.00423388 0.00647478)
(10.0188 -0.000741272 -0.0130756)
(9.85035 0.00473946 0.000376742)
(9.86959 0.00942198 0.0068028)
(4.27512 -0.589084 -2.5625)
(12.6897 -1.2442 -0.74233)
(10.0345 -0.000183327 0.0106466)
(10.8942 0.435394 -0.217592)
(10.0132 0.0288983 -0.0162414)
(9.68193 -0.330254 0.0949997)
(9.64493 -0.417899 0.146821)
(12.3224 -0.0482429 -0.0695003)
(9.85152 0.000321463 -0.00309865)
(-0.200398 -1.0997 1.06842)
(12.4062 -0.170546 -0.117776)
(10.4947 0.137786 -0.0105374)
(10.8433 0.395828 -0.0441085)
(8.12327 0.322607 -3.52333)
(10.7191 3.12035 1.47451)
(9.99264 -0.00537202 -0.00209196)
(9.98878 -0.00584594 -0.00375105)
(11.5146 1.73864 2.12833)
(10.0026 -0.0589473 -0.0119182)
(9.99929 0.0335618 0.00542658)
(10.8334 0.784151 0.343091)
(9.97246 -0.00924221 -0.00369969)
(9.98349 -0.0028296 0.00163315)
(-2.69865 0.661002 1.54057)
(12.5538 0.697406 -0.2066)
(10.5087 3.5376 -0.458767)
(10.002 0.000792293 0.00487394)
(7.72869 0.593368 -2.73533)
(10.0085 0.00397268 0.00645206)
(12.09 0.0935186 -0.288466)
(9.48953 -0.403507 0.238001)
(12.3875 -0.0780188 -0.0609762)
(9.92408 0.00146193 0.000907496)
(9.29979 -0.435687 0.19475)
(-1.20658 -0.403995 1.2263)
(11.5042 1.85591 2.60965)
(12.5773 -0.437525 -0.905994)
(-0.806261 1.28343 0.819529)
(12.3579 0.29161 0.223123)
(10.5964 0.193987 0.0301981)
(9.96031 -0.00358452 0.00682125)
(12.236 -0.218303 -0.257269)
(9.99498 0.00711689 0.00433624)
(12.5542 -0.0941795 0.0387542)
(-0.0869992 -1.34367 0.66034)
(9.99412 0.00949975 0.00507955)
(12.8934 0.0874125 -1.3377)
(9.89004 -0.00302899 0.000436723)
(9.8823 -0.0142849 0.00125178)
(11.2754 -1.32755 -0.33922)
(9.92071 -0.0137228 -0.00819713)
(10.2696 0.126421 -0.0154888)
(8.08315 -5.77389 -0.0108671)
(9.5101 0.457671 0.0268532)
(9.998 -0.239234 -0.0300554)
(12.8207 -0.604104 -0.0411105)
(10.6473 1.57612 1.09297)
(10.0257 -0.0236863 0.00908641)
(11.7787 -2.64218 -1.05227)
(5.26332 -0.902334 -0.240995)
(10.744 0.0330146 -0.00489196)
(9.62718 -0.730494 -0.914783)
(10.037 0.129556 0.0320301)
(10.5899 0.22504 0.0127123)
(9.96994 -0.0159547 -0.0122256)
(10.0072 -0.0222295 0.0019549)
(-0.631799 1.20765 0.109887)
(0.869901 -4.52024 1.91128)
(12.1718 -0.844129 0.303861)
(10.159 -1.41871 -0.657812)
(12.4054 -0.853094 -0.447197)
(1.08348 4.81849 0.985002)
(-0.814805 0.511715 -0.278036)
(9.22631 -3.61525 4.21325)
(10.0114 -0.0171307 0.00886573)
(10.0023 0.0121933 -0.00986841)
(9.98893 0.0139026 -0.00392879)
(9.82451 -0.0302982 -0.0100626)
(1.77048 1.14111 0.845556)
(9.60616 -0.543396 0.155475)
(8.95489 -0.668687 1.01244)
(9.98714 0.0209576 -0.00906508)
(-0.159489 -1.60246 0.0992199)
(12.4793 -0.0720607 -0.0751668)
(10.5482 0.104205 -0.313457)
(10.1441 0.034209 0.00657547)
(10.0255 -0.0155046 -0.00628256)
(10.1462 0.0354029 0.0130076)
(6.248 -1.86243 -3.32079)
(10.0048 -0.0029862 -0.00705506)
(4.04653 4.2484 -0.778714)
(10.0237 0.0116707 -0.000768732)
(10.3393 -0.644561 -3.15467)
(9.98816 -0.00369526 -0.00294159)
(9.99891 -0.00617211 -0.00622084)
(10.0093 -0.00983958 -0.00735776)
(10.0144 -0.010052 -0.0111479)
(9.98811 -0.0117459 0.00333955)
(12.6488 1.53607 0.541251)
(11.636 0.342849 0.771317)
(8.92449 1.48644 2.35557)
(6.97113 4.05381 2.35527)
(9.35434 1.20971 0.416571)
(10.4347 0.559079 -0.068869)
(11.1902 1.25791 0.0174718)
(6.6585 -0.460041 -3.00386)
(10.6866 -0.150504 0.0301766)
(12.474 -0.406636 0.0828264)
(10.7274 -0.750147 0.0333632)
(12.2625 0.0512426 -0.0578758)
(8.25161 -0.221661 4.36625)
(5.91548 -1.58187 2.47891)
(10.6945 -0.321861 0.180286)
(9.9993 -0.00936161 0.00500168)
(9.57798 0.952264 -0.345474)
(10.0041 -0.00538187 0.0098115)
(10.2328 -0.022565 -0.00189884)
(12.8168 -2.41882 3.03463)
(12.5348 -0.376442 0.742735)
(-1.12493 3.58507 -0.143502)
(10.1155 -0.961785 0.192387)
(11.9197 -0.99978 -0.561961)
(10.5434 -1.06533 -1.20436)
(9.89526 -0.412064 1.29361)
(10.2704 -0.0418915 0.00579533)
(-3.82237 -3.07384 1.07486)
(10.082 -0.0126618 0.00672105)
(10.1578 -0.0176738 0.00274911)
(10.8629 -0.217511 1.3261)
(9.69753 -0.126624 4.62892)
(10.3019 -0.0488543 0.0104124)
(10.3126 0.556842 -0.441188)
(9.97759 0.00208293 -0.00202542)
(10.5241 -1.42202 0.576042)
(11.0639 0.015 1.49704)
(9.95899 -0.0091491 -0.0024283)
(11.1671 -0.436742 -3.13806)
(9.69964 1.92344 -1.91124)
(11.9042 0.455887 1.43382)
(10.9953 0.387853 -0.167055)
(9.48375 0.122517 0.26226)
(3.12207 0.946189 -3.88842)
(0.312693 3.57998 2.93456)
(5.25657 3.20453 0.65445)
(13.3386 -0.84538 -2.96459)
(4.47673 -0.96712 -0.404502)
(9.76671 -0.00596887 -0.00845944)
(9.88573 -0.0143807 -0.00589021)
(8.28454 1.73816 2.66801)
(9.94916 2.20602e-07 -0.00122628)
(4.53268 -0.829438 -0.327308)
(9.81816 -0.00731785 -0.0070056)
(9.7923 -0.0104394 -0.00787744)
(-0.0685508 -1.81106 1.04453)
(9.51055 -1.3286 0.804511)
(10.8814 -0.614615 0.10663)
(9.97783 0.00150114 0.0014059)
(10.0004 0.0182906 -7.66691e-05)
(8.3495 0.371013 -2.89829)
(10.0072 0.0140278 0.00572969)