/*--------------------------------*- C++ -*----------------------------------*\
| =========                 |                                                 |
| \\      /  F ield         | OpenFOAM: The Open Source CFD Toolbox           |
|  \\    /   O peration     | Version:  2506                                  |
|   \\  /    A nd           | Website:  www.openfoam.com                      |
|    \\/     M anipulation  |                                                 |
\*---------------------------------------------------------------------------*/
FoamFile
{
    version     2.0;
    format      ascii;
    arch        "LSB;label=32;scalar=64";
    class       volScalarField;
    location    "0.01535";
    object      k;
}
// * * * * * * * * * * * * * * * * * * * * * * * * * * * * * * * * * * * * * //

dimensions      [0 2 -2 0 0 0 0];

internalField   nonuniform List<scalar> 
47425
(
0.3665
0.384643
0.368557
0.358654
0.446945
0.368482
0.423587
0.36851
0.370466
0.80324
0.372234
0.385138
0.397339
0.36728
0.371135
0.374886
0.368629
0.400998
0.842176
0.504176
0.365886
0.366888
0.376507
0.365254
0.376721
0.371594
0.365933
0.763392
0.365374
0.382022
0.382539
0.374481
0.377423
0.372421
0.366446
0.377615
0.371841
0.380374
0.377203
0.361515
0.386555
0.366801
0.384679
0.383179
1.25487
0.391854
0.374676
0.377203
0.370583
0.370697
0.669186
0.412985
0.371793
0.719723
0.392859
0.377219
0.370466
0.382683
0.444813
0.378158
0.753479
0.692386
0.736591
0.386139
0.369891
0.37334
0.375177
0.373633
0.740641
0.398742
0.367001
0.377104
0.372431
0.375359
0.700246
0.372854
0.742103
0.370959
0.783977
0.467458
0.696859
0.371228
0.375372
0.383471
0.368429
0.369322
0.37086
0.362269
0.413213
0.518329
0.374577
0.372557
0.374063
0.38464
0.392008
0.380217
0.365722
0.365256
0.371625
0.38476
0.367073
0.46679
0.369799
0.489484
0.368331
0.375314
0.369261
0.360492
0.363206
0.382218
0.624373
0.366493
0.374066
0.373154
0.370905
0.731397
0.370468
0.613492
0.391359
0.375171
0.361296
0.372425
0.377274
0.397759
0.381219
0.379914
0.372402
0.369493
0.380282
0.37526
0.377434
0.3789
0.529835
0.384353
0.374003
0.401327
0.375855
0.379252
0.377151
0.362238
0.380885
0.38898
0.365941
0.387077
0.37392
0.37058
0.406503
0.368105
0.378434
0.380225
0.383765
0.716396
0.373575
0.721525
0.389875
0.373376
0.400599
0.801442
0.393171
0.379635
0.373126
0.373686
0.371254
0.372382
0.608368
0.732782
0.377327
0.704907
0.375728
0.765655
0.697192
0.390057
0.373538
0.378071
0.391439
0.428736
0.733713
0.368232
0.373726
0.364732
0.719137
0.366567
0.370312
0.374618
0.366701
0.37875
0.374013
0.460812
0.379351
0.370914
0.376876
0.379236
0.422706
0.374752
0.37066
0.374206
0.374034
0.365655
0.375031
0.363156
0.375731
0.37967
0.365774
0.371646
0.395999
0.379864
0.37235
0.373151
0.379702
0.378663
0.374043
0.371875
0.384018
0.368879
0.370528
0.373321
0.378836
0.442624
0.39476
0.391
0.498314
0.367162
0.377775
0.368598
0.402728
0.487314
0.371326
0.378432
0.383221
0.407643
0.37762
0.3748
0.387826
0.370857
0.378063
0.365466
0.48365
0.386543
0.472097
0.375846
0.363472
0.374629
0.371846
0.370687
0.370697
0.382198
0.363339
0.392472
0.366374
0.378885
0.364749
0.46378
0.375532
0.371854
0.37649
0.374044
0.372743
0.387113
0.360891
0.37445
0.408956
0.393719
0.384416
0.381435
0.389752
0.38793
0.368505
0.390802
0.372738
0.378409
0.383558
0.462736
0.472932
0.377357
0.452518
0.385249
0.455542
0.503909
0.460838
0.556518
0.759716
0.365296
0.721928
0.387945
0.372089
0.366318
0.382335
0.362811
0.38845
0.375581
0.640419
0.394695
0.371783
0.364557
0.368651
0.37769
0.372639
0.374082
0.363455
0.396799
0.391028
0.369238
0.376925
0.371459
0.750462
0.740286
0.702209
0.368018
0.369471
0.376325
0.367044
0.658411
0.370255
0.370063
0.524299
0.382391
0.375281
0.395701
0.368019
0.584989
0.510552
0.373904
0.367883
0.367675
0.386638
0.369734
0.37714
0.36773
0.373348
0.375857
0.37025
0.660589
0.386278
0.367704
0.397376
0.377214
0.662405
0.371678
0.365667
0.3725
0.385471
0.383847
0.366586
0.369334
0.37351
0.375562
0.378623
0.374024
0.37182
0.38621
0.379322
0.379136
0.370847
0.384574
0.374848
0.399586
0.379783
0.37443
0.391096
0.376282
0.427407
0.378412
0.389873
0.376373
0.368396
0.372785
0.389406
0.379642
0.366648
0.374017
0.392525
0.541663
0.359503
0.372123
0.386548
0.37126
0.372373
0.392121
0.377374
0.372649
0.378546
0.371883
0.364662
0.367545
0.380098
0.37074
0.378845
0.366491
0.380417
0.376942
0.377688
0.379186
0.376961
0.37384
0.378762
0.376481
0.366598
0.369993
0.41941
0.371786
0.570768
0.368733
0.692443
0.377681
0.394582
0.390892
0.369511
0.373086
0.36428
0.377935
0.377745
0.844229
0.676344
0.383581
0.391552
0.369019
0.368955
0.367676
0.37166
0.373743
0.37429
0.375022
0.367941
0.363414
0.369135
0.368863
0.416308
0.37463
0.37194
0.529515
0.33659
0.375742
0.632976
0.334315
0.384948
0.387696
0.650329
0.372005
0.372129
0.374428
0.376145
0.597949
0.387185
0.367229
0.368208
0.379365
0.378762
0.374065
0.364893
0.61854
0.615959
0.510896
0.371082
0.447526
0.385035
0.370826
0.376869
0.392972
0.379509
0.373505
0.370406
0.381385
0.374561
0.37209
0.369441
0.378578
0.38184
0.376017
0.368757
0.370161
0.373289
0.36988
0.380052
0.388181
0.371782
0.385683
0.378093
0.64986
0.375249
0.436299
0.385064
0.392109
0.436201
0.387091
0.37564
0.388314
0.390754
0.368458
0.390377
0.396136
0.365851
0.384916
0.373913
0.385909
0.472825
0.364764
0.398822
0.37129
0.411528
0.364929
0.370311
0.370025
0.369255
0.391323
0.375565
0.368297
0.364118
0.366997
0.383078
0.369932
0.376095
0.384599
0.374044
0.368003
0.370322
0.375346
0.372005
0.384317
0.377638
0.392645
0.37071
0.386294
0.679736
0.377305
0.377666
0.379912
0.369507
0.464665
0.468311
0.386112
0.373436
0.38925
0.394568
0.380097
0.48071
0.375686
0.63203
0.405493
0.404172
0.384185
0.47233
0.36609
0.368833
0.370776
0.371315
0.36767
0.371622
0.849251
0.364548
0.402002
0.371096
0.453382
0.38474
0.378203
0.439914
0.430193
0.377755
0.370576
0.304069
0.365947
0.370896
0.370708
0.367321
0.36685
0.412372
0.396091
0.387236
0.368633
0.370874
0.367877
0.517146
0.370615
0.368159
0.310535
0.3712
0.372312
0.392246
0.682868
0.37405
0.197635
0.227167
0.365987
0.392079
0.36647
0.369505
0.397222
0.385115
0.633503
0.382346
0.391352
0.366402
0.456048
0.409631
0.391295
0.37747
0.497962
0.552996
0.367555
0.369479
0.365552
0.378271
0.379463
0.39343
0.373212
0.383153
0.387415
0.371768
0.386566
0.47662
0.396081
0.370661
0.487084
0.382617
0.370984
0.384385
0.378305
0.36776
0.377206
0.376628
0.414225
0.38086
0.371347
0.372399
0.947674
0.389893
0.389785
0.711974
0.692617
0.364385
0.388847
0.637448
0.386033
0.458778
0.402773
0.383868
0.70961
0.372338
0.369591
0.382483
0.475362
0.393736
0.386333
0.373063
0.398474
0.366941
0.368068
0.380383
0.372632
0.388823
0.686972
0.698976
0.39553
0.404254
0.37742
0.384001
0.390063
0.381608
0.382906
0.381657
0.375417
0.378369
0.394208
0.380499
0.369187
0.440827
0.396711
0.698484
0.540736
0.377056
0.387819
0.377004
0.367008
0.703696
0.369395
0.710095
0.380031
0.400213
0.389924
0.366661
0.37736
0.373147
0.411631
0.376752
0.365558
0.405814
0.389503
0.371739
0.411725
0.376906
0.915854
0.389782
0.393068
0.401675
0.371064
0.363444
0.398088
0.363969
0.412399
0.376026
0.368397
0.39638
0.370383
0.368273
0.377365
0.365939
0.503887
0.568078
0.379843
0.472685
0.376601
0.38095
0.363587
0.363083
0.371253
0.375437
0.363739
0.367079
0.374107
0.664224
0.485522
0.364908
0.373134
0.371423
0.377162
0.370406
0.370119
0.374067
0.525352
0.373096
0.36614
0.371209
0.368986
0.365229
0.372036
0.369483
0.367877
0.379268
0.373342
0.385079
0.553774
0.366361
0.333475
0.511002
0.538527
0.252506
0.372917
0.421327
0.408516
0.397578
0.51828
0.307798
0.70886
0.372411
0.371446
0.395328
0.390075
0.550511
0.376593
0.379122
0.369098
0.363973
0.392142
0.388459
0.376763
0.388082
0.391352
0.421799
0.381511
0.382681
0.502167
0.489331
0.436917
0.557807
0.495466
0.593435
0.619386
0.374086
0.391036
0.372175
0.366258
0.371633
0.27079
0.385487
0.365599
0.377593
0.369072
0.31603
0.270784
0.369013
0.40023
0.368231
0.370334
0.390493
0.368183
0.370961
0.369471
0.375575
0.46863
0.369352
0.375804
0.370804
0.384653
0.377514
0.537381
0.46347
0.364957
0.397815
0.373756
0.364778
0.366932
0.388811
0.386092
0.576433
0.368365
0.366041
0.382769
0.436339
0.80308
0.373316
0.371385
0.452222
0.383279
0.373436
0.391654
0.374642
0.384196
0.686084
0.444849
0.752567
0.37205
0.434179
0.368018
0.41141
0.369699
0.375004
0.383993
0.373127
0.669007
0.480077
0.411541
0.533977
0.392393
0.371609
0.378555
0.421312
0.368379
0.379167
0.292026
0.367694
0.423222
0.381017
0.405855
0.706205
0.394107
0.393241
0.540036
0.383794
0.372579
0.452928
0.448979
0.369768
0.451286
0.477934
0.362396
0.376422
0.361923
0.375843
0.378525
0.380106
0.52272
1.96732
0.389628
0.387006
0.472394
0.597211
0.576967
0.569579
0.391182
0.373568
0.388581
0.388098
0.433207
0.369931
0.392009
0.390216
0.336845
0.374865
0.375869
0.375717
0.364992
0.392471
0.510248
0.375021
0.668875
0.368217
0.429925
0.380528
0.374483
0.377447
0.378287
0.387311
0.471637
0.383475
0.425976
0.50927
0.392857
0.382611
0.385619
0.46346
0.368101
0.400555
0.376966
0.403216
0.633356
0.475901
0.36548
0.37483
0.379004
0.370708
0.378979
0.676432
0.471352
0.546098
0.38029
0.408602
0.386599
0.560218
0.370759
0.809714
0.412403
0.396739
0.388579
0.602831
0.365423
0.368955
0.369734
0.391986
0.392514
0.376919
0.440507
0.529759
0.418722
0.367757
0.379424
0.645515
0.672625
0.529669
0.5342
0.705464
0.404934
0.388096
0.451038
0.366554
0.494411
0.379777
0.39292
0.988019
0.390602
0.375311
0.371352
0.392455
0.431617
0.393784
0.361919
0.392446
0.477655
0.370951
0.375814
0.372642
0.384282
0.375372
0.418476
0.378975
0.398392
0.38234
0.385218
0.38249
0.364874
0.36168
0.379209
0.416239
0.491865
0.379571
0.413299
0.371416
0.569854
0.38946
0.3781
0.364316
0.950796
0.589545
0.660963
0.283943
0.392442
0.396079
0.64851
0.317471
0.391713
0.42883
0.38059
0.383263
0.572271
0.374726
0.375982
0.390544
0.408363
0.370896
0.586037
0.861162
0.366779
0.879004
0.369763
0.638055
0.950818
0.364326
0.383371
0.378715
0.570461
0.382147
0.380227
0.396714
0.606182
0.372746
0.472514
0.377959
0.37401
0.36569
0.377527
0.862023
0.865939
0.392262
0.41005
0.391515
0.628343
0.371414
0.365062
0.817777
0.90099
0.380904
0.376504
0.804218
0.989245
0.77528
0.385158
0.493069
0.722502
0.681112
0.380049
0.495866
0.46203
0.383091
0.379202
0.829198
0.95987
0.415322
0.416787
0.375524
0.374644
0.394097
0.378247
0.497536
0.371465
0.369416
0.369048
0.371536
0.619105
0.895977
0.382272
0.603674
0.437182
0.362017
0.503905
0.366867
0.377222
0.377288
0.393941
0.399178
0.36878
0.665437
0.37078
0.781658
0.575564
0.673911
0.412017
0.389205
0.376978
0.388237
0.371987
0.563135
1.00916
0.386978
0.606706
0.555151
0.69556
0.487634
0.825402
0.625067
0.37337
0.372812
0.843247
0.368714
0.374411
0.370116
0.638473
0.530867
0.366513
0.391086
0.602001
0.446723
0.670474
0.634061
0.387559
0.503878
0.920507
0.379863
0.406945
0.701574
0.377988
0.814916
0.785538
0.374599
0.374846
0.379592
0.376268
0.404582
0.36311
0.380393
0.397755
0.384076
0.502879
0.411877
0.385242
0.499063
0.424402
0.785541
0.380553
0.386332
0.409526
0.381663
0.7892
0.362652
0.381754
0.370453
1.05341
0.368469
1.50298
0.39238
0.512233
0.403425
1.17759
0.60998
0.586883
0.434044
0.544741
0.416808
0.37013
0.403786
0.578942
0.566544
0.457913
0.662283
0.392935
0.478432
0.596114
0.390164
0.365197
0.598
0.568944
0.365843
0.375695
0.374273
0.382494
0.602068
0.683166
0.370399
0.390347
0.371792
1.01195
0.375813
0.643005
0.413418
0.376024
0.377453
0.44647
0.410187
0.588857
0.412612
0.398047
0.429432
0.468924
0.365938
0.790297
0.549462
0.37223
0.785254
0.585624
0.381326
0.528835
0.375418
0.413906
0.757612
0.410906
1.0795
0.585743
0.377752
0.417857
0.412223
0.373152
0.376893
0.436034
0.476434
0.454092
0.36552
0.433366
0.368641
0.432989
0.430384
0.398641
0.398725
0.40159
0.373205
0.752839
0.480446
0.417562
0.576631
0.66822
0.371663
0.502864
0.2867
0.402751
0.400941
0.391929
0.629647
0.492692
0.659836
0.365346
0.692567
0.462438
0.373388
0.426838
0.400944
0.489536
0.381532
0.42871
0.54737
0.364857
0.634384
0.397092
0.944922
0.400544
0.382033
0.391858
0.472381
0.41342
0.468808
0.402248
0.372463
0.784231
0.380987
0.390601
0.868777
0.367984
0.376321
0.633999
0.394358
0.456772
1.02264
0.389313
0.451146
0.38052
0.813765
0.561411
0.544495
0.521047
0.451626
0.396199
0.475391
0.753189
1.018
0.547237
0.381917
0.382613
0.373508
0.371246
0.390005
0.619635
0.382607
0.367676
0.396022
0.369947
0.390263
0.391658
0.398127
0.406091
0.389775
0.47452
0.371483
0.394788
0.406098
0.374862
0.376837
0.403987
0.40158
0.383244
0.366419
0.382526
0.378421
0.381864
0.398637
0.631555
0.369322
0.391389
0.365284
0.37515
0.52006
0.363392
0.370673
0.433057
0.966634
0.664593
0.379113
0.429813
0.524389
0.375196
0.395425
0.481865
0.381263
0.398973
0.382132
0.389581
0.438429
0.3712
0.409775
0.411372
0.382256
0.363044
0.366965
0.38503
0.521245
0.375106
0.418269
0.733914
0.375899
0.514193
0.4374
0.73035
0.377128
0.386975
0.391223
0.374004
0.38059
0.38089
0.371506
0.489908
0.502197
0.740483
0.38488
0.617873
0.37468
0.368809
0.440919
0.363806
0.670585
0.376838
0.580508
0.368864
0.735967
0.774063
0.377513
0.369653
0.4485
0.372345
0.407871
0.374918
0.384657
0.372488
0.365799
0.369512
0.375648
0.378147
0.429492
0.390277
0.401445
0.379576
0.374939
0.375882
0.378429
0.466292
0.374822
0.554972
0.375335
0.363854
0.38564
0.384815
0.368792
0.370085
0.389146
0.368735
0.370855
0.360697
0.375819
0.383656
0.374309
0.571647
0.527962
0.38172
0.397373
0.634048
0.364424
0.371028
0.369803
0.367426
0.389946
0.386608
0.400208
0.404159
0.374976
0.374475
0.438341
0.373558
0.373062
0.372055
0.682144
0.393466
0.744046
0.682958
0.733101
0.381101
0.37597
0.370919
0.365415
0.381729
0.600293
0.387815
0.365246
0.371581
0.376839
0.372112
0.430779
0.371893
0.383332
0.430133
0.377516
0.362897
0.371585
0.37204
0.380407
0.36794
0.3829
0.379422
0.413301
0.368976
0.375927
0.380826
0.37581
0.376474
0.36462
0.382579
0.366398
0.393988
0.396909
0.375638
0.365752
0.368231
0.368991
0.36904
0.380714
0.374929
0.379551
0.37328
0.376148
0.525095
0.373105
0.45187
0.368677
0.375288
0.412877
0.378336
0.383395
0.370322
0.373671
0.383777
0.388784
0.614034
0.393573
0.559111
0.362748
0.372695
0.381634
0.372945
0.382221
0.404228
0.377665
0.370743
0.366273
0.477889
0.470137
0.632346
0.388071
0.487988
0.387899
0.383983
0.408754
0.881412
0.379922
0.372549
0.372525
0.698035
0.369273
0.373528
0.388902
0.377983
0.377975
0.733215
0.373238
0.382655
0.388551
0.377669
0.40843
0.821164
0.725669
0.371545
0.36629
0.367883
0.39301
0.392405
0.37486
0.725747
0.713312
0.370766
0.378921
0.570897
0.369404
0.386417
0.463388
0.371484
0.368936
0.372903
0.372303
0.395698
0.376339
0.369781
0.393897
0.412272
0.372711
0.371248
0.55369
0.369791
0.441197
0.500442
0.330758
0.539768
0.38154
0.392222
0.407099
0.382161
0.390369
0.390445
0.751437
0.542419
0.381298
0.384929
0.372175
0.389207
0.380661
0.403832
0.370702
0.366566
0.382645
0.381347
0.517678
0.458766
0.700428
0.659519
0.396727
0.385636
0.37718
0.379282
0.371096
0.386184
0.377787
0.367497
0.374446
0.377293
0.319823
0.373544
0.369387
0.466974
1.19462
0.40128
0.368012
0.383441
0.508475
0.741428
0.361533
0.5305
0.460203
0.600749
0.550823
0.435803
0.371387
0.371512
0.381563
0.774871
0.37028
0.383071
0.380427
0.373759
0.455593
0.389112
0.346381
0.379469
0.465217
0.376141
0.383449
0.394785
0.388254
0.636657
0.619001
0.2546
0.402108
0.309198
0.421574
0.372994
0.813605
0.37543
0.771031
0.388456
0.759825
0.385877
0.497201
0.376472
0.493182
0.389244
0.398282
0.371215
0.377315
0.381953
0.457256
0.423718
0.376685
0.380145
1.00305
0.258494
0.386859
0.549113
0.340973
0.543301
0.370167
0.375876
0.294042
0.610544
0.540407
0.389213
0.953978
0.375509
0.767101
1.00628
0.266797
0.409799
0.377367
0.409419
0.360627
0.372462
0.370407
0.510655
0.387012
0.374074
0.368571
0.380297
0.366701
0.369866
0.366826
0.472159
0.367914
0.365896
0.382115
0.374609
0.453183
0.382868
0.395763
0.384095
0.368565
0.396077
0.481484
0.36122
0.365799
0.493622
0.904628
0.384523
0.820385
0.40115
0.468096
0.673435
0.444463
0.403456
0.372432
0.414288
0.374914
0.366577
0.379222
0.371207
0.365997
0.382113
0.37212
0.36341
0.361471
0.391292
0.376542
0.38895
0.662131
0.37133
0.369495
0.368373
0.373566
0.464759
0.585346
0.383212
0.369271
0.381251
0.526587
0.518632
0.369799
0.388002
0.74832
0.402703
0.393803
0.383116
0.436414
0.380765
0.369452
0.384503
0.530831
0.386668
0.378489
0.591465
0.37311
0.394271
0.373548
0.398154
0.377957
0.405896
0.383784
0.374674
0.378817
0.40537
0.358739
0.380742
1.09555
0.365807
0.456067
0.394153
0.373606
0.5457
0.412069
0.371026
0.38584
0.608309
0.503395
0.391639
0.377482
0.397237
0.434459
0.383211
0.379003
0.731119
0.483823
0.419816
0.510738
0.378231
0.369366
0.525194
0.379867
0.864682
0.376557
0.403336
0.401736
0.370557
0.500379
0.416435
0.569481
0.441987
0.3754
0.37475
0.636256
0.382599
0.402872
0.36681
0.379708
0.395396
0.43214
0.651851
0.391954
0.372205
0.295465
0.535189
0.66817
0.442811
0.623696
0.409904
0.846996
0.395325
0.388511
0.702257
0.40606
0.484438
0.296405
0.57549
0.603442
0.37387
0.371871
0.27712
0.384417
0.382316
0.656293
0.385107
0.41839
0.37247
0.421585
0.375536
0.377133
0.794107
0.285412
0.506012
0.346251
0.403022
0.385129
0.380736
0.393459
0.388335
0.382298
0.372813
0.39023
0.392496
0.250523
0.241103
0.378258
0.408145
0.368648
0.420991
0.455463
0.389373
0.376345
0.399118
0.254081
0.418222
0.405192
0.360474
0.378489
0.549876
0.40153
0.376648
0.762187
0.397474
0.493467
0.45153
0.395858
0.378578
0.372878
0.981901
0.372228
0.363579
0.40737
0.394669
0.433707
0.375358
0.417916
0.377124
0.52245
0.367078
0.397533
0.386612
0.369562
0.526057
0.393495
0.635277
0.619082
0.369879
0.594102
0.453472
0.372978
1.04861
0.36899
0.368281
0.381077
0.434187
0.701722
0.619564
0.402714
0.660961
0.471783
0.374407
0.492097
0.676313
0.399007
0.638444
0.430333
0.366318
0.586433
0.687106
0.39973
0.803243
0.413279
0.393329
0.545483
0.415089
0.379267
0.393143
0.663613
0.338945
0.364693
0.524515
0.383075
0.398212
0.390311
0.394939
0.473312
0.464951
0.645858
0.379581
0.379369
0.590253
0.378929
0.380989
0.498565
0.373769
0.395505
0.612931
0.390146
0.786251
0.723542
0.684584
0.457307
0.38292
0.442623
0.367417
0.372677
0.45914
0.371964
0.369558
0.398089
0.369489
0.453732
0.649318
0.374482
0.507881
0.375849
0.497998
0.408194
0.767224
0.374916
0.446948
0.380391
0.375626
0.4039
0.376812
0.385059
0.370682
0.367089
0.557753
0.360856
0.39195
0.393581
0.387873
0.379752
0.39725
0.38811
0.591121
0.395693
0.377827
0.382629
0.427266
0.353733
0.609475
0.515052
0.570068
0.764976
0.410053
0.43882
0.181075
0.349692
0.686792
0.430836
0.490747
0.429924
0.654033
0.494059
1.03382
0.413694
0.389057
0.483596
0.781021
0.397656
0.280155
0.440763
0.286267
0.437781
0.442483
0.638443
0.442822
0.370225
0.428389
0.253046
0.377323
0.731258
0.38504
0.3934
0.368281
0.373204
0.470829
0.371693
0.619786
0.483161
0.377595
0.392219
0.380348
0.511013
0.575114
0.379088
0.399756
0.413293
0.744939
0.421625
0.371306
0.499374
0.53363
0.369436
0.380622
0.385917
0.372492
0.599837
0.378267
0.472879
0.632734
0.369747
0.398132
0.383695
0.38104
0.30245
0.394029
0.530845
0.370197
0.378204
0.677149
1.17113
0.374431
0.379517
0.373839
0.376091
0.510654
0.419196
0.689642
0.390542
0.373099
0.466243
0.383785
0.389173
0.377705
0.395227
0.390864
0.507019
0.496048
0.510378
0.437185
0.445925
0.374014
0.382596
0.677513
0.773993
0.436797
0.509662
0.396925
0.7279
0.461582
0.65294
0.488589
0.405228
0.39434
0.379916
0.401502
0.423602
0.527614
0.377117
0.413887
0.84192
0.389917
0.876475
0.392216
0.370897
0.381113
0.384804
0.375355
0.365243
0.536901
0.367825
0.362339
0.363574
0.37936
0.454185
0.511816
0.375208
0.538279
0.406077
0.398709
0.369955
0.37736
0.452154
0.41026
0.44461
0.390344
0.365863
0.421708
0.376894
0.363461
0.413394
0.401804
0.564493
0.382364
0.478387
0.397801
0.435448
0.385645
0.448549
0.377003
0.379386
0.36437
0.384063
0.386934
0.693777
0.36561
0.441082
0.297561
0.401073
0.383329
0.399998
0.390648
0.45656
0.448419
0.378093
0.374544
0.381722
0.464536
0.422602
0.365798
0.879558
0.434386
0.487196
0.376121
0.366312
0.505882
0.381398
0.382964
0.507455
0.373045
0.379526
0.409411
0.626037
0.370284
0.548624
0.370152
0.375449
0.45328
0.389501
0.387659
0.481828
0.36911
0.437204
0.434784
0.437651
0.467704
0.79438
0.378924
0.380728
0.388199
0.399046
0.398772
0.393872
0.374416
0.375365
0.384838
0.567132
0.386641
0.394133
0.580406
0.398315
0.650129
0.37489
0.388477
0.430907
0.368494
0.394419
0.390728
0.381251
0.406471
0.378047
0.385221
0.41525
0.402913
0.423443
0.378547
0.543407
0.387615
1.09896
0.673417
0.410339
0.383479
0.488686
0.387615
0.305875
0.436021
0.318686
0.467292
0.245796
0.420699
0.493741
0.430437
0.6069
0.610022
0.397391
0.339214
0.274968
0.989462
0.612311
0.61372
1.25612
0.527335
0.306038
0.728262
0.372744
0.38611
0.659087
0.430554
0.635082
0.410978
0.599573
0.610326
0.382024
0.392197
0.37824
0.366402
0.378051
0.369448
0.650134
0.40556
0.383027
0.551701
0.365299
0.369811
0.378521
0.381894
0.38127
0.385864
0.39628
0.37249
0.44069
0.781942
0.36779
0.380342
0.377207
0.367711
0.660089
0.633522
0.408302
0.376584
0.557157
0.36856
0.377576
0.382743
0.404696
0.372638
0.376107
0.367902
0.36644
0.456238
0.363905
0.423308
0.378459
0.379677
0.377291
0.398087
0.376458
0.37837
0.370321
0.425651
0.369691
0.401349
0.610463
0.443473
0.398406
0.426367
0.376513
0.400176
0.39171
0.382723
0.373231
0.38835
0.376687
0.384639
0.420406
0.388609
0.431605
0.473301
0.379331
0.392217
0.43654
0.426513
0.501841
0.4498
0.644674
0.832889
0.392145
0.380143
0.705506
0.544342
0.453881
0.373564
0.370788
0.382703
0.368468
0.37594
0.370358
0.385592
0.396795
0.369928
0.382585
0.37258
0.373235
0.383553
0.488555
0.413284
0.384573
0.377658
0.373994
0.642484
0.36911
0.371436
0.404468
0.83833
0.689521
0.389116
0.387858
0.386925
0.404557
0.415328
0.612363
0.438285
0.375232
0.384225
0.381597
0.372857
0.405655
0.412274
0.382467
0.368276
0.43113
0.407608
0.509607
0.426819
0.571426
0.527955
0.395603
0.405083
0.365791
0.375978
0.39653
0.372608
0.368022
0.60446
0.377558
0.388544
0.6673
0.388794
0.390359
0.277171
0.438398
0.368726
0.37682
0.371717
0.392948
0.68301
0.383613
0.457162
0.681087
0.53758
0.827187
0.747127
0.370988
0.389165
0.533863
0.368982
0.553896
0.516502
0.656819
0.373214
0.369469
0.537351
0.37959
0.564545
0.43441
0.379665
0.684246
0.727997
0.378826
0.371766
0.770009
0.379724
0.370842
0.36135
0.370022
0.387035
0.386716
0.548494
0.378181
0.747303
0.370194
0.38661
0.363156
0.784799
0.375528
0.78685
0.381795
0.403291
0.372805
0.461101
0.370281
0.430413
0.363344
0.485096
0.484955
0.485264
0.63511
0.372519
0.37673
0.69447
0.438769
0.386562
0.42967
0.407761
0.380309
0.411378
0.387105
0.59004
0.434834
0.376656
0.362976
0.45419
0.377842
0.409179
0.392828
0.370227
0.385093
0.371656
0.371677
0.374594
0.571993
0.366711
0.373738
0.375534
0.371696
0.366502
0.377455
0.379369
0.382936
0.386742
0.399014
0.392009
0.366639
0.302986
0.393479
0.408516
0.427451
0.346692
0.745099
0.374775
0.658908
0.409655
0.288427
0.390743
0.405074
0.395514
0.374656
0.363563
0.390787
0.388777
0.377362
0.376029
0.369487
0.683916
0.368338
0.377813
0.401767
1.07177
0.257742
0.385233
0.733426
0.375274
0.603385
0.524968
1.02292
0.229071
0.389584
0.39541
0.38387
0.375583
0.760169
0.404493
0.425779
0.372948
0.370561
0.636005
0.388016
0.389907
0.371071
0.386463
0.400045
0.391972
0.597048
0.375789
0.38254
0.36744
0.374576
0.398047
0.365825
0.386093
0.96757
0.997632
0.648875
0.471688
0.698054
0.377249
0.371291
0.363444
0.379845
0.370823
0.414627
0.374735
0.445767
0.394571
0.375152
0.372287
0.376943
0.376558
0.377852
0.380885
0.374449
0.382868
0.518172
0.384118
0.40954
0.689955
0.384518
0.596982
0.772234
0.389075
0.408605
0.3765
0.491812
0.389584
0.405568
0.616334
0.375089
0.42014
0.376966
0.407427
0.375137
0.375228
0.455843
0.539321
0.383647
0.39327
0.696299
0.420616
0.582919
0.561899
0.378318
1.15164
0.410239
0.424769
0.406761
0.379252
0.444924
0.397656
0.361901
0.374198
0.360522
0.578502
0.231838
0.379084
0.39923
0.455489
0.239631
0.694042
0.36819
0.378188
0.430891
0.378438
0.430651
0.391173
0.884694
0.389693
0.383351
0.380907
0.750437
0.376996
0.41617
0.395879
0.378219
0.376691
0.392723
0.373511
0.36861
0.588988
0.399811
0.701055
0.368376
0.700994
0.67683
0.457021
0.40186
0.38732
0.474846
0.394776
0.382426
0.370949
0.382987
0.683882
0.380189
0.488263
0.486899
0.382489
0.374723
0.369682
0.371848
0.375574
0.371589
0.424793
0.408604
0.401479
0.383178
0.41468
0.372145
0.449675
0.372257
0.38285
0.376357
0.585663
0.923078
0.398901
0.38514
0.372454
0.5552
0.368307
0.376231
0.378685
0.370727
0.387869
0.378605
0.364847
0.375292
0.381706
0.619335
0.53107
0.371542
0.663745
0.373935
0.380628
0.364714
0.375981
0.641039
0.400142
0.713331
0.371016
0.36659
0.746285
0.80408
0.375475
0.371673
0.579786
0.388474
0.405275
0.413887
0.406875
0.391895
0.446607
0.383684
0.378457
0.391153
0.376976
0.496711
0.369048
0.38444
0.373223
0.371927
0.525703
0.584432
0.36589
0.377092
0.381316
0.380094
0.383194
0.521491
0.387372
0.393688
0.422275
0.38024
0.463469
0.42129
0.499083
0.416603
0.377017
0.371986
0.370312
0.412685
0.370576
0.474544
0.423411
0.368288
1.02422
0.373054
0.373092
0.391016
0.380844
0.413491
0.596414
0.378415
0.45888
0.375192
1.08598
0.420212
0.402191
0.381371
0.579084
0.38384
0.535216
0.398154
0.437578
0.369048
0.417582
0.423322
0.603201
0.479452
0.376273
0.366784
0.370052
0.497227
0.390744
0.938033
0.535931
0.385069
0.448855
0.376168
0.48586
0.47376
0.417851
0.518061
0.494703
0.668609
0.3828
0.402148
0.898049
0.500528
0.395562
0.485354
0.376806
0.969668
0.424293
0.381447
0.368817
0.372149
0.371763
0.377575
0.374597
0.588141
0.372396
0.481223
0.373529
0.452155
0.404354
0.53755
0.373037
0.375075
0.36786
0.523697
0.475228
0.508984
0.375277
0.382418
0.476991
0.408207
0.400264
0.366595
0.366308
0.368246
0.377894
0.372525
0.405513
0.373381
0.539094
0.44963
0.928901
0.725417
0.52556
0.551313
0.425207
0.427733
0.367267
0.573691
0.377521
0.396788
0.375314
0.482592
0.420183
0.38199
0.450987
0.709284
0.450962
0.369126
0.366419
0.597913
0.769821
0.41335
0.714095
0.798208
0.605081
0.630775
0.562084
0.650864
0.432085
0.606036
0.744562
0.374809
0.378743
0.376285
0.469269
0.6058
0.379979
0.371278
0.432184
0.396391
0.402631
0.703565
0.498257
0.770809
0.379063
0.371168
0.373861
0.3641
0.380002
0.754075
0.38451
0.452228
0.556517
0.368689
1.07622
1.11308
0.370325
0.46186
0.443232
0.729766
0.391607
0.492276
0.710495
0.69743
0.467648
0.617247
0.517023
0.534904
0.377295
0.394767
0.389315
0.728883
0.696668
0.420284
0.386482
0.535995
0.469324
0.562146
0.376574
0.399797
0.850678
0.591044
0.28289
0.367666
0.328176
0.372223
0.244595
0.422885
0.462491
0.576294
0.246117
0.45546
0.485116
0.221949
0.471329
0.4724
0.455017
0.424798
0.480344
0.388481
0.522367
0.385498
0.372691
0.379738
0.385186
0.650083
0.670344
0.713964
0.422115
0.427379
0.517011
0.416828
0.27211
0.43724
0.401182
0.380952
0.519356
0.383338
0.294923
0.379309
0.443497
0.435387
0.691276
0.489649
0.763655
0.773422
0.691284
0.388303
0.430837
0.615127
0.353387
0.536014
0.409844
0.420147
0.372678
0.736885
0.550367
0.380185
1.16595
0.604448
0.377432
0.461104
0.673559
0.719518
0.431918
0.392132
0.485291
0.699323
0.40043
0.369557
0.395377
0.392376
0.435959
0.475966
0.608937
0.4121
0.595563
0.784636
0.556524
0.474048
0.609001
0.453206
0.745245
0.583673
0.483611
0.716277
0.540318
0.4144
0.467124
0.378656
0.372939
0.375601
0.402755
0.535223
0.632339
0.377882
0.393462
0.404784
0.378369
0.37741
0.562775
0.471304
0.37765
0.386486
0.723707
0.918063
0.252426
0.425336
0.370355
0.395994
0.582314
0.529357
0.378583
0.287111
0.390246
0.277465
0.3338
0.573878
0.389501
0.385606
0.378079
0.425972
0.734744
0.459822
0.39072
0.488503
0.374829
0.7018
0.572492
0.476847
0.586877
0.407655
0.373396
0.369864
0.377687
0.388968
0.433558
0.3731
0.380332
0.375226
0.373769
0.53855
0.548769
0.661405
0.380713
0.484994
0.408953
0.431042
0.401739
0.470142
0.391277
0.394562
0.386229
0.366216
0.382505
0.381965
0.468017
0.376526
0.39171
0.400509
0.597259
0.382442
0.426619
0.462159
0.688777
0.671318
0.419815
0.801149
0.268196
0.399082
0.409988
0.531558
0.392606
0.655849
0.457655
0.367248
0.44171
0.520687
0.438505
0.472013
0.580568
0.485706
0.480787
0.62418
0.389277
0.373516
0.420764
0.375554
0.369694
0.431735
0.368158
0.372143
0.544399
0.373401
0.356352
0.456827
1.02165
0.369318
0.370525
0.748899
0.369054
0.374932
0.50797
0.371961
0.590385
0.44284
0.705236
0.370681
0.543003
0.467585
0.610721
0.378787
0.457497
0.369388
0.597905
0.376009
0.376074
0.406209
0.453031
0.483935
0.403048
0.382276
0.387668
0.37315
0.491974
0.372775
0.369091
0.367991
0.460067
0.525395
0.372745
0.385284
0.373733
0.376617
0.385714
0.489874
0.374006
0.457393
0.37674
0.573037
0.381732
0.407365
0.384426
0.485731
0.381324
0.456012
0.382152
0.383649
0.376016
0.398355
0.379915
0.458747
0.446434
0.653136
0.667016
0.691067
0.426247
0.400416
0.391408
0.371207
0.368499
0.826777
0.620351
0.425166
0.409972
0.384975
0.389819
0.368918
0.368678
0.517065
0.503176
0.680955
0.538858
0.415454
0.377284
0.436815
0.373053
0.602092
0.374479
0.396708
0.385838
0.39282
0.849228
0.438297
0.36642
0.390031
0.430087
0.368059
0.280022
0.373737
0.300559
0.414475
0.813869
0.474648
0.710745
0.367453
0.392895
0.403259
0.390376
0.410948
0.371694
0.371051
0.363896
0.376255
0.38513
0.374657
0.547253
0.426032
0.755205
0.445418
0.374132
0.498561
0.386498
0.370027
0.34038
0.853571
0.80788
0.282544
0.323941
0.378882
0.687921
0.48487
0.453156
0.419133
0.410977
0.265584
0.391908
0.3834
0.36322
0.433466
0.557837
0.69246
0.533047
0.451657
0.366528
0.433344
0.640178
0.39172
0.369885
0.676656
0.66193
0.562579
0.567377
0.364398
0.362812
0.430493
0.365981
0.742195
0.368469
0.374193
0.369833
0.625552
0.372421
0.407017
0.479889
0.478878
0.373558
0.370815
0.390343
0.372368
0.367211
0.377153
0.426331
0.547064
0.462677
0.3997
0.564788
0.389714
0.547469
0.412553
0.79602
0.468502
0.46764
0.620107
0.322403
0.451589
0.439095
0.564657
0.441581
0.364761
0.380284
0.36918
0.387227
0.758854
0.399159
0.374289
0.377862
0.410216
0.366143
0.497174
0.395985
0.388333
0.473176
0.393682
0.370841
0.402505
0.390604
0.655363
0.638939
0.410015