/*--------------------------------*- C++ -*----------------------------------*\
| =========                 |                                                 |
| \\      /  F ield         | OpenFOAM: The Open Source CFD Toolbox           |
|  \\    /   O peration     | Version:  2506                                  |
|   \\  /    A nd           | Website:  www.openfoam.com                      |
|    \\/     M anipulation  |                                                 |
\*---------------------------------------------------------------------------*/
FoamFile
{
    version     2.0;
    format      ascii;
    arch        "LSB;label=32;scalar=64";
    class       volScalarField;
    location    "0.01535";
    object      nut;
}
// * * * * * * * * * * * * * * * * * * * * * * * * * * * * * * * * * * * * * //

dimensions      [0 2 -1 0 0 0 0];

internalField   nonuniform List<scalar> 
47425
(
0.00684014
0.00544954
0.00596608
0.00223937
0.00361463
0.00528028
0.0055138
0.00363011
0.00742784
0.0014363
0.00263211
0.00742554
0.0063317
0.00522022
0.00448912
0.00370833
0.00613193
0.00293558
0.000332038
0.00315623
0.00455121
0.00754608
0.00359998
0.00613285
0.00742775
0.00751634
0.00543056
0.000456853
0.00604651
0.00680865
0.00750445
0.00750143
0.00735325
0.00608937
0.00713293
0.00565877
0.00751114
0.00539124
0.0057991
0.00515389
0.0052048
0.00709037
0.00709016
0.00262607
0.000687639
0.00354153
0.00398485
0.00460538
0.00499986
0.00735411
0.000566072
0.00393585
0.00735883
0.000944598
0.00336703
0.00309556
0.00753068
0.00657374
0.00203413
0.00610577
0.000879638
0.000575763
0.00100938
0.00401557
0.00734082
0.00737667
0.00575913
0.00639465
0.0010741
0.00473904
0.00516842
0.00727971
0.00714602
0.00450569
0.00127451
0.00740826
0.00104289
0.00476912
0.000212515
0.00260019
0.00120678
0.0061627
0.00743075
0.00703141
0.00749023
0.00473101
0.00704421
0.00728859
0.00516865
0.0012492
0.00750585
0.00468946
0.00753025
0.00335548
0.00262767
0.00195106
0.00728155
0.00736852
0.00494962
0.00472032
0.00601358
0.00110654
0.00720613
0.000999932
0.00740242
0.00689838
0.00747954
0.00451227
0.00754286
0.00756346
0.000997508
0.00612528
0.00665577
0.00246497
0.00697828
0.000304429
0.00708696
0.000715377
0.00464647
0.00653958
0.0053213
0.00744161
0.00628073
0.00397117
0.00380499
0.0065358
0.00464852
0.00743792
0.00358448
0.00747844
0.00745939
0.00368324
0.000999897
0.00305262
0.00723849
0.00637524
0.00705817
0.00635202
0.00554541
0.00385137
0.00515482
0.00286885
0.00533623
0.00628432
0.00689524
0.00741258
0.00454918
0.00591667
0.00248577
0.00512365
0.00640825
0.000486515
0.00725544
0.000368519
0.00381243
0.00441315
0.00379339
0.000265049
0.00393141
0.00498299
0.00703657
0.00754714
0.0073425
0.00736226
0.00116028
0.000464186
0.00749724
0.00127662
0.00356253
0.000842712
0.00129418
0.00431832
0.00491092
0.00467714
0.00513774
0.00142141
0.000332015
0.00605205
0.00700954
0.00751096
0.000278488
0.00750262
0.00675536
0.00748912
0.0074106
0.00683146
0.0067834
0.0011914
0.00261645
0.00698952
0.00744371
0.00621019
0.0042756
0.00476594
0.00743819
0.00717277
0.00582734
0.00520012
0.00711634
0.00517389
0.00558039
0.00311835
0.00754098
0.00718284
0.00337223
0.00241386
0.00724128
0.00719326
0.00419125
0.00738085
0.00613211
0.00626661
0.00737583
0.00500495
0.00621301
0.00649033
0.00590315
0.00259058
0.00403951
0.00399924
0.00214097
0.00414969
0.00692718
0.004689
0.00239803
0.00174225
0.00742416
0.00310037
0.00687719
0.00505291
0.00622715
0.0051109
0.00353496
0.00749616
0.00231395
0.00398207
0.00233107
0.00320332
0.00245603
0.00208905
0.00498224
0.00705557
0.00753886
0.00421812
0.00744623
0.00697333
0.00615392
0.00561516
0.00751294
0.00540881
0.00756919
0.00245257
0.00604724
0.00740988
0.00422866
0.00754137
0.00755312
0.00315057
0.0042409
0.00722158
0.00316181
0.00740623
0.00560475
0.0028374
0.006362
0.0025149
0.00750136
0.00631103
0.00654728
0.0048998
0.00532677
0.00298052
0.00236688
0.00720791
0.00284952
0.00214354
0.0032352
0.000517568
0.00254703
0.000643368
0.000878221
0.00702823
0.000891201
0.00305241
0.0049438
0.00510958
0.00357847
0.00462759
0.00193718
0.00690409
0.000655415
0.00650009
0.00737641
0.0068384
0.00638728
0.0036963
0.00349992
0.00735048
0.00590301
0.00456694
0.00413004
0.00741262
0.00409743
0.00675713
0.000724779
0.000805631
0.000477705
0.00753559
0.00735843
0.00747902
0.00354471
0.00066735
0.0044552
0.00312566
0.00151258
0.00492351
0.00360705
0.00313785
0.00460653
0.00201777
0.00175101
0.00759177
0.00647619
0.00746542
0.00288001
0.00749972
0.00528042
0.00655952
0.00718717
0.00548978
0.00571666
0.000990814
0.00560733
0.00518
0.00302434
0.00761007
0.000904824
0.00722271
0.00737916
0.00702543
0.00751232
0.00743371
0.00749005
0.00715138
0.00724028
0.00690052
0.00658911
0.00727761
0.00522768
0.00433192
0.0074631
0.00735467
0.00599068
0.00730919
0.00736678
0.00323546
0.00506343
0.00754754
0.00714605
0.00388909
0.00193099
0.00663463
0.00457098
0.00440007
0.00741077
0.007249
0.00288842
0.00721819
0.00556384
0.00747052
0.00289991
0.000758575
0.00505118
0.00753097
0.00192828
0.00752132
0.00715929
0.00401889
0.0050396
0.00752158
0.0055449
0.00749084
0.00752765
0.00481945
0.00422848
0.00439109
0.00438324
0.00715028
0.00706961
0.00450377
0.00727979
0.00730624
0.00476524
0.0067683
0.00592214
0.00726239
0.00625015
0.00410423
0.00209424
0.0073995
0.000827339
0.00746687
0.00261011
0.00506002
0.00360412
0.00362147
0.00735797
0.00262692
0.00744671
0.00391581
0.00732344
0.000894547
0.000864117
0.00737062
0.0041116
0.00510485
0.00480841
0.00474817
0.00483769
0.00552199
0.00412587
0.00548733
0.00745846
0.00371549
0.00601037
0.00728073
0.00354529
0.00584905
0.00707026
0.000977838
0.000318382
0.00727329
0.000479353
0.00038755
0.0041105
0.000435757
0.000615249
0.0072014
0.00528277
0.00568472
0.00567065
0.000833419
0.00411213
0.00726863
0.0070849
0.00611559
0.00594344
0.00463901
0.00472448
0.000884959
0.000592865
0.00140644
0.00539355
0.00124097
0.00590257
0.00691502
0.0072546
0.00648479
0.00720727
0.00428655
0.0048102
0.00286025
0.00550485
0.0074959
0.00510051
0.00668306
0.00461499
0.00713654
0.0063328
0.0058493
0.00535451
0.00561921
0.00344326
0.00300468
0.00649262
0.00438555
0.00713599
0.00098977
0.00292622
0.00238706
0.00734072
0.00274283
0.00345932
0.00414682
0.007479
0.00550128
0.00691412
0.0059218
0.00370893
0.00351108
0.00551562
0.00432233
0.00699575
0.00248996
0.000948818
0.00744947
0.00196753
0.00681874
0.00197746
0.00728906
0.00708843
0.00750134
0.00559181
0.00692566
0.00333188
0.00631534
0.0074677
0.00753616
0.00711425
0.00499959
0.00288313
0.00508168
0.00755393
0.00658741
0.00711978
0.00707184
0.00658672
0.00516329
0.00556568
0.00344203
0.0047505
0.00318479
0.000620386
0.00601778
0.00544673
0.00670674
0.00741458
0.00176177
0.00154616
0.00473651
0.00701348
0.00455729
0.00606609
0.0073482
0.0016404
0.00751005
0.00208707
0.00277569
0.00312177
0.00638727
0.00286474
0.00757688
0.00538314
0.00549722
0.00747471
0.00755754
0.00720219
0.000832784
0.00647687
0.00259101
0.00745295
0.00177165
0.00716139
0.00655174
0.00249448
0.0026681
0.00521159
0.0075582
0.000799147
0.00706245
0.006804
0.00716584
0.00717688
0.00746686
0.0026832
0.00545515
0.00725423
0.00712102
0.00554605
0.0075165
0.0014052
0.00741961
0.00605478
0.00061664
0.00519309
0.00748596
0.000730443
0.00136647
0.00756302
0.000218007
0.000307758
0.00560748
0.00723786
0.00722417
0.00753434
0.00446291
0.00409655
0.00185849
0.00757374
0.00289687
0.00708119
0.00191451
0.00245975
0.00445709
0.00560923
0.0016327
0.00203929
0.00722363
0.00423402
0.00468278
0.00355781
0.0030725
0.00307392
0.00733655
0.00408702
0.00288275
0.00555423
0.00552477
0.00331011
0.00453146
0.00733241
0.00267345
0.00395551
0.00528891
0.00301317
0.00355418
0.00628359
0.004947
0.00679182
0.00207079
0.00533575
0.00710942
0.00741532
0.00027543
0.00480595
0.00620736
0.000459872
0.000738146
0.0075451
0.00486553
0.000154518
0.00217336
0.000949338
0.0022655
0.00268009
0.000545248
0.00677992
0.00736989
0.00584393
0.00350248
0.00340768
0.00337532
0.00742955
0.00325033
0.00590542
0.00494177
0.0070734
0.00456539
0.00549454
0.00252609
0.000506631
0.00317151
0.00350995
0.00427354
0.00751868
0.00349117
0.00704687
0.00586762
0.00556739
0.00557381
0.00746682
0.00207653
0.00478338
0.00738924
0.00163387
0.00203216
0.000919616
0.00139984
0.00415311
0.0074798
0.00496064
0.007495
0.000873717
0.00537536
0.000786726
0.00451203
0.00583607
0.00668934
0.0052421
0.00596974
0.00507261
0.00259719
0.00455428
0.00717722
0.00192674
0.00567792
0.00748248
0.00482459
0.0041091
0.000711877
0.00665974
0.00189614
0.00444353
0.00747464
0.00749162
0.00265034
0.00495375
0.00463768
0.00731124
0.00578469
0.00503068
0.00493616
0.0046841
0.00473233
0.00601758
0.0010809
0.000642146
0.00551684
0.000909733
0.00574014
0.00328389
0.00426974
0.00744578
0.0072195
0.00670809
0.00550546
0.00481834
0.00753345
0.000551848
0.00143605
0.00387051
0.00569231
0.00741337
0.00408609
0.00726266
0.00264588
0.00707509
0.00114753
0.00431323
0.00747218
0.00485177
0.00739018
0.00633832
0.00551706
0.00735469
0.00415533
0.00744555
0.00736304
0.00494493
0.000939339
0.00757681
0.000634933
0.00201338
0.0024917
0.000696995
0.00454248
0.00530759
0.0026607
0.00457173
0.000850527
0.000473591
0.000764241
0.0050262
0.00663162
0.00547338
0.00314325
0.000914956
0.00279681
0.00405246
0.00692583
0.00569788
0.00603807
0.00292364
0.00643489
0.00447185
0.00146672
0.00231056
0.00552586
0.00247835
0.00119917
0.000770077
0.00556765
0.000313048
0.00138212
0.000628154
0.000768641
0.00451214
0.00314692
0.00747897
0.00739856
0.00506169
0.000665879
0.00202102
0.00508603
0.00501249
0.00753363
0.000980707
0.000564137
0.00756725
0.00231123
0.00412725
0.00752824
0.00228284
0.00755024
0.00754285
0.0053434
0.0051375
0.00169489
0.00725394
0.00760647
0.00658684
0.00539108
0.00540254
0.00113261
0.00161988
0.00754974
0.00151149
0.00724285
0.00751285
0.00744726
0.00188186
0.00470009
0.00272808
0.00356622
0.00709567
0.00730478
0.00147167
0.000786585
0.00513495
0.00442542
0.00165218
0.00571
0.00572943
0.00319928
0.00304809
0.00297359
0.00189865
0.0024153
0.00117562
0.00740157
0.0012578
0.00703713
0.0041078
0.00746219
0.00221584
0.00291241
0.00745579
0.00179979
0.00132838
0.00427084
0.00180325
0.00573038
0.00713644
0.00523624
0.00362361
0.00522267
0.00379627
0.000783277
0.00560588
0.00317964
0.00181793
0.00180489
0.000575622
0.00177849
0.00426511
0.000552973
0.00738539
0.00743326
0.00380257
0.00235024
0.00428192
0.00160014
0.00137609
0.00364823
0.0062015
0.00598554
0.00338734
0.00369196
0.00410778
0.00216511
0.00153955
0.00467999
0.0065657
0.00213748
0.00213912
0.00162349
0.000527376
0.00406531
0.00540011
0.00394394
0.00406367
0.00396059
0.00744297
0.00345571
0.00390693
0.00104902
0.00335921
0.00545615
0.00396727
0.00718719
0.00355101
0.000847909
0.00466771
0.00220348
0.00708563
0.00239298
0.00288227
0.00378582
0.00543516
0.00538499
0.00363745
0.00134037
0.00418888
0.00171212
0.000706754
0.00665333
0.00734997
0.00708407
0.00128264
0.00653347
0.00268841
0.00701043
0.00176873
0.000763341
0.00377945
0.00426111
0.00438532
0.00738438
0.00517938
0.0032529
0.000781454
0.00284772
0.000992438
0.00733675
0.00300437
0.00364237
0.00262549
0.00462621
0.00207125
0.00171116
0.00167825
0.00542929
0.000642994
0.00430526
0.00495223
0.00557048
0.00670394
0.00613701
0.00531871
0.0015061
0.00281234
0.00360304
0.00667918
0.00668249
0.000721301
0.00110404
0.00073376
0.0017778
0.000776419
0.00209729
0.00405679
0.00135946
0.00488523
0.00127972
0.00206002
0.00206592
0.00155364
0.00439666
0.00654359
0.00581356
0.00752279
0.00171987
0.00379363
0.00398571
0.00508563
0.00161534
0.00699101
0.00486568
0.00728066
0.00741514
0.00302558
0.00233854
0.00304291
0.00422164
0.00651286
0.00235067
0.00751449
0.00457492
0.00388181
0.00720873
0.00289039
0.00142283
0.00604527
0.00267385
0.00535194
0.00151642
0.00208403
0.00301076
0.00353511
0.000214131
0.000261969
0.00165928
0.000509132
0.00356493
0.00403139
0.000467385
0.00064101
0.00692232
0.00123172
0.00347358
0.00430695
0.00039545
0.00268829
0.00693919
0.00331065
0.00192394
0.00722734
0.000705314
0.00034056
0.00284763
0.000686681
0.00257647
0.000861643
0.000596538
0.00653516
0.00473232
0.00282069
0.00128098
0.00390041
0.00707313
0.002452
0.000535758
0.00714932
0.00212342
0.00589499
0.00224414
0.00737225
0.00678022
0.00242621
0.00204502
0.00446255
0.00213972
0.00636341
0.000912529
0.00746528
0.00745245
0.0026955
0.00223978
0.005112
0.0073344
0.000713912
0.00133754
0.00182102
0.00381397
0.00387447
0.00248034
0.000953276
0.00515216
0.000858322
0.00162326
0.00675434
0.00429058
0.00196828
0.000568927
0.0026909
0.00218759
0.00629603
0.00726554
0.00258314
0.0048634
0.00214649
0.00578757
0.00740865
0.00735962
0.00560249
0.00209459
0.000698611
0.00524636
0.000444847
0.00446387
0.00523568
0.00217613
0.00711754
0.00435428
0.00605518
0.00551123
0.00197386
0.00707441
0.00146722
0.00759606
0.000337212
0.00102642
0.00213253
0.00200543
0.0060652
0.00566972
0.00361126
0.00719881
0.000692366
0.000620111
0.00355057
0.0020248
0.000759968
0.000767209
0.00207996
0.00106826
0.000500178
0.00394809
0.00733509
0.000427589
0.00476207
0.00715842
0.00514966
0.000691508
0.000346386
0.00484239
0.00557692
0.00147956
0.00196239
0.00117536
0.000623977
0.00347018
0.000936753
0.00099624
0.00351768
0.0046951
0.000715374
0.00656757
0.000869585
0.000208367
0.00748383
0.00589787
0.00483767
0.00683476
0.00299688
0.00398462
0.00718848
0.00311786
0.00421018
0.000962424
0.00185203
0.00626329
0.00135285
0.00510117
0.000339568
0.00659309
0.00405248
0.0026622
0.00750729
0.000923069
0.0044075
0.00321862
0.00246364
0.00263303
0.00429662
0.00215457
0.00213713
0.000763063
0.00686927
0.000843268
0.000700822
0.000922656
0.00431789
0.00102328
0.0022127
0.00480601
0.00517471
0.00109979
0.00154946
0.0024528
0.000620064
0.00260177
0.00108121
0.000787088
0.00297247
0.00247642
0.000989176
0.00181192
0.00740224
0.00251954
0.00436287
0.00256693
0.00284332
0.00055564
0.00648311
0.00469685
0.00574565
0.00131123
0.00566507
0.000489377
0.00237158
0.00574693
0.00719281
0.00201916
0.00215284
0.000917
0.00213481
0.00336701
0.00138093
0.000980213
0.00476671
0.00086595
0.00126786
0.00390618
0.000511997
0.00124355
0.0031072
0.00317797
0.00559345
0.00191921
0.000593763
0.00212151
0.00140368
0.003468
0.00689753
0.00223083
0.00492895
0.00385842
0.00620866
0.00129413
0.00186726
0.00152681
0.00529489
0.00184002
0.00487417
0.00388779
0.00136249
0.00195905
0.00248166
0.00362825
0.00677354
0.000359229
0.00148748
0.0018258
0.00130209
0.00194806
0.00698875
0.00100525
0.000459205
0.00174205
0.00331655
0.00428267
0.00299511
0.00232333
0.000946068
0.00662699
0.00131948
0.00167687
0.00711954
0.00155636
0.00353243
0.00259147
0.00293943
0.00161455
0.00251284
0.00739682
0.000559319
0.00351517
0.000647692
0.00271044
0.00586053
0.00294907
0.00260013
0.00170235
0.00410073
0.00591747
0.00396498
0.000948448
0.00528847
0.00576681
0.000560062
0.00752698
0.00482261
0.000688214
0.00474473
0.00236298
0.00131266
0.00258766
0.00109116
0.00516504
0.000196966
0.00233436
0.000696711
0.0028342
0.00131829
0.00399733
0.000924321
0.00152153
0.00125833
0.00291039
0.00417587
0.00712649
0.00426944
0.00431226
0.00294873
0.000495122
0.00394205
0.0066908
0.00631197
0.00648765
0.00402749
0.00275142
0.00720741
0.00738573
0.00311417
0.000901156
0.00744364
0.00293471
0.00360859
0.0056823
0.00729472
0.00296892
0.00316941
0.00744856
0.00699554
0.0035741
0.00386679
0.00613376
0.00399508
0.000895877
0.00410177
0.00499628
0.00691551
0.00761126
0.00123779
0.00586594
0.00696869
0.000785355
0.00118165
0.000866325
0.00736114
0.000780948
0.000446043
0.00733681
0.000220447
0.000786524
0.000449709
0.00411382
0.00544497
0.00450289
0.00174858
0.00757429
0.00468609
0.00469617
0.00403302
0.00327289
0.00445219
0.00358032
0.0012061
0.00455423
0.0031949
0.000769261
0.00424195
0.000298583
0.00236694
0.0012028
0.0074471
0.00314919
0.00206911
0.0072886
0.00547704
0.00196397
0.00758113
0.0017202
0.00177079
0.000345445
0.00653769
0.00121101
0.00678414
0.00320064
0.00409316
0.00664219
0.00134344
0.00636698
0.00237171
0.00694256
0.00115983
0.000221641
0.00480688
0.00753464
0.000513697
0.00502411
0.00025642
0.00544751
0.0038902
0.00531106
0.00523848
0.00671522
0.00704043
0.00532289
0.00239104
0.00628732
0.00222889
0.00427128
0.0049703
0.00749397
0.00247023
0.000711806
0.00416269
0.00123457
0.0069989
0.00553049
0.00315152
0.00451415
0.00527059
0.00677131
0.00246778
0.00286431
0.00743563
0.00449304
0.00583626
0.00537657
0.00391901
0.00125079
0.00104372
0.0050426
0.00416542
0.00345535
0.00420428
0.00706259
0.00586505
0.00730348
0.00219941
0.00228299
0.00196215
0.00374274
0.00522091
0.0054838
0.00131393
0.00698058
0.00723772
0.00625916
0.00155336
0.00300607
0.00119884
0.00118412
0.00117634
0.00437209
0.00602219
0.00603255
0.00562689
0.00715379
0.00122527
0.00539742
0.00743358
0.00455904
0.00349135
0.00534712
0.00114531
0.00560964
0.00240712
0.0031347
0.00363197
0.00711348
0.00531009
0.0042189
0.00404461
0.00571161
0.00319354
0.00426135
0.00450002
0.00483537
0.00514967
0.00488846
0.00241398
0.0020996
0.00630338
0.00443993
0.00286176
0.00362871
0.00231348
0.00743814
0.00714896
0.00281062
0.00611208
0.00688194
0.00483442
0.00741553
0.0074616
0.00513132
0.00479909
0.00167653
0.00528578
0.00263068
0.00738687
0.00554792
0.000504058
0.00460939
0.004368
0.00679418
0.00619137
0.00416997
0.00439869
0.000279752
0.00356985
0.00140144
0.00728683
0.00644816
0.0051715
0.00748155
0.00723322
0.00361807
0.00436266
0.00715047
0.00749715
0.00249222
0.000919738
0.00139578
0.00312793
0.00174212
0.00368828
0.00578287
0.00363862
0.00248584
0.00209402
0.0044972
0.00476668
0.00080463
0.0059961
0.00463847
0.00416203
0.0042697
0.00748741
0.000323027
0.00573663
0.00389645
0.00710635
0.00294392
0.00352349
0.00030263
0.000230301
0.00555784
0.00705381
0.00749292
0.00415671
0.00391919
0.00666063
0.000217836
0.00104073
0.00609907
0.00263742
0.00134039
0.00622566
0.00738423
0.00243977
0.00751256
0.00629527
0.00720371
0.00525126
0.00401506
0.00429052
0.00477024
0.00661838
0.00261808
0.00518893
0.00739058
0.00111447
0.00561047
0.00442219
0.00242718
0.000973729
0.00122844
0.00359516
0.00289624
0.00617217
0.00285878
0.0030685
0.0074184
0.000522632
0.00133598
0.00289253
0.00454374
0.00345938
0.00408242
0.00407488
0.00135014
0.00752771
0.00739769
0.0056493
0.00534989
0.000960729
0.00143417
0.000934772
0.00122977
0.0036377
0.00290893
0.00751945
0.00750638
0.00460178
0.00639945
0.00540252
0.006871
0.00761992
0.000965199
0.00042381
0.00744766
0.00753537
0.00305378
0.00119624
0.00380198
0.00753585
0.00639658
0.001275
0.000855992
0.00443186
0.00176941
0.00229917
0.00232941
0.000456229
0.00281548
0.00708405
0.00756241
0.00604701
0.000862484
0.00700202
0.00440965
0.00461656
0.00753992
0.000735355
0.000215808
0.000190292
0.0017829
0.00132191
0.00698397
0.00726841
0.00326168
0.00509594
0.000541353
0.000921964
0.000466249
0.000385448
0.000596497
0.00202886
0.00740691
0.000821989
0.00716549
0.000314545
0.00399051
0.000678777
0.00464549
0.00198111
0.00730301
0.00394423
0.00227394
0.00230025
0.00729593
0.00550918
0.00406827
0.000942712
0.00136291
0.00496552
0.00542404
0.000418759
0.000498837
0.00493809
0.00136682
0.000668002
0.00109254
0.00588345
0.00743135
0.00064611
0.000512043
0.00139389
0.00748829
0.00104584
0.00722113
0.00062135
0.00078985
0.000288045
0.00244396
0.00696261
0.00204903
0.00745344
0.0052658
0.00441153
0.00233326
0.00640543
0.00463666
0.00646908
0.00399269
0.005072
0.00745123
0.00741005
0.00441461
0.00727552
0.0071766
0.00465416
0.00672411
0.00196219
0.00408943
0.00248873
0.00413487
0.00727799
0.0066486
0.000915419
0.00528285
0.00383217
0.00223821
0.000620911
0.00559484
0.00192401
0.00445972
0.00101917
0.00297137
0.00132643
0.00466768
0.00741056
0.00484034
0.00403539
0.0069946
0.00400139
0.00364593
0.00443504
0.00695459
0.00574698
0.00704249
0.00541159
0.00343646
0.00629612
0.00380951
0.0006543
0.00416664
0.00449502
0.00495944
0.00329654
0.00121271
0.0025646
0.00455486
0.00560616
0.00350454
0.000983079
0.000932503
0.00506999
0.00350545
0.000322339
0.00161786
0.00208021
0.00416186
0.00159847
0.00328637
0.00430038
0.00404881
0.00105644
0.0048343
0.00431232
0.00178381
0.00666803
0.00237817
0.00325078
0.00334992
0.003573
0.0019817
0.0049946
0.00632026
0.00752265
0.0024309
0.00420467
0.00452211
0.0023558
0.00614527
0.00100093
0.00301989
0.00376164
0.000373196
0.00221877
0.00741196
0.00363768
0.000681393
0.00177749
0.00248636
0.0074743
0.00291539
0.0013978
0.00692893
0.00753517
0.000637287
0.00189695
0.00161512
0.00171821
0.00722051
0.00569352
0.00109429
0.000574414
0.000721069
0.00718939
0.00599691
0.000501008
0.00745154
0.00202035
0.00353209
0.00134914
0.00145804
0.00727919
0.00404092
0.000731615
0.00408611
0.00486456
0.00580224
0.00377581
0.00626688
0.00112462
0.00028304
0.0047278
0.00371179
0.000514387
0.000595477
0.000595207
0.00252116
0.000936664
0.00226356
0.000467889
0.00362762
0.00359619
0.000738436
0.00401035
0.00262241
0.000713031
0.000756454
0.0003207
0.00750442
0.00734014
0.000708509
0.00640949
0.00435541
0.000614707
0.0063578
0.00336703
0.00573492
0.00474659
0.00517482
0.00710385
0.000433173
0.00062996
0.00164017
0.000686578
0.00240447
0.00482145
0.00453616
0.00571692
0.00336445
0.00599889
0.00686914
0.00533935
0.00634493
0.000610477
0.000518849
0.00671371
0.00214407
0.00703597
0.00387122
0.00298232
0.00360603
0.00381787
0.00575678
0.000706059
0.00129749
0.00459426
0.000616642
0.00288405
0.00132401
0.0047766
0.00425305
0.000822724
0.0028436
0.00118762
0.00185785
0.00292703
0.0029746
0.00699562
0.00113019
0.00750796
0.00682356
0.0028208
0.00442647
0.00146435
0.00362819
0.00318335
0.00364033
0.000734305
0.00452975
0.00323979
0.00375878
0.00748468
0.00282622
0.0061133
0.00193117
0.000303453
0.00393183
0.000517927
0.00358313
0.00553247
0.00207737
0.00553487
0.00618437
0.0062609
0.00325844
0.0011784
0.00149463
0.00163763
0.000626118
0.00187177
0.00571572
0.000176956
0.00106488
0.00680505
0.00285842
0.00151069
0.00441916
0.000778316
0.000416099
0.00269857
0.00118049
0.00147364
0.00341402
0.000809582
0.00203368
0.00688839
0.00363663
0.000919569
0.000829239
0.00748763
0.000991462
0.00727171
0.00229044
0.00640571
0.00268227
0.00225963
0.00102306
0.000881344
0.00582123
0.00560606
0.000201489
0.00754556
0.00555929
0.0010631
0.00675604
0.00298175
0.00245136
0.00425814
0.000420871
0.00146076
0.000271185
0.00127903
0.00317939
0.00127036
0.00732766
0.00655014
0.00122824
0.0074935
0.00406974
0.00264804
0.00611246
0.00148713
0.000595897
0.00739764
0.00242396
0.00720906
0.000843222
0.00513168
0.000530451
0.00302829
0.00234336
0.00711039
0.00268342
0.00266734
0.00723595
0.00669051
0.00371377
0.00755461
0.00111425
0.00461532
0.00263497
0.00658228
0.00490664
0.00363894
0.00298399
0.00295626
0.00217183
0.00322642
0.00535988
0.00512387
0.00181442
0.00069766
0.000693671
0.000741578
0.00119226
0.000778614
0.00126314
0.00316594
0.000300657
0.000606673
0.0013845
0.00222995
0.00297444
0.000847952
0.000909925
0.00232698
0.00126199
0.00213814
0.00631118
0.00310234
0.00126738
0.00426951
0.000482592
0.0030009
0.000488211
0.00219289
0.00113521
0.0013049
0.000988593
0.000575681
0.00197572
0.000675589
0.00294579
0.00160701
0.00510491
0.00181713
0.00611352
0.00662472
0.00101055
0.00388279
0.000780273
0.00143052
0.00594448
0.00238642
0.00604454
0.00126104
0.000950908
0.00719897
0.00620646
0.00182397
0.000822459
0.00404645
0.00283798
0.00117344
0.00106771
0.00658744
0.00732971
0.00403765
0.00555558
0.000750999
0.00738544
0.000957201
0.000299281
0.0059043
0.00330677
0.00586637
0.00495981
0.000615
0.00281164
0.00067968
0.00450194
0.00597582
0.000578463
0.000838559
0.00667598
0.00255179
0.00667534
0.00725796
0.00106525
0.00282761
0.000648833
0.00565055
0.00718394
0.00214674
0.00665651
0.00572995
0.00652082
0.00621255
0.00279711
0.00206931
0.00139055
0.00226455
0.00129019
0.00346221
0.0073616
0.00223091
0.00122788
0.000737319
0.000949891
0.000878148
0.00207381
0.000909543
0.00101173
0.000971037
0.000934974
0.00461137
0.00302132
0.00427287
0.00145671
0.00449282
0.0023192
0.00343766
0.00176494
0.000488309
0.00337707
0.00148604
0.00345441
0.00640093
0.00347887
0.00658195
0.00643133
0.00586456
0.00213412
0.00361631
0.00306338
0.00683276
0.00320296
0.00149766
0.0007859
0.00512568
0.000595461
0.00708773
0.00417465
0.00751642
0.00485803
0.00105662
0.00273502
0.00130271
0.00264992
0.0047378
0.00410326
0.00466556
0.00629776
0.00290551
0.00393546
0.00315032
0.00676743
0.000892044
0.00347722
0.00152568
0.00296762
0.0012262
0.00700766
0.00467687
0.00388464
0.00409936
0.00297259
0.000879516
0.00738845
0.00523324
0.000816122
0.00249793
0.00244194
0.00321605
0.00246513
0.00254715
0.00253704
0.00669427
0.00702152
0.00644811
0.00202172
0.00194827
0.00600566
0.000293042
0.0053234
0.00183417
0.00709719
0.00724854
0.00189224
0.00451353
0.00629551
0.00105798
0.00734708
0.00439319
0.0017941
0.00229896
0.00749222
0.00116454
0.00719569
0.00705831
0.0012508
0.00351843
0.00289651
0.00084116
0.00748957
0.00156903
0.00158667
0.00175736
0.000992054
0.00098975
0.00643211
0.00572235
0.00294892
0.00618805
0.00248631
0.00153441
0.00666615
0.00741881
0.00352866
0.00117823
0.00302508
0.00447749
0.00208442
0.00352214
0.00199437
0.00731756
0.00211472
0.00141452
0.00398208
0.00660087
0.00549764
0.00657329
0.00416839
0.00441402
0.00231917
0.00413882
0.000471013
0.00436407
0.00738845
0.000768442
0.00290892
0.000629527
0.000846908
0.00673902
0.00450502
0.00124731
0.00313271
0.00057176
0.00150741
0.000891773
0.00160462
0.000470834
0.00276243
0.00149351
0.0019502
0.00058695
0.000978895
0.0030478
0.000611415
0.00044375
0.00136804
0.000376712
0.000864996
0.00173218
0.00113063
0.000765736
0.000774877
0.00751028
0.00384319
0.000893912
0.000893042
0.0008999
0.00159533
0.00155038
0.000633928
0.00298811
0.00376777
0.00490352
0.00746852
0.0033724
0.00733022
0.0009343
0.00301257
0.00444265
0.000737403
0.00453532
0.00234943
0.00597077
0.0066622
0.00327097
0.00599333
0.00178907
0.00739269
0.00240726
0.000530506
0.00609468
0.00720586
0.00465282
0.00633759
0.00156716
0.00306669
0.00627714
0.0067385
0.000588257
0.00728735
0.0056005
0.00676512
0.00204152
0.00378537
0.00476125
0.00669545
0.00617603
0.00079393
0.00502445
0.00240208
0.00686523
0.00720889
0.00735098
0.00634782
0.00506656
0.00384479
0.00722407
0.00383053
0.00392961
0.00304486
0.00105537
0.00131653
0.00431964
0.00202696
0.00447565
0.002771
0.00349568
0.00384593
0.0070021
0.00319835
0.00437399
0.00653002
0.00199844
0.00479606
0.0033353
0.00117377
0.00499723
0.00293012
0.00138412
0.00396099
0.00113709
0.0027441
0.000989041
0.000388905
0.00296371
0.00653443
0.00199345
0.000477448
0.00259035
0.00694852
0.00731795
0.00716722
0.00501942
0.00494482
0.00747765
0.00751077
0.00477353
0.00327702
0.00723984
0.00728101
0.00751991
0.00658726
0.00332139
0.00193928
0.00321133
0.00681386
0.00434451
0.000855633
0.0065734
0.0069097
0.00374038
0.000472327
0.000654624
0.00382239
0.00527404
0.00623986
0.00329609
0.00421044
0.000549916
0.00195474
0.00560156
0.00411978
0.00711388
0.00414534
0.00216831
0.00391075
0.00332952
0.00445891
0.00140139
0.00197365
0.0013223
0.00110115
0.000258169
0.00147341
0.00194427
0.00427616
0.00441888
0.00375577
0.00333609
0.00715168
0.00497847
0.000417734
0.00738897
0.00189447
0.000954177
0.00347799
0.00304456
0.00057402
0.00195332
0.00495396
0.00396388
0.00747936
0.00313194
0.00085691
0.00398427
0.00173747
0.00224946
0.00281938
0.000541804
0.000771176
0.00394922
0.00436427
0.00106919
0.00562336
0.000687862
0.0007044
0.00100642
0.00741566
0.007351
0.000248518
0.00685005
0.000462764
0.00228922
0.00355194
0.00101879
0.00101537
0.00712225
0.00746587
0.00100657
0.00713122
0.0070452
0.00588163
0.00734824
0.00448819
0.00615201
0.0024501
0.00660756
0.000333396
0.0034073
0.00665625
0.00455756
0.000287239
0.00447677
0.000485588
0.00579907
0.00438487
0.00437896
0.00115556
0.00606308
0.00385385
0.00615336
0.000735261
0.00212369
0.00212821
0.00127933
0.00309681
0.00699647
0.000875957
0.00309974
0.00341559
0.00307664
0.00649919
0.0034412
0.00420571
0.00747621
0.00039211
0.00155815
0.00520342
0.00614917
0.00185469
0.00589542
0.00308677
0.00401138
0.00633688
0.0024258
0.00584095
0.00652696
0.00453872
0.00133016
0.00529877
0.0057403
0.00607186
0.00380551
0.00746527
0.00545438
0.00681887
0.00284576
0.00597672
0.00188635
0.00258838
0.00450243
0.000487764
0.00638722
0.00346939
0.000813434
0.000671243
0.00104943
0.00429441
0.00225203
0.0020143
0.000416787
0.0040277
0.00124487
0.0040524
0.00716588
0.0033598
0.00183868
0.00401579
0.00642093
0.00716365
0.00691013
0.000311846
0.00685413
0.00695822
0.00298341
0.000444586
0.000428536
0.00455473
0.000237073
0.000396684
0.000998993
0.00105256
0.000743577
0.000545869
0.00641398
0.000673351
0.00409328
0.00720137
0.00242771
0.00046062
0.0023774
0.00722238
0.00708906
0.000818805
0.00628728
0.000452027
0.00728421
0.00294675
0.00651286
0.00301342
0.000586211
0.00719559
0.00322185
0.00308023
0.00690168
0.00372767
0.0072365
0.00300393
0.000576164
0.000496252
0.000599198
0.00166284
0.00201889
0.00703435
0.00718057
0.00643097
0.00381428
0.00732885
0.00178739
0.00751471
0.00100461
0.00427211
0.00722357
0.00690974
0.00484874
0.0071565
0.00404006
0.00321321
0.00748977
0.00336023
0.000841321
0.00701081
0.00134874
0.000847663
0.00638648
0.000225623
0.000483771
0.00291358
0.00298606
0.00504679
0.00136296
0.00480295
0.00224643
0.00131444
0.00661715
0.00179499
0.00683809
0.0025289
0.00509923
0.00280477
0.00212198
0.000606551
0.0033636
0.00425258
0.000705009
0.00164212
0.0021431
0.00083704
0.00558477
0.00132288
0.00508339
0.00193231
0.00289981
0.00597183
0.00124709
0.00296906
0.00326221
0.00700053
0.000622076
0.000857433
0.000566456
0.00670759
0.00501783
0.000988973
0.000460848
0.00308207
0.00478822
0.00257542
0.0012777
0.000643548
0.00207239
0.00693415
0.00260997
0.00443579
0.00690334
0.00409365
0.000657141
0.00669232
0.00216727
0.00320249
0.00718425
0.0028075
0.00283403
0.00718833
0.00485754
0.00273504
0.00231223
0.000769795
0.00542772
0.00124843
0.00281662
0.00232429
0.00322598
0.00206899
0.00153141
0.00370151
0.00687195
0.0068462
0.00685497
0.000621454
0.00508932
0.00103519
0.00362589
0.00543666
0.00645892
0.00398949
0.00747329
0.00256211