/*--------------------------------*- C++ -*----------------------------------*\
| =========                 |                                                 |
| \\      /  F ield         | OpenFOAM: The Open Source CFD Toolbox           |
|  \\    /   O peration     | Version:  2506                                  |
|   \\  /    A nd           | Website:  www.openfoam.com                      |
|    \\/     M anipulation  |                                                 |
\*---------------------------------------------------------------------------*/
FoamFile
{
    version     2.0;
    format      ascii;
    arch        "LSB;label=32;scalar=64";
    class       volScalarField;
    location    "0.01535";
    object      omega;
}
// * * * * * * * * * * * * * * * * * * * * * * * * * * * * * * * * * * * * * //

dimensions      [0 0 -1 0 0 0 0];

internalField   nonuniform List<scalar> 
47425
(
53.5808
70.5827
61.7754
160.158
103.325
69.7847
76.8231
101.515
49.8753
420.102
141.42
51.8666
62.7539
70.3571
82.6742
94.0328
60.1164
55.7796
876.66
159.74
80.393
48.6197
104.586
59.557
50.7181
49.4382
67.3841
654.782
60.4273
56.1084
50.9749
49.9213
51.3274
61.1592
51.3738
66.7308
49.5052
70.5542
65.0452
70.1441
74.269
51.7324
54.2553
145.913
1824.9
110.645
94.0251
81.9048
74.1186
50.4068
522.729
104.929
50.5234
633.504
116.678
121.858
49.1942
58.2138
76.1638
61.9345
856.578
1202.55
729.743
51.664
50.3883
50.6109
65.1447
58.429
689.546
54.3372
71.0085
51.8021
52.1172
83.3077
549.422
50.3294
711.582
77.7834
1293.36
165.814
577.452
60.2379
50.5161
54.5369
49.1879
78.0641
52.6476
49.7035
64.5248
266.443
49.9048
79.4455
49.6748
114.63
149.184
194.877
50.2258
49.5697
75.0816
81.5115
61.0407
92.6692
51.3173
106.01
49.7582
54.4061
49.3694
79.8916
48.1523
50.5349
273.037
59.8329
56.2018
151.383
53.1514
877.631
52.2746
225.519
84.227
57.3692
67.8962
50.0463
60.0685
58.2683
100.189
58.1281
80.1119
49.6769
106.091
50.1789
50.5985
102.871
138.864
125.909
51.6687
61.1409
53.2511
59.7058
68.0114
94.0544
73.889
135.587
68.5767
61.594
54.2288
49.9934
69.6309
62.2149
152.24
74.21
59.8861
481.361
51.489
662.557
52.6188
84.6052
58.6481
832.579
97.3122
76.1861
53.0268
49.5136
50.5624
50.5798
326.054
762.578
50.3287
552.166
105.467
636.486
538.715
90.3262
76.0627
50.2826
76.189
70.4152
687.832
60.8442
53.3168
48.5601
918.205
48.8586
54.8175
50.0217
49.4834
55.442
55.1365
85.0158
144.987
53.0672
50.6301
61.0668
71.7947
78.6314
49.832
52.1704
64.1861
70.3166
52.7
70.1901
67.3305
121.753
48.5048
51.7408
54.8757
157.368
51.4204
51.875
90.594
51.3034
60.9975
59.3422
52.0643
73.7028
59.6375
57.5196
64.1753
151.774
53.9443
97.7685
191.8
88.4793
54.5352
78.6092
167.942
161.22
50.016
122.06
55.7235
64.8086
60.6409
73.3335
109.712
49.473
163.384
91.778
207.48
120.67
174.752
179.912
72.9536
53.0969
49.3239
87.8797
49.7832
54.8085
59.0419
69.8951
48.7657
70.0496
48.1887
134.779
62.0998
50.1836
89.0329
49.5989
49.3495
122.871
85.0977
51.8516
129.342
53.1605
68.5875
134.431
61.2625
94.3642
49.1251
61.9236
56.9302
77.2296
72.0058
155.253
199.813
52.3531
135.474
179.726
140.808
133.457
180.932
182.257
865.063
51.9755
810.062
127.095
75.2637
71.6923
106.843
78.4017
93.4849
54.3998
542.333
53.4339
50.4016
53.3103
57.7165
102.181
106.471
50.8922
61.5712
58.5858
94.6792
49.8121
91.9905
54.973
654.485
918.89
635.366
48.8373
50.2106
50.3174
103.547
615.593
83.1064
118.395
163.895
77.6664
104.041
126.106
79.8907
289.919
147.99
49.2512
56.8055
49.2505
87.1899
49.2997
71.4223
56.0605
51.9465
68.4649
64.7669
439.268
54.0091
70.9853
131.393
49.5678
462.521
51.4596
49.554
53.0217
51.3119
51.636
48.9431
51.6452
51.5878
54.4251
57.4619
51.3938
71.1253
89.1544
50.8263
51.5504
61.9039
52.6152
50.8836
57.327
75.005
49.6095
54.729
96.7533
65.1353
57.036
85.2931
85.538
49.7109
51.4257
134.816
52.5951
65.8984
50.0657
135.358
558.068
71.1721
49.4124
200.463
49.361
52.0125
97.5695
74.8818
49.544
68.2693
49.645
48.4431
76.2628
89.8901
84.4301
86.4303
51.2555
53.8102
83.695
51.8817
51.8989
79.1065
55.2339
63.9569
51.8399
58.6542
90.1491
69.2323
50.2448
385.586
49.3826
265.292
74.6402
109.481
107.937
50.2192
142.024
48.9183
96.5151
51.5802
943.751
296.415
52.0418
54.7458
72.288
76.7312
77.4354
76.826
67.6826
90.7179
68.3433
49.3321
97.8106
61.4164
50.6629
69.2288
64.0497
52.6063
147.865
1057.19
51.6605
285.328
862.636
93.0661
889.707
730.53
51.6573
70.442
65.8656
66.3319
610.304
94.1568
50.5225
51.9709
62.0325
63.7277
80.6348
77.2344
330.74
615.697
136.356
68.8011
78.4112
65.2317
53.6261
51.949
60.599
52.6564
87.1343
77.0042
133.34
68.0421
49.6392
72.4322
56.6474
82.7391
52.6891
58.2297
63.283
69.7148
65.8242
110.376
129.192
57.2623
87.9439
52.9839
370.505
128.237
74.8776
52.4559
142.958
126.094
52.73
50.226
53.1211
56.5154
62.2207
54.2702
112.824
66.3301
52.6903
53.4486
154.986
97.6883
48.9651
56.6633
54.4514
61.3074
50.0653
52.2416
49.3279
66.0349
56.5034
112.719
58.3178
48.759
48.6982
53.8466
73.9924
130.447
51.4152
49.5165
55.8646
52.0132
53.0761
56.4781
74.4325
67.8512
55.4115
78.0359
102.369
392.474
62.6984
69.3382
56.6462
49.8351
105.218
106.201
81.5183
53.2455
85.4127
65.0449
51.7266
116.044
50.0244
293.364
56.1781
57.2735
60.1485
105.024
48.3166
68.5163
67.4479
49.6762
48.6493
51.5985
1019.77
56.2845
155.153
49.7918
87.8938
53.7243
57.7256
77.5291
71.4735
72.4836
49.0297
354.973
51.8159
54.5114
51.7327
51.1811
49.1304
62.1614
67.1351
53.3808
51.7669
66.8718
48.9425
182.568
49.9507
60.8047
415.728
71.4795
49.7347
280.317
499.731
49.4578
636.064
680.218
65.2677
54.1705
50.7284
49.0428
89.0051
94.0095
340.871
50.4831
135.095
51.7431
91.8998
60.9151
87.7918
67.2944
287.657
129.591
50.8823
87.2643
78.0631
74.6678
123.503
127.99
50.8702
93.7488
134.391
66.9342
69.9696
115.749
56.159
50.5511
119.642
96.7303
70.1438
127.568
106.439
58.5272
76.2494
55.4532
61.1741
71.3789
52.2332
50.2202
1343.62
59.4634
62.7941
956.117
938.321
48.2942
79.9186
1509.6
177.621
90.223
177.785
120.586
670.598
54.9177
50.1488
65.4496
135.722
115.544
114.458
50.2134
122.595
62.1364
74.4811
53.7766
81.6212
55.5022
271.951
604.375
124.714
59.2318
88.3156
51.073
111.728
54.1528
65.2574
68.5522
67.3538
50.6733
189.84
79.546
49.9628
76.8399
195.217
759.539
184.815
90.7888
51.8488
75.999
48.967
805.405
68.7201
431.375
84.2263
68.5757
58.2904
69.9455
63.212
73.5611
60.4115
82.7248
50.9331
210.622
68.5996
49.6812
65.861
91.7248
952.404
58.5282
207.299
62.3667
49.6431
48.5134
150.203
73.4734
65.8631
51.4313
63.6849
60.4008
75.0347
78.6221
79.7419
60.8116
124.045
196.192
68.8516
97.0712
65.6083
116.006
85.1542
48.7637
51.4236
55.9678
66.0688
76.1838
49.6595
311.592
338.096
94.2791
65.5505
50.1018
92.3038
51.0013
139.885
52.871
184.24
86.5004
49.0005
76.5101
49.9292
57.6224
67.4337
50.2377
88.5314
50.939
50.7048
52.5079
166.413
48.3529
336.239
145.783
216.128
359.568
82.0954
79.3819
59.8568
56.9158
137.686
342.246
342.436
74.094
56.0113
72.2273
124.099
156.246
134.651
93.5537
53.293
63.8787
64.9449
118.976
58.5501
86.7834
266.821
63.6025
69.041
154.41
116.748
112.07
71.9913
589.275
358.482
218.769
246.739
82.9065
124.26
49.7629
49.504
73.4208
399.678
190.739
71.883
75.3304
48.99
310.839
361.21
48.7646
173.168
89.2195
49.1927
171.056
48.7644
49.1805
69.1452
73.1046
93.0617
50.9174
49.4058
56.2947
71.3498
69.8771
143.325
96.0386
48.3404
263.193
51.6034
48.5538
49.2707
206.61
82.1456
211.296
103.293
51.5865
52.3998
71.3017
1020.97
72.701
83.9209
82.106
67.1242
65.1785
122.419
122.91
129.203
361.354
83.0995
640.147
50.2663
69.999
52.2966
65.4572
49.5429
169.238
131.847
50.0453
371.714
106.933
66.109
175.577
68.476
52.0721
72.2952
69.9157
70.5347
99.8789
372.827
65.5909
69.1083
209.589
224.864
648.648
221.596
92.1997
185.537
51.9667
50.1233
94.4343
95.8704
86.3557
85.4333
96.6718
99.3348
51.049
60.4662
110.955
102.527
92.5332
112.543
1209.3
83.2539
58.9435
100.243
279.186
166.547
228.848
96.2245
69.1778
98.5259
95.5043
66.1556
49.7021
53.625
98.7282
321.105
111.593
68.889
94.7041
50.7837
110.524
132.544
80.3438
285.5
51.9667
69.4649
132.024
98.9173
69.4455
70.2485
106.479
98.4071
91.5461
66.1569
141.176
54.7734
52.0562
54.4347
88.1479
56.3407
148.993
53.7722
227.969
311.255
125.918
85.7711
85.4737
51.325
71.5737
116.505
460.589
165.519
518.639
51.8336
60.6753
55.0799
213.377
80.1431
294.798
241.009
236.4
71.5708
268.604
84.8781
74.5028
66.3738
55.0851
63.9586
70.8667
74.94
117.493
73.4536
55.0603
56.7789
267.663
497.281
150.029
173.262
571.736
193.075
95.6657
79.305
75.033
109.568
184.356
190.191
567.456
52.9251
57.3556
63.8769
52.1688
68.2116
103.802
90.8041
56.2136
108.656
53.0611
77.2379
51.1825
51.824
124.066
64.0408
124.544
53.9073
51.2334
163.876
50.9003
79.7552
93.1732
52.6042
63.9798
114.573
62.7881
63.344
69.3983
190.983
186.878
125.583
103.057
1774.5
945.389
334.479
409.177
110.084
57.1905
1180.26
338.146
56.587
70.5702
109.567
88.9873
319.373
139.392
54.1825
117.966
60.61
51.3185
205.722
855.177
128.802
1280.08
143.515
254.518
1238.4
55.7486
81.0112
134.263
191.897
97.976
53.7566
55.0938
731.436
52.1373
222.525
64.1153
166.661
49.6035
55.6806
355.296
357.596
87.9009
60.8087
61.526
324.483
49.7522
48.9855
239.963
402.267
74.5117
51.334
992.128
739.602
370.34
100.986
105.866
291.292
409.856
73.7649
109.566
92.6086
56.7178
88.3802
333.48
1324.07
63.0119
62.3232
59.6446
51.5644
56.0635
77.7743
138.67
64.1834
49.8628
50.145
66.3161
295.574
1282.51
53.3058
247.002
87.6626
69.1443
149.181
51.5441
86.6325
62.3084
56.9883
202.233
52.1287
453.536
48.8121
762.834
560.749
316.015
205.451
62.1927
66.4897
107.507
51.6734
203.981
1627.39
108.99
299.637
195.187
421.076
136.727
772.659
490.275
94.5698
50.8258
1756.11
77.4272
51.0994
71.872
440.511
1012.83
75.6884
55.1298
406.879
79.1989
570.442
683.309
111.683
129.984
923.98
107.987
55.9872
614.332
51.7095
937.133
998.32
50.0544
63.5561
78.4658
55.0522
128.657
91.1279
52.9171
127.573
91.2257
119.718
62.6859
51.1603
136.493
63.3816
697.607
57.72
95.3322
107.631
50.8391
725.267
82.2807
118.608
150.368
400.076
85.7578
697.581
183.601
132.934
58.7289
1396.46
222.962
228.15
79.4369
156.624
63.1073
77.0141
64.0833
300.577
329.655
94.3319
650.728
151.026
103.249
262.763
131.259
147.47
603.124
148.585
49.4232
149.113
85.7859
149.008
211.749
811.934
57.1329
54.2209
64.7085
771.756
66.3388
350.33
62.8891
65.4305
52.4764
101.333
61.2417
195.968
193.278
57.0334
68.1086
93.7578
76.7695
912.636
158.461
95.2927
696.803
284.019
122.723
143.144
67.1173
61.5534
860.412
61.6206
769.05
168.9
54.7662
63.0736
67.3888
96.7111
60.7045
73.4903
103.513
82.1943
69.0326
70.3601
75.6316
111.371
68.5924
203.486
160.669
110.684
55.0975
701.291
322.994
64.2334
442.851
343.017
53.1801
118.926
469.075
231.193
54.8783
91.515
210.225
150.727
333.4
55.1301
524.878
98.7692
52.4455
68.349
113.504
145.417
129.798
68.1692
217.829
49.3262
306.216
112.965
1029.96
147.778
65.1874
123.408
172.911
61.4487
94.4855
67.9764
93.9383
826.857
72.0411
67.7326
867.514
48.8887
78.0325
385.035
57.5593
169.589
779.056
150.45
81.4197
73.6723
903.964
201.91
322.259
165.163
81.1429
61.8114
107.492
495.021
809.006
125.076
91.458
53.6889
87.4842
86.0908
132.262
307.855
97.0577
54.9525
58.4213
57.0232
53.286
89.5277
55.2386
54.9832
125.162
96.3036
49.906
134.523
112.536
65.97
51.6588
136.072
59.8968
51.4521
52.379
107.027
97.8643
52.0781
99.782
606.367
90.0396
55.2366
52.8209
49.2888
185.478
61.9495
53.1913
551.416
818.035
286.407
51.502
550.374
161.485
51.1389
815.32
109.92
801.027
96.9836
70.1806
86.5179
72.9815
49.0079
87.4451
87.5973
94.7815
110.924
82.4235
107.541
149.415
82.3642
73.1613
391.529
88.6148
1178.9
75.7468
607.21
50.6409
122.881
189.077
51.3135
69.4882
193.938
49.0041
214.772
224.439
1139.89
58.8709
510.211
55.2288
115.23
107.721
54.772
499.154
59.1862
244.764
53.1309
634.548
630.226
78.5359
49.0604
294.756
74.1116
281.155
68.8237
98.8784
70.1344
69.8293
55.0261
53.3557
71.0418
179.626
62.0737
180.11
88.8672
75.4359
50.1579
153.196
211.041
90.0433
174.156
53.6277
65.7906
122.366
85.2464
69.9716
54.6548
157.691
128.734
49.8754
80.279
64.3938
71.3571
95.5112
158.926
191.203
75.6989
95.398
183.498
86.6793
52.5343
63.0521
50.3083
177.295
169.343
203.964
107.985
71.8221
68.2875
71.8379
53.5139
51.5441
59.4417
439.14
130.89
620.639
453.71
577.387
54.9695
62.4308
61.4864
64.9409
53.3605
278.77
71.852
49.1345
81.5042
107.935
69.5911
164.568
66.2954
159.249
83.0751
103.942
51.0154
69.9772
88.1841
94.053
64.4196
119.898
89.038
91.8443
76.3076
73.0002
77.9029
155.681
179.307
57.8452
86.1678
128.032
100.936
171.564
50.5016
51.1615
131.014
60.3707
53.6244
78.7508
50.5599
50.8673
72.7455
78.379
188.347
70.5865
85.0559
49.9098
67.6447
484.673
82.0795
87.7736
54.5057
60.3535
92.0335
88.3863
848.824
110.249
176.579
49.7813
57.7987
73.7957
49.8487
52.8425
111.725
86.5677
51.8488
48.8549
191.752
104.26
453.04
124.066
152.587
105.171
66.4
112.338
354.573
181.432
82.8402
78.1519
867.523
61.5855
80.5283
93.4405
88.5269
50.4815
911.787
65.0623
98.2059
54.6767
128.288
60.8937
914.713
954.589
66.8506
51.928
49.0974
94.5483
100.124
56.28
1119.21
685.397
60.7906
143.671
350.12
59.3358
52.3301
105.209
49.4483
58.6053
51.7654
70.8979
98.5535
87.7142
77.5182
52.8653
61.9276
71.8281
50.2326
227.998
65.9108
96.1636
129.879
339.682
224.445
106.126
135.425
65.9573
133.68
127.218
52.6319
567.541
229.306
131.822
84.7163
107.584
95.3374
93.4164
179.397
49.2449
49.5515
67.7331
71.2813
133.799
83.2805
342.217
430.684
53.6662
132.57
50.1606
50.528
80.6419
60.3464
69.9278
53.4852
49.1404
227.04
383.109
50.1559
49.0204
103.117
998.638
57.729
48.8348
59.9447
143.712
866.163
81.5758
299.817
200.16
257.897
313.348
74.5172
52.4258
49.1261
63.0993
898.418
52.8819
86.8712
82.4049
49.5707
528.529
959.565
905.947
212.838
163.428
53.8578
52.7556
55.9209
76.189
555.367
457.408
360.76
514.635
344.71
63.2041
50.3575
794.28
52.3942
853.901
97.345
847.69
83.0649
128.678
51.5503
117.025
171.176
173.148
50.8798
68.4885
93.8858
88.1221
68.4641
75.8601
70.0853
1079.16
518.193
78.3418
241.881
408.692
228.765
62.9167
50.5798
422.831
423.557
343.477
51.9762
912.165
52.0014
871.71
1274.01
480.063
167.678
54.199
60.7591
48.3839
70.7322
83.9634
143.41
60.4193
80.6776
56.9743
95.2484
72.299
49.6382
49.5039
106.954
50.5687
50.9845
82.102
55.7113
88.3242
93.6237
159.022
92.8919
50.641
59.573
109.033
68.3759
95.4547
124.403
1284.54
55.3339
426.394
64.5028
97.7852
226.642
75.0357
60.994
50.2568
65.9513
92.9064
52.4086
94.7726
101.814
82.5239
54.9441
64.7506
51.6025
66.7956
113.865
59.8055
102.1
287.616
89.1199
82.201
74.2772
113.321
87.4521
228.241
51.0315
65.8688
108.788
215.3
232.975
72.9388
110.685
894.469
248.912
189.31
92.0541
75.2266
115.862
85.9115
52.9724
138.889
79.9844
87.7693
169.357
55.955
165.788
114.91
118.855
105.782
204.822
76.8399
59.2815
50.3568
58.1163
85.3191
84.1957
465.042
59.5267
90.2312
130.519
99.3198
802.575
60.7677
50.0577
106.068
287.62
283.206
157.515
50.504
136.255
71.2044
55.306
50.2979
502.473
102.212
63.6811
297.25
52.3828
64.8748
152.427
661.312
862.765
52.3767
67.2572
801.856
49.7289
125.892
77.3734
422.107
303.137
51.5717
92.7388
664.117
93.634
64.1311
63.2188
100.563
55.8698
72.6021
379.751
53.2942
100.277
483.491
154.415
538.626
81.3786
387.114
57.5368
1034.92
108.976
108.034
519.275
101.253
184.73
384.785
314.184
304.027
49.8199
50.6627
390.428
59.9763
87.7798
361.07
60.5724
62.4947
64.9478
88.8184
72.5699
53.0885
716.169
375.412
134.385
279.693
167.614
79.8782
83.9335
68.8235
115.423
63.7282
54.2737
73.0856
61.8598
322.009
334.004
56.3412
59.1747
52.3947
71.1935
101.764
107.978
98.5748
69.3302
359.858
64.4523
64.2491
317.99
131.235
415.311
84.0618
88.5595
560.38
139.778
110.339
243.039
135.242
127.27
53.3017
868.789
49.5777
53.2828
59.8857
89.1613
72.889
103.456
123.739
103.596
152.658
81.0371
113.574
102.856
49.3758
119.196
64.367
328.96
1204.95
94.0729
319.18
90.8577
67.4162
504.774
66.6664
59.5503
60.8662
80.9925
574.149
224.058
57.8624
304.154
252.052
65.5048
1734.4
336.309
57.1812
218.698
69.0226
82.8931
228.656
378.493
148.127
680.43
61.4442
55.2188
158.389
59.9776
51.8593
108.107
280.012
408.742
48.7061
140.232
52.6802
147.851
60.9317
147.24
209.464
92.3572
255.111
65.2063
67.6713
701.736
50.2188
52.7396
125.645
55.3237
132.642
250.037
53.078
918.194
495.32
799.286
357.541
120.438
75.7439
50.1411
56.8961
88.2087
49.6383
90.8062
150.333
60.4485
79.4132
554.568
50.6218
143.01
52.1356
129.306
64.6596
689.509
123.805
84.0399
51.4797
139.98
151.424
52.075
57.553
99.8128
48.5914
205.532
78.1866
108.498
59.7941
53.0999
104.358
55.061
131.284
198.666
53.0771
61.3035
52.3386
66.8466
321.222
225.263
138.145
352.331
711.928
180.262
75.0622
602.264
356.481
496.058
68.963
164.988
198.918
280.682
212.317
819.204
61.5346
55.1462
155.881
616.248
57.5059
367.363
89.3188
371.324
76.3677
76.0022
489.267
214.01
322.637
66.9786
329.532
128.089
332.684
51.9064
216.495
60.2404
56.335
95.5308
95.7283
314.39
111.232
63.5203
164.355
62.9243
186.816
265.503
52.6587
64.4096
62.2627
830.334
72.6769
130.835
134.627
141.743
56.0819
51.9287
95.5797
67.0483
315.895
51.2179
106.564
346.027
62.6234
55.6405
65.4059
61.8475
491.788
140.142
184.709
82.2305
63.2891
1139.65
1396.6
56.0863
148.726
56.0029
51.8178
292.87
71.0097
452.397
58.1874
51.9351
96.5745
57.6556
56.4564
57.923
62.9658
139.739
159.695
160.767
153.817
72.6498
78.2995
50.806
171.497
500.672
812.352
75.8263
346.505
191.399
566.509
89.0083
371.35
110.226
87.8758
130.519
88.9137
275.623
69.92
158.953
109.702
62.5153
974.172
109.78
427.727
110.098
57.9443
109.551
58.4636
58.3635
62.2797
155.082
101.713
118.281
53.2104
118.44
292.123
134.132
73.2016
167.66
57.2929
59.3314
49.2196
77.6774
82.4114
150.003
76.7188
100.468
77.2221
68.6903
80.7822
57.7128
66.782
59.675
127.105
56.5006
104.138
57.1625
70.7949
129.951
79.8485
53.7987
81.1195
93.7976
93.6886
130.167
318.619
49.4839
74.0902
332.021
160.562
156.977
55.6292
158.47
87.2634
176.748
56.4801
53.3423
59.199
110.605
63.0369
60.909
735.899
70.1771
236.97
52.9957
50.5359
161.256
84.501
60.8313
127.685
50.7745
86.3897
60.621
272.314
49.4225
154.419
51.4408
53.1924
81.0013
68.437
133.837
106.316
49.2832
141.582
69.4642
74.5075
94.8148
668.505
58.9114
66.5334
131.641
64.4864
57.9112
129.811
56.1667
50.5964
109.061
189.034
127.812
88.0255
278.45
113.089
325.983
51.2315
183.702
70.0737
92.5381
59.7526
57.5344
58
61.438
85.6469
166.103
65.5105
491.759
79.1101
51.235
437.979
133.25
1745.69
298.996
60.89
85.1225
107.054
123.732
415.056
69.9728
342.395
93.4156
372.483
68.275
266.832
67.079
237.225
213.833
130.386
330.282
423.572
723.269
1238.23
461.616
725.17
197.641
345.845
376.293
49.6312
100.466
284.752
74.6931
498.837
62.046
386.726
552.749
127.848
104.093
77.1365
49.0595
112.102
50.4007
258.556
134.623
86.2159
179.427
80.5452
157.404
63.3957
57.3225
116.562
56.701
221.501
50.3862
73.6545
674.9
60.3461
52.7823
81.0706
58.0207
421.201
175.763
65.0458
55.8854
183.873
50.5753
67.4183
56.5759
59.7222
98.4415
78.9934
54.948
59.3326
311.519
72.4268
65.3626
55.127
52.6679
51.3252
62.7124
74.3025
98.4112
51.262
73.0007
94.0781
58.0999
218.033
78.1909
57.2145
65.9438
84.1249
144.416
112.056
99.5139
53.3027
121.422
86.1197
58.9032
62.0844
81.0267
75.6825
98.2766
75.9081
133.857
71.7269
75.8931
120.08
163.915
637.673
1024.8
132.315
58.1755
276.954
172.09
88.2266
53.7617
50.6683
53.3964
73.4086
76.027
49.5287
51.3385
53.6464
112.886
52.8444
51.1715
49.6329
58.2265
147.094
59.5753
119.755
55.425
86.0842
279.904
56.152
53.7557
63.9038
946.749
1053.31
101.799
73.5409
59.9955
60.3525
70.4201
397.53
70.8495
66.9871
93.2633
53.6411
89.946
59.1939
64.9049
114.872
82.5931
68.4343
206.526
176.49
70.3455
1824.47
162.248
203.471
63.8025
82.7792
100.107
118.861
52.1007
73.9227
315.492
51.0975
205.094
524.105
111.787
128.215
482.86
74.0459
74.4306
95.0634
49.6991
125.465
332.555
96.282
90.6071
198.056
190.673
988.598
583.957
93.9395
53.4803
143.087
65.6159
177.13
145.861
494.289
50.3279
50.261
533.035
55.4142
208.754
75.7548
106.89
593.752
716.975
53.1891
49.7954
764.982
53.2482
52.6375
61.437
50.3551
86.2343
62.8601
223.866
57.2346
555.407
108.647
53.1319
79.6821
666.243
83.8839
576.816
65.8374
61.1681
85.1356
88.8231
61.0714
73.7726
59.0481
502.233
108.292
109.834
391.004
120.291
53.8457
514.306
88.2583
113.176
75.4802
62.7403
110.516
68.6945
51.7782
251.925
72.1777
72.3862
59.0285
98.743
64.0908
63.5731
56.158
58.4242
158.749
63.6293
56.9449
82.5329
347.415
69.2068
65.1078
61.8482
97.673
49.0942
69.2022
55.6352
134.564
64.7082
144.634
151.45
81.4314
393.198
59.9216
60.462
294.425
320.408
574.728
87.2705
292.584
60.6391
425.045
97.0141
195.716
97.5999
52.2833
108.21
212.537
96.812
58.7707
52.4913
53.4703
467.655
53.7396
54.2974
60.0126
2127.09
388.013
51.6663
1430.89
374.092
315.355
151.927
1375.67
349.678
60.7398
276.192
93.7805
52.1544
271.187
878.149
68.3598
51.6378
52.2722
515.596
56.653
862.574
50.9418
131.149
61.4239
130.076
323.524
52.225
118.733
119.29
54.2731
106.782
50.5527
128.529
1649.83
1716.33
575.99
96.8693
345.76
49.9942
51.7078
56.5147
99.585
50.5977
61.3719
49.8668
78.1029
92.3597
51.9344
53.8787
77.7404
52.6177
93.5263
118.537
49.9947
113.941
132.669
54.7894
61.3507
813.95
60.2082
763.265
581.629
133.539
136.837
74.6019
120.549
59.3631
58.8947
293.401
56.6844
66.0819
55.1274
60.0381
73.5674
133.782
92.9441
185.946
114.058
54.2528
478.52
65.8431
271.999
211.302
67.741
870.558
67.321
63.5129
60.6198
63.5068
76.7488
56.1767
110.937
53.4528
323.014
206.49
386.256
56.5157
59.0757
84.9364
363.599
225.187
76.8949
146.845
69.2912
286.775
68.433
56.4125
289.189
87.8519
55.5313
93.0484
1141.97
56.3326
61.9459
123.616
52.6456
134.173
138.574
51.9607
75.8842
183.745
172.911
749.292
67.8695
273.479
240.299
196.628
57.7653
187.202
99.26
106.653
55.6503
54.1831
55.87
454.089
74.7034
106.026
109.621
70.3536
58.0162
92.6641
49.7569
146.588
49.8589
65.7157
169.356
107.636
74.0105
170.604
100.059
83.5042
76.0175
128.345
49.7401
159.324
363.895
111.536
61.1284
50.7764
141.43
54.9833
50.6703
86.3704
50.2065
109.875
90.791
49.4037
52.391
104.877
147.115
171.065
49.7635
729.414
49.8425
99.7828
84.2083
50.8498
695.157
151.847
631.896
51.1964
66.7964
527.652
672.237
93.6451
98.4759
185.68
129.92
57.7042
66.7236
65.6607
150.283
83.0396
136.12
51.8515
137.296
102.045
112.563
52.6121
91.3489
49.755
62.656
451.816
168.461
88.4208
54.0365
108.791
88.4188
86.7592
144.949
51.369
53.9891
65.671
89.2768
87.2169
66.7386
116.125
60.218
56.462
53.9778
65.0863
62.6607
55.6253
121.33
72.7379
64.7551
1785.62
77.5672
63.5725
79.6393
50.5767
87.831
206.176
54.5722
84.1846
80.8996
967.152
66.2451
61.1777
95.931
1387.69
96.8127
154.896
126.288
71.9997
49.5833
69.8387
68.4108
767.241
102.098
71.645
65.0448
51.4374
208.22
53.0938
741.1
195.186
113.49
78.3181
63.6859
110.176
94.9625
64.339
375.125
118.993
336.529
53.1262
140.556
595.521
120.028
55.471
104.286
56.825
622.475
65.8566
56.9614
89.3405
49.3753
58.1331
83.9093
51.6328
144.208
50.8022
256.96
49.9998
80.5139
61.9287
153.307
89.6165
130.224
86.6238
520.503
101.149
122.141
76.9924
52.3704
104.174
60.877
56.5236
72.1635
69.3342
60.3598
124.949
50.2303
61.1167
50.7774
243.067
87.5643
412.057
522.108
212.578
161.214
68.323
70.9038
55.936
192.521
91.2405
54.2929
52.3411
111.915
81.1995
52.3035
78.8402
1006.25
89.5501
64.2334
68.3519
425.895
810.929
62.9851
501.391
554.255
211.574
247.878
168.916
401.991
73.4783
224.898
705.564
71.3207
51.6966
57.4003
99.892
318.579
53.8767
50.9996
71.3807
152.955
157.504
934.046
114.336
908.478
117.728
58.6809
87.942
67.3137
61.151
664.63
56.3842
214.049
455.339
58.2238
576.723
2122.38
57.3864
98.5256
86.6123
431.433
155.339
122.96
681.038
996.219
99.292
481.355
131.196
294.897
82.6339
53.1875
154.783
596.608
594.257
64.0779
111.647
142.907
99.6219
222.296
54.6311
62.9843
837.971
236.628
420.387
49.2529
310.446
64.5674
391.245
64.7617
102.258
187.892
342.631
85.5635
108.442
364.022
98.3474
452.116
84.4299
67.525
268.338
52.6627
158.841
52.3637
52.6031
50.4644
80.5922
377.049
439.07
256.136
64.0233
69.0502
232.659
62.1714
422.422
72.9954
58.0329
78.8845
150.509
154.54
538.671
51.7322
75.5298
70.1252
315.963
110.419
576.768
818.03
408.284
106.61
67.3615
348.754
388.108
146.587
57.5584
64.7888
49.2394
721.631
217.218
322.579
1872.96
241.862
94.3538
87.2064
684.876
398.427
70.9389
91.8521
107.592
405.646
58.7179
50.2958
92.2303
70.0813
563.792
319.938
231.956
91.8511
211.044
412.913
175.869
96.4622
737.457
243.385
651.241
207.534
251.127
544.435
157.776
62.0374
101.157
62.5207
53.3309
71.8403
65.7579
149.846
182.309
85.2133
179.483
182.04
145.277
59.1561
191.478
101.234
64.3633
129.726
614.626
1041.66
508.333
69.7817
114.259
71.1413
159.49
446.46
153.406
390.737
73.4497
398.577
302.776
188.16
53.0242
50.9133
68.7378
66.434
580.486
89.5043
57.8554
254.636
69.7708
770.61
365.207
101.331
381.958
62.548
50.2637
49.581
50.1971
102.327
69.7188
93.4819
134.275
72.1996
50.4322
171.205
582.529
474.471
50.7174
106.014
58.759
69.1281
59.0406
589.635
55.9727
55.9072
54.6717
95.1132
52.5936
53.3861
92.6554
55.8234
58.452
58.5481
231.8
50.8523
64.6273
107.202
390.067
366.914
66.3111
576.023
519.03
58.3704
59.0843
161.685
62.9776
175.519
84.3752
90.0454
79.8242
170.937
73.3206
93.1452
930.465
357.858
103.63
548.323
52.6737
51.6776
65.9691
51.0008
49.8581
72.3367
54.8655
71.2605
188.132
74.4819
413.377
75.2156
445.173
76.1473
48.9834
626.264
119.003
83.9335
519.089
100.765
600.077
73.8753
362.266
50.1162
169.652
90.8724
231.642
51.337
86.0937
76.6474
417.121
51.0722
49.5733
57.3963
82.4755
119.025
60.1483
60.6108
93.2451
52.3856
124.317
52.9461
63.5466
144.29
89.0741
156.806
62.28
52.9602
57.8742
50.2339
58.2072
93.1338
49.2267
86.553
49.9702
236.658
120.354
57.2349
113.022
111.161
62.4231
83.3426
62.6819
129.434
159.219
55.9099
51.7345
89.7513
76.0842
350.99
481.327
465.702
65.6135
55.3254
55.1173
61.5221
81.3474
787.311
240.833
65.749
58.9722
64.4774
52.9018
50.2641
74.2788
136.177
166.234
438.171
205.575
61.7704
77.021
79.6694
49.1153
263.91
74.6251
65.673
117.243
56.4141
899.806
75.888
54.1205
68.0015
70.7732
151.186
470.823
50.446
410.054
61.0977
703.496
107.412
499.238
70.6404
53.0015
59.3852
106.894
58.3425
51.1951
118.334
48.4282
50.4027
54.1909
65.1616
198.601
64.5256
722.707
77.4719
57.414
132.001
172.562
50.1395
371.291
880.942
733.348
521.843
387.874
53.2966
398.433
366.386
81.858
62.381
59.3046
652.207
94.238
98.318
49.1912
73.0084
226.988
619.604
154.733
81.8697
48.868
69.8753
248.043
52.6528
56.7542
496.294
401.647
230.271
674.379
74.9017
48.6081
69.6249
77.0504
1051.84
50.229
50.7099
49.694
299.504
50.0993
58.871
98.975
99.8828
50.1956
97.8784
53.0603
145.487
69.3514
136.526
61.8982
197.799
92.6806
116.855
168.728
115.392
186.045
58.6816
620.86
92.7858
305.943
306.324
298.439
83.2772
77.329
191.414
75.5533
48.6089
54.5091
50.6659
89.8686
566.79
120.542
50.7438
84.8011
62.0112
49.4016
118.608
58.8907
138.133
97.519
55.1046
103.411
58.0604
70.9261
193.931
451.83
65.2617
101.585
81.7105
107.881
504.938
185.956
444.606
775.934
141.138
55.4195
56.3875
50.0319
109.329
775.378
82.8208
763.594
127.318
53.6851
120.344
381.999
54.9911
54.7452
59.2297
73.7046
52.7927
217.059
63.1285
85.7126
195.2
49.9609
101.514
55.7234
127.346
55.8193
59.49
573.726
75.4902
118.81
59.4718
62.3517
50.2587
103.596
123.669
98.8751
93.661
71.9404
62.3692
68.8182
58.9283
233.354
58.5433
58.9307
119.012
211.063
236.345
53.312
91.7114
114.366
169.088
70.0171
184.898
55.2485
133.631
96.1622
58.3952
148.226
84.749
53.8726
197.336
88.401
52.802
53.781
173.412
92.2168
100.749
56.4164
117.299
85.7402
51.5691
96.1445
336.464
72.3031
68.5758
87.454
579.01
69.7153
82.6967
157.25
62.5318
155.744
56.3536
646.37
85.9734
77.9335
85.2749
56.3993
116.557
55.9635
404.584
49.6078
72.4678
559.201
60.046
113.809
204.611
92.268
53.6034
447.767
54.0389
50.71
91.0383
127.71
57.3881
286.827
50.3274
385.171
109.036
50.2166
80.889
121.35
645.339
182.402
74.1726
52.0655
127.1
327.468
487.234
117.769
127.296
923.934
203.36
153.044
132.51
84.6114
105.156
62.7958
523.458
900.995
154.729
175.476
102.43
856.452
453.367
447.037
355.954
168.729
61.0063
57.0891
153.267
75.449
505.998
341.052
71.8991
643.131
111.029
52.9258
60.7797
56.2112
109.958
88.3432
92.5737
79.9606
143.6
185.256
821.778
58.9371
120.78
634.162
568.732
182.731
187.541
68.4651
687.843
49.1381
65.8883
366.165
148.916
52.3991
286.169
381.712
64.9068
118.48
56.0947
104.233
55.0741
82.166
179.389
88.9131
530.391
49.3306
58.132
90.3623
454.923
179.058
124.878
168.401
171.638
123.878
67.0575
361.064
108.959
72.6825
195.86
767.59
263.424
57.5096
302.624
160.832
87.5989
68.4301
125.469
52.5732
82.9045
82.8387
79.6274
72.7211
64.8871
85.348
51.2857
50.0605
49.7161
104.41
55.0692
162.083
431.545
650.611
88.4913
76.1973
55.1917
56.5883
105.559
581.758
58.4087
147.265
73.7233
159.753
57.7572
82.7309
58.58
307.953
50.2596
55.5065
233.724
55.0652
69.1922
80.5853
57.8773
337.897
79.5253
487.396
333.82
252.5
559.188
174.608
362.521
70.9447
92.8533
146.172
61.1095
340.351
85.587
86.0258
137.72
72.787
68.9529
52.8878
59.604
54.3476
50.5175
87.3105
288.836
50.1285
807.269
115.422
297.833
123.277
282.884
1773.29
58.7105
268.871
1335.64
84.1156
326.677
80.5861
71.7247
682.388
923.67
252.586
159.901
61.3373
263.137
99.6514
468.946
55.2508
60.5073
211.001
955.788
61.2586
75.1218
57.0094
137.278
370.543
56.3482
476.88
277.34
539.688
664.9
58.4581
211.624
63.0504
476.498
392.049
256.356
253.878
111.345
373.849
188.89
244.768
68.1255
67.0046
62.5809
61.1026
58.6691
1324
67.9594
97.6714
70.9145
67.1179
80.9433
876.788
86.4579
235.506
300.165
86.6474
140.95
134.026
48.8602
63.0217
866.884
482.001
244.655
193.085
154.944
73.4367
398.111
57.3588
153.497
168.588
58.8961
412.919
113.167
170.544
360.776
84.3468
111.157
113.958
86.3015
56.9198
141.667
68.2068
390.162
63.4036
167.365
72.3564
217.133
63.4549
69.2312
371.528
127.134
246.958
50.5825
1651.23
52.1944
56.6646
52.9502
61.6588
72.4585
460.257
97.9662
53.4427
589.331
76.3589
53.6321
66.992
728.813
49.929
86.9673
802.633
129.774
750.003
360.765
96.7379
113.146
176.704
183.268
667.03
73.4535
259.245
84.2358
61.6172
180.375
70.0177
87.7603
59.709
482.007
382.342
400.469
228.805
142.879
151.305
55.3818
122.049
96.2461
55.2532