/*--------------------------------*- C++ -*----------------------------------*\
| =========                 |                                                 |
| \\      /  F ield         | OpenFOAM: The Open Source CFD Toolbox           |
|  \\    /   O peration     | Version:  2506                                  |
|   \\  /    A nd           | Website:  www.openfoam.com                      |
|    \\/     M anipulation  |                                                 |
\*---------------------------------------------------------------------------*/
FoamFile
{
    version     2.0;
    format      ascii;
    arch        "LSB;label=32;scalar=64";
    class       volScalarField;
    location    "0.01535";
    object      p;
}
// * * * * * * * * * * * * * * * * * * * * * * * * * * * * * * * * * * * * * //

dimensions      [0 2 -2 0 0 0 0];

internalField   nonuniform List<scalar> 
47425
(
4.78407
5.97706
0.392431
7.36819
-4.12344
0.856106
-2.88944
0.424137
25.0615
-12.4288
-0.0107682
22.5817
-0.0792936
0.0691105
5.79168
21.7534
0.905625
34.8339
-87.5411
-15.5953
13.6989
23.1882
0.301362
3.72519
23.0815
3.37518
0.569605
-24.0896
0.801255
0.313018
23.1308
20.5522
23.3867
1.14852
0.362102
0.42618
24.4818
24.3878
13.6429
4.8356
5.25542
5.4187
6.19229
25.1768
-17.6987
4.7201
0.593244
23.2418
3.09349
0.966916
58.7138
6.65341
0.25696
-13.1828
3.69104
14.7338
6.47017
0.201517
-6.9737
0.0535844
-15.6477
-15.1917
-43.1242
28.2285
23.7422
10.4234
21.5766
5.21177
-27.0762
30.4345
10.4034
2.53579
8.67745
15.7933
-32.6083
25.5227
-42.8243
1.42157
-89.3987
-4.95857
-37.6772
16.7431
29.4764
20.9096
4.82042
5.39646
7.72062
3.65008
4.90808
-9.4617
23.1332
9.50075
1.2614
5.9508
7.0632
5.2425
1.17383
6.48405
5.28491
21.3661
21.4325
34.6288
16.3024
54.8181
16.521
6.70253
5.19187
5.04361
3.66217
21.7963
-31.1112
21.1056
6.41754
6.64752
6.6211
46.2389
6.91004
60.9786
16.1385
5.36804
6.32077
23.8271
22.7216
3.63512
19.9242
6.53357
3.50425
24.1827
0.154702
2.46306
28.2483
5.81437
65.4876
15.0565
5.26696
3.27173
9.12889
6.47969
19.7088
6.75499
21.8446
-0.392663
12.6586
6.47645
17.8456
24.2498
-2.58879
22.1897
13.3655
23.6021
6.6554
53.5955
23.502
10.1866
29.5316
3.80498
14.8574
-96.5745
5.37663
0.138069
6.25135
2.98129
3.10212
17.8739
-28.0394
-63.8142
23.0251
-34.1459
3.65105
-27.107
-35.0519
4.18323
21.683
26.6923
4.12187
20.9659
44.9596
0.118122
0.573315
1.29604
39.2615
3.30783
0.848387
1.02473
0.796471
21.8444
16.769
60.0592
1.196
5.10362
22.7266
1.26334
-0.288579
23.1672
1.7533
6.63629
22.5186
3.37884
6.29575
5.85328
1.01845
7.74388
4.83902
6.82124
17.606
8.67173
0.0367108
7.16074
20.3568
23.4805
4.31028
6.87137
21.1725
2.888
7.73331
5.3192
7.93355
-3.57487
29.3395
23.2596
-6.78608
5.02071
6.97602
9.05169
10.0615
-5.33663
0.625437
5.33802
5.21271
1.63142
9.57903
2.26856
7.07954
24.7009
0.387868
20.2805
-8.43528
1.92213
-6.77007
-0.101431
1.35138
1.01622
0.986227
2.13473
15.2386
25.421
4.98426
25.2427
2.33806
0.744949
4.11712
-3.65166
0.344341
24.1655
-0.295723
0.56711
22.7678
-0.127476
13.6942
23.076
1.59186
24.9505
16.8813
17.7548
2.14786
6.22807
0.800001
2.32179
0.349173
17.5305
18.4212
-6.50411
-8.03457
18.7835
-4.8763
18.45
-5.46368
38.5303
-6.57802
45.1947
-12.1431
5.20959
-15.9937
4.4407
1.14487
6.41749
0.726056
0.165329
6.35234
6.44905
67.3897
27.3511
23.7594
0.0584655
0.127277
14.6856
2.54981
16.971
21.3235
1.74888
5.51065
3.56499
1.43456
0.705627
-67.5465
-79.185
49.3542
1.28715
2.84073
19.0563
20.6402
61.4128
-0.380343
0.221112
0.194095
6.40829
2.59245
3.65455
1.1806
-29.7749
0.130396
20.4152
19.7581
-1.10851
5.65898
-0.324289
18.4058
4.40148
1.6569
0.428436
4.4316
-58.4054
17.0857
0.260094
23.635
-0.973437
-58.6662
21.6902
2.39798
3.20327
18.4175
18.6328
3.9194
22.0945
1.69647
-0.251162
1.24972
24.3094
-0.613501
1.65592
19.969
15.3238
20.9822
20.8062
19.5956
4.88727
0.836479
27.6973
18.2369
23.245
19.7407
4.96277
0.69809
-0.0101466
15.5245
6.30811
0.64111
23.0563
21.8394
17.4844
1.16271
-9.90386
7.36215
18.2999
25.4332
18.4231
5.05364
21.7432
24.0569
23.9982
22.3752
18.2632
2.552
23.8597
3.57487
23.795
0.309303
17.5172
21.3964
0.678831
14.7893
15.8101
0.226924
14.0248
3.69843
15.1748
21.0989
0.835404
-2.98925
0.83595
-10.2633
1.23947
-12.6709
0.625619
10.7646
1.25493
0.840424
1.41648
0.0297306
-1.33814
16.0685
-88.6817
69.8164
3.26692
15.7942
14.5649
13.3215
2.87222
0.636277
1.29421
0.99043
2.99352
5.77339
12.4817
0.408049
-0.374665
4.27722
6.64006
7.80018
29.1241
-74.0135
6.45689
39.0739
-67.6661
5.78684
-76.7291
-13.5166
3.28603
10.5139
11.5535
8.59125
-78.4941
4.27407
3.14004
1.35573
8.31296
10.2694
4.67557
4.87357
-5.31822
-70.6943
-7.32334
23.4136
32.096
5.45192
3.66781
9.13995
1.39513
9.19915
23.0175
23.5047
23.9992
14.3366
24.3416
2.94137
19.6592
0.511927
7.79422
2.93892
2.48651
22.4327
22.401
23.0645
15.3055
20.8315
4.78311
8.3978
-4.92066
22.792
-0.580437
21.9351
6.55145
4.84863
21.6125
3.17
19.8538
22.3959
22.7548
18.6511
1.8008
6.61604
20.5188
5.2026
19.5098
35.9015
2.50725
21.7972
22.1602
24.0039
4.07862
1.56377
3.35704
0.578722
8.88294
0.448577
0.525589
2.20393
3.80344
7.73223
0.65152
0.512368
33.4067
-0.779328
4.52703
4.18228
3.42239
1.36017
0.586407
20.4979
17.4108
23.7321
24.2938
58.8098
1.1526
-0.351597
21.1803
24.6618
-9.06268
-12.2966
2.08567
3.84492
4.62368
2.83909
21.1599
-13.4435
24.1843
-66.8528
36.8395
23.9126
-0.058654
-8.11147
1.07831
5.03763
0.718038
4.66024
0.239412
2.72935
-65.5833
0.83449
0.923857
0.41705
-8.91865
1.95148
-0.217745
-8.51992
-4.51354
1.52246
0.883583
-49.344
1.11029
6.3636
0.135232
2.07835
1.58861
-1.43702
2.58933
26.1719
4.27771
2.55224
0.271069
-14.573
28.14
2.43892
-50.3708
0.813412
0.62708
-52.0946
-22.8653
22.1264
-49.6257
-49.9398
0.442449
23.1433
-0.0667582
24.8107
21.8784
0.107509
-26.789
19.8821
0.456603
1.91019
-6.77649
-1.09505
22.5648
15.5035
-43.2176
-1.74438
10.9979
2.70093
5.65179
16.5116
2.04215
3.51654
20.6002
15.9829
23.9041
5.60057
22.0582
-9.41811
15.5715
12.7079
-11.5343
16.8235
2.37895
13.4925
19.0264
1.5332
23.4981
5.93712
39.9461
20.0506
7.07375
5.35886
-107.223
14.2568
2.26615
-23.1146
-25.7318
0.606174
6.24814
-26.1681
0.0182868
16.7209
0.099727
24.3192
-21.6151
0.776288
-0.734846
21.607
-13.0909
25.4747
24.8372
1.68712
0.38434
3.55034
-0.0673967
2.5556
4.23299
6.76685
-7.9244
-38.7416
10.5013
19.1514
0.965129
25.7003
20.9303
22.9451
22.5032
23.7827
22.7314
30.084
8.07076
23.0806
16.5215
-5.11873
0.135428
-68.0416
-10.9636
-0.667576
26.7974
12.2364
-0.171386
-80.8547
0.31641
-32.3421
2.34407
1.45762
0.717316
2.79428
24.1423
17.1206
37.9407
0.538198
2.02529
6.6847
-0.456494
25.5418
-1.36411
7.0341
-75.7802
1.79102
6.69812
0.215817
23.5494
3.83385
13.5622
6.7411
-0.88829
23.3934
18.9728
-0.348963
0.68889
6.82855
0.185225
1.96792
44.213
43.7721
20.6628
30.982
0.0141602
-0.284966
13.7423
5.76478
5.17102
0.1835
3.86875
0.797588
3.91493
47.6808
4.18414
0.380357
22.0944
2.64289
2.6948
4.9591
0.0966095
6.29419
-6.32867
3.97419
0.918584
0.16176
2.80819
23.5257
0.637218
6.9871
2.71664
2.04578
2.15409
28.9199
51.3936
3.89482
-52.3304
5.07855
-14.5602
-50.8928
6.72154
6.73003
18.8214
6.20859
57.1919
-53.144
70.5608
1.82952
8.23576
-0.826564
1.04521
68.7234
15.818
6.92639
2.02612
1.81977
2.45973
5.97745
3.7095
3.53797
-51.0967
38.7793
22.3192
23.9116
58.3698
54.7163
3.62515
-25.0459
-0.439322
61.8886
59.6364
23.4818
2.51697
25.6458
1.37751
13.9011
-49.1797
14.9922
12.5433
14.9258
1.04082
-51.5095
-51.7032
0.00429782
12.5688
2.87479
1.56918
13.9587
1.27649
24.611
-0.692416
2.86523
45.3601
0.553118
-1.61224
-0.511402
1.38786
0.703452
64.6951
-6.97344
0.421378
17.5529
2.5701
23.5026
23.6609
0.877122
1.2611
-65.4383
-0.193773
13.7922
11.1341
38.3294
-57.6932
1.49137
0.23414
-5.7871
4.50668
22.5278
8.78805
0.200539
24.1083
-67.1402
-5.35682
-53.4351
23.7971
39.5997
0.677394
0.870202
25.0127
0.286864
0.153769
26.7109
-66.9526
-9.19711
-0.566317
-58.8731
0.011365
5.82285
0.280365
-0.276785
0.558088
-0.625419
-56.6414
-0.025874
-2.17903
4.29258
4.3093
-26.349
2.51248
5.37748
20.0161
23.6717
19.9925
-7.57469
5.23516
5.24937
-4.34027
57.6986
7.87321
24.5581
3.97817
5.05661
4.64269
4.2429
0.125125
-100.121
1.08767
6.78613
-1.77108
2.37408
0.00713387
1.31321
4.47951
24.8685
25.6719
4.41272
4.80611
24.0081
29.8848
25.4365
-52.2578
-0.0696405
5.69234
3.76742
1.53244
4.77164
44.2199
23.1418
3.5922
0.822376
18.4107
23.7287
22.9239
22.006
20.5564
24.6241
-12.863
1.17269
29.323
31.1077
24.5816
15.6667
6.12222
48.383
6.65839
2.51665
6.50649
0.365408
-33.8749
5.15006
5.76657
24.4811
24.3033
23.9108
4.6246
-49.7163
-9.12377
-13.6968
17.7726
2.16524
17.0136
-36.0699
5.42259
-35.6574
5.92376
7.27213
2.93576
2.80502
4.29976
21.1087
1.15223
10.8016
2.18199
2.87734
12.5441
-5.55857
-5.33265
5.87452
23.7765
65.6313
-75.9218
48.3416
-8.88621
-32.0365
0.595331
3.88044
28.4959
2.60998
62.4564
2.89055
1.62854
-65.6298
20.838
9.77224
0.502249
25.5388
35.8033
22.4603
2.57181
19.2518
-2.41742
17.7845
22.304
21.4275
22.9648
2.45281
2.14783
1.60584
37.8054
20.9679
4.03531
16.2482
2.49144
2.24471
14.8224
1.513
-16.6113
2.54455
4.63054
22.7112
-9.7366
3.79146
1.68423
1.98123
-95.3852
-40.5965
-1.26036
-47.7044
7.31545
4.94247
-17.8861
-48.9833
5.17617
15.3318
3.14468
6.39167
-11.7576
12.195
6.6212
3.69863
21.7558
8.52017
47.9685
-82.2365
0.522594
-10.3848
3.06527
66.479
-97.3002
4.36939
20.141
9.59329
-20.3886
19.7944
4.82081
24.9354
-7.07243
6.24798
-7.14982
9.16335
4.01947
6.07263
15.5562
-2.16953
-2.88244
20.735
25.3684
1.77726
-26.3088
17.1458
5.16171
1.33145
-10.7286
21.6942
15.9809
-42.1359
-58.5304
-13.9605
18.0054
5.63714
1.38943
-18.9741
18.6154
26.6938
-9.72245
3.48855
4.05327
-1.21764
-14.6539
9.93273
22.3895
22.4591
23.7833
19.5866
17.0368
-10.1258
22.2541
23.9582
21.7707
5.28178
-59.9773
-14.7446
20.6133
47.7014
-2.93449
20.9512
-34.1598
13.4808
17.3219
3.32821
4.39596
22.0952
16.7018
-27.7808
21.3086
-17.6034
-80.4255
-18.9782
19.2433
2.86281
20.0426
4.1078
3.32006
-2.05512
-16.8104
5.5321
-63.214
-23.9719
71.5027
-8.34587
-70.6177
-9.92956
-0.276092
4.82879
-19.9898
5.11681
26.1547
-0.823072
-31.8208
-16.9198
-0.179589
11.1299
-18.9991
-12.1253
-19.9803
60.0458
2.37201
-7.74044
-88.0045
4.58101
30.2586
-3.03681
24.8686
-95.4498
-15.7444
19.1403
1.12756
2.16547
8.71278
3.38702
9.64775
8.39002
4.56153
15.3349
48.9259
19.9394
33.5607
-18.5616
5.10279
28.063
5.97081
6.35396
2.45076
22.2837
-45.944
3.60369
5.21262
3.3866
-7.8235
4.26711
-72.8906
3.35814
23.2055
9.9334
-107.504
64.8553
-55.2156
-4.83261
50.3896
11.334
23.7359
2.55423
-12.0444
-77.0808
-8.34584
61.7458
24.2396
-0.396948
-41.5498
1.88361
8.8057
-18.9626
-4.17052
5.85822
0.385649
22.4101
24.276
-26.256
-28.7144
6.90267
16.3286
22.7623
-95.4163
22.2422
-21.9206
-2.19444
20.8247
23.9756
-4.14185
7.42431
63.1923
-0.757163
14.476
42.7103
41.3654
17.9439
-64.4788
-11.3808
-0.23769
-98.3559
74.676
24.5406
-20.9975
24.0878
33.9148
-70.8706
12.0646
-102.192
-13.495
6.1561
31.419
4.455
23.8992
22.5026
27.2486
-7.37871
0.618369
0.21621
37.2275
1.32807
5.11648
28.0197
2.66526
7.66164
-2.50213
23.2405
-40.8652
-12.5844
11.0762
-11.9214
-61.737
0.572807
57.1076
-45.2198
5.42809
38.4112
2.32459
2.83487
-6.71199
-7.96728
15.1318
-26.1634
-4.45019
14.0918
13.567
2.16537
-7.1054
2.54088
36.1452
-38.2
5.33947
24.2329
2.57894
-35.1714
-0.127048
1.31198
1.97465
-5.45005
33.4072
7.64968
1.26823
1.78508
-88.0312
0.286865
1.83669
-37.4901
3.16154
2.71868
68.5503
5.89576
-3.7615
-41.6309
0.999609
10.0968
0.25303
-114.407
-57.211
-8.29866
-51.9031
34.2453
9.14661
-2.77297
-25.4619
-49.1484
3.76019
1.11149
22.9437
4.57713
3.28714
11.1364
62.517
24.3251
22.1768
5.06697
1.61663
22.1128
23.3923
32.0865
22.4005
3.24766
23.1761
21.4005
20.2688
0.445756
4.96935
19.6244
18.6588
3.22863
23.6627
1.51143
2.88625
20.4053
22.7521
23.7508
-72.8016
21.3672
29.5939
4.97789
-0.166279
-15.7485
22.2867
21.9411
-67.8888
-33.6417
68.5083
24.3639
-71.5211
24.4113
4.53814
-65.6694
9.43919
-71.0645
2.62882
1.1388
22.0742
32.585
18.6322
5.96346
3.95251
5.75599
17.8554
15.5034
3.64103
-2.2467
4.46836
0.790638
71.451
22.8773
-28.2665
-5.00212
-48.5909
2.68072
20.9311
-0.711302
22.5972
5.05415
23.6641
2.50872
-13.0203
-6.60101
-20.9217
5.93267
3.26973
3.12134
11.209
-9.82672
4.5539
-31.0874
5.93993
-26.0857
3.18167
-35.8816
-63.6099
6.96579
-0.424588
-23.6986
1.20948
-23.3026
20.9944
7.27058
3.7233
6.14419
9.07282
6.4923
1.49558
-7.88699
3.71233
22.1704
5.53313
21.5828
3.03092
21.4182
-20.6683
19.4336
-9.22959
6.37138
3.91082
18.353
2.88789
18.4264
17.438
3.35539
5.43596
24.5459
5.25765
5.60271
5.71231
5.96966
-4.59157
-19.5468
1.18954
4.59101
-22.4748
5.75999
1.43382
1.19566
1.44184
2.70073
4.51934
25.0531
22.2264
3.97752
2.62773
52.7817
5.27421
3.00503
4.70705
-28.4568
7.17935
-31.8464
-19.3435
-25.1249
20.8413
0.776205
7.13839
0.447156
2.59365
-23.4671
3.61847
2.75046
3.25654
7.03837
7.71273
-56.4664
7.61089
0.355871
-1.04825
2.57017
1.74887
0.791314
0.378731
0.375143
1.42698
1.98948
3.34101
-0.0103652
0.132163
20.5946
5.64616
4.89296
5.90587
2.0761
5.5983
2.98599
6.19065
1.55742
4.28185
2.47122
3.70676
-0.226914
4.45135
3.32816
1.42455
3.8498
4.39702
-0.40357
-47.5538
2.78483
-4.3405
6.03516
-1.93008
-45.1722
-0.0283958
7.09434
0.252938
2.22035
3.40197
5.73604
64.8846
7.3837
-3.26453
3.29341
0.479798
5.40587
2.28989
1.25009
5.74664
1.99579
2.71251
-0.402579
2.74322
-1.6087
-22.6196
19.4596
1.21103
2.85828
2.76489
5.15457
-1.40861
0.437662
0.615245
0.574744
-38.4937
0.039232
5.49958
1.37084
0.956299
5.19814
-119.629
-0.295161
4.38638
21.7201
0.29288
1.68413
29.0679
38.6118
-0.285612
15.0557
0.511157
5.13027
1.41541
-0.056772
-37.133
-31.9497
-0.100549
2.78453
-20.4211
-0.393255
5.96343
-7.63022
0.308708
3.0133
12.4469
-1.03651
3.22117
-0.547471
6.67695
27.159
5.6568
-0.271754
23.2843
-5.81968
22.9532
-7.52416
-11.5771
-47.5572
-6.78767
2.84791
23.3183
-1.4056
23.6083
6.83578
24.0866
-15.9056
-8.14777
24.3435
0.324764
23.5862
2.21132
4.20158
-54.6738
2.84659
2.63777
22.3105
22.7961
51.3616
54.6207
73.7133
-48.7253
36.1498
23.7364
22.875
31.094
23.6668
1.27141
0.127173
1.74277
-0.906541
-55.4949
-55.7944
1.85622
5.01782
7.05538
-61.5996
5.5343
2.83617
6.67424
-17.4148
-38.3754
2.98492
-20.0116
3.07189
-12.2427
-11.5767
-6.76631
0.693206
1.69051
24.1082
-38.6332
0.321355
25.0667
2.54478
0.539718
-54.8243
-57.7453
-63.0898
6.79298
-23.1218
25.1927
16.5713
13.0216
1.006
-66.5643
-60.7193
-49.0282
71.7966
-50.6919
44.7227
21.0814
-23.4512
23.2269
-40.2679
23.6416
-36.6652
21.2477
-9.24415
5.54094
-9.27097
25.7503
24.5636
5.9184
22.5696
22.0621
41.3365
11.8797
25.1453
22.0043
-46.393
-49.6205
1.56907
-7.29987
-49.4948
-6.94561
3.97245
23.5784
-46.9824
-10.8535
-9.45488
20.803
-85.8144
14.9083
-34.1031
-106.141
-46.1084
0.889859
23.5727
16.8205
17.2873
22.0991
4.5953
-12.8198
6.7031
7.92119
3.74728
0.380882
0.611344
3.66823
1.35638
-7.72818
0.688804
0.682188
1.00137
5.18714
-4.25139
2.96157
1.95904
1.50946
4.6793
4.37377
-8.66567
3.07979
22.798
-12.8461
-106.213
3.61838
-71.0831
4.41274
-3.59629
-1.65497
44.4524
12.6427
16.1324
4.22443
0.335039
0.413119
4.56213
0.136695
0.0741351
6.44451
1.0926
4.93323
5.02923
16.7168
1.9347
5.51304
58.5887
0.209938
21.708
0.256697
0.150102
51.2791
-35.1156
34.2716
1.108
5.533
-7.56072
-59.7734
4.92965
5.00403
25.354
3.00124
5.29414
2.08025
-5.34167
21.6313
0.282025
24.7675
65.586
4.91017
6.49661
4.48811
6.38046
3.87982
2.33042
5.26985
19.4758
23.8189
14.4633
21.9491
20.9615
13.9768
11.4868
4.25687
-21.9073
14.4525
1.88635
19.122
21.923
72.9665
12.8323
5.94698
8.0975
-30.1457
-12.1126
11.2571
24.8377
5.9223
41.8702
3.80919
22.867
-14.4563
58.3192
40.3693
3.79729
5.87764
15.2498
-23.7006
-75.5587
-49.7941
6.1861
1.68061
-76.8677
5.62667
1.743
3.80489
-10.3628
-68.8094
5.4122
21.1708
-84.1925
20.2963
4.03096
5.97786
16.3857
3.4075
19.0588
-6.38291
22.0006
18.6874
-44.8619
20.1524
70.037
-4.2509
65.6736
40.0114
-50.3523
24.5808
25.3916
-33.833
1.50837
7.60502
-47.7085
-6.63111
-6.01876
4.28945
4.74004
-46.6604
5.7509
12.6635
68.8692
3.38589
12.896
4.38768
-1.22628
15.9341
15.8655
-14.1722
-46.0925
-13.0902
-53.2667
2.88917
-0.270615
6.3242
-0.728009
0.737247
3.69662
6.07646
0.447353
5.51725
-51.9726
-53.4163
5.20989
16.6755
5.16189
1.13551
-5.72801
18.8399
17.6049
-0.0927188
-53.5284
18.2342
3.52195
-55.0768
9.37503
-8.88402
5.91285
4.33081
-27.453
10.0789
63.374
3.40512
8.00746
8.58117
6.33033
-94.805
2.65055
3.19735
3.40944
2.56134
19.2132
2.36617
-8.36806
20.0122
39.137
21.585
22.1781
21.2057
2.94083
6.2454
3.48845
3.11298
-100.412
5.67634
-17.3073
2.82753
-1.12217
-31.5365
-0.424638
2.62837
6.59559
3.63498
-30.5657
-3.39979
20.8825
51.7184
3.74613
5.38726
-13.7566
-20.1608
4.98623
-16.8793
43.9734
21.8213
6.09345
46.8592
23.949
-44.4706
24.7208
15.9745
59.1946
43.3785
21.4703
17.0068
72.5476
-44.4121
4.47111
63.8486
14.4631
24.7907
2.86195
24.4765
-6.65115
22.6087
70.0538
19.8982
23.877
52.4655
17.3098
21.7479
-6.7168
5.81498
23.4286
-36.3091
33.3197
-9.16289
-33.2292
-42.5758
-1.72542
25.0112
46.8908
23.0549
13.3779
22.4121
19.4936
22.5298
7.16215
4.79598
51.919
-18.4262
19.5687
-9.08339
10.3031
19.9071
-0.898396
-48.0133
4.28376
-1.53969
20.1441
10.9233
4.97486
19.7353
3.54419
5.34134
3.49159
-31.7241
10.789
3.3144
2.84765
19.2576
1.98796
29.2328
4.12338
1.82513
34.9057
14.7345
27.2104
45.0817
-55.594
68.1188
52.055
-11.4496
-36.3505
-57.1346
-7.51284
-54.5501
-55.2576
-6.59835
-5.41856
-11.8055
-57.2102
71.0596
6.82721
-42.9766
13.829
6.58869
-14.3188
-44.9104
1.39024
-48.5806
-1.60724
-47.4386
-1.50329
49.4675
-19.377
-6.48763
-56.2704
35.2421
-54.8252
4.86634
-56.7755
33.6336
17.3191
3.81472
6.34225
55.5721
13.9847
-30.1525
-10.2593
22.5596
4.52088
5.82192
-8.14246
-12.9976
6.29934
5.3659
25.7685
-9.06112
4.18848
5.41128
-4.91373
53.5481
5.83958
13.7801
5.01684
12.9159
-20.9027
18.2259
16.7151
-8.93251
5.22082
14.7062
10.3613
9.54901
74.5845
11.6131
-18.6042
4.80198
9.18472
-89.7522
-96.6523
16.7635
18.1316
15.9988
19.4699
-5.31675
2.57043
69.8696
0.54127
19.6415
-10.4701
5.85881
3.5864
16.4499
1.22836
16.501
-3.71419
-60.3438
-16.0425
44.7436
-10.8805
24.4042
17.5213
-33.0582
-44.2921
39.4586
-53.1885
19.154
-36.8717
45.9021
-16.4765
34.1804
-0.500675
9.54566
0.88195
7.57864
0.187318
-17.8765
9.42979
22.9969
-69.5353
25.1084
-6.64639
24.7791
5.89291
17.6963
6.88264
6.32796
1.431
6.20174
13.8808
9.1002
23.5267
4.8537
-49.3972
43.7608
21.3364
50.0265
24.3696
13.9697
19.9103
22.8662
39.6608
6.00129
39.5595
4.94011
5.02638
-2.30655
3.11749
1.05436
-4.98237
-1.62976
-3.79946
5.74658
45.4365
12.1326
38.9058
3.06505
20.257
23.8999
5.82967
2.41232
2.38621
5.4137
71.485
1.68279
4.23118
-48.7082
24.1243
25.1325
26.5397
24.3342
-3.9922
-10.8896
10.5712
5.78804
5.74141
0.24448
44.796
0.882889
-29.7937
6.39489
-7.90998
8.15677
17.1464
-9.25904
23.4651
22.1818
-2.1806
25.4561
4.8048
15.8054
-21.1294
25.057
66.4174
7.00899
6.96378
46.4603
19.2455
8.59397
42.8823
15.6071
0.512098
47.8542
-8.72447
50.0656
-70.4832
13.2064
23.7391
6.51974
2.81594
11.2713
4.377
6.18765
1.27185
24.4858
-15.0494
13.5503
5.45764
-2.49711
7.40471
-3.62786
22.9664
23.9052
32.5878
12.8984
6.88289
2.35098
6.40687
1.95896
21.4669
5.80927
-2.8888
72.0933
-2.76124
6.42218
71.0222
22.7602
-97.9255
63.7954
6.44802
10.1648
42.0189
24.3415
-52.405
45.317
-51.4268
11.0827
-51.7001
-5.14145
-15.234
46.5515
11.7987
72.2273
2.57892
-53.0333
-46.8207
-95.661
-101.576
-18.6058
-43.7329
-9.03351
-47.6586
70.1021
17.0809
20.1765
58.362
32.8558
-19.3761
17.2788
-21.7344
59.8752
3.60799
20.5102
0.502547
3.0065
2.94739
2.65606
71.1579
4.36214
3.07344
28.4718
4.63275
3.8495
20.2734
3.46466
2.38311
3.39654
2.90344
15.0876
39.8527
-24.7903
8.43376
9.68206
4.22552
6.84749
-28.7396
-23.6382
-3.96765
6.81369
52.26
22.1878
6.49455
3.78877
12.584
11.9895
3.24212
19.5878
20.6049
-61.69
2.44891
20.3611
6.02311
10.8237
19.2607
4.61356
16.2437
18.8326
20.3449
-0.580144
19.3
20.6792
60.3365
38.333
18.7225
35.9162
20.3144
7.35937
21.4789
3.64052
6.64926
7.52979
13.8933
-1.70391
26.6755
18.7055
-2.90868
38.0262
1.98437
17.265
40.8004
0.0913948
43.1105
-5.71853
-25.1098
-54.661
7.98895
1.35704
-1.63457
42.3477
3.71593
6.42681
17.486
9.18324
6.92152
1.82354
17.2738
21.4146
38.4911
15.2505
9.78824
21.2493
19.2666
-0.0468095
-13.8833
45.2626
-0.740406
16.4871
2.37377
48.9869
20.1454
18.7375
1.43368
-28.7848
-100.514
24.4968
23.6801
2.61447
-1.54253
3.12686
-10.1772
43.5791
4.48499
5.98499
7.44012
0.48812
25.4384
-0.751975
1.27489
3.34588
43.1446
2.89361
5.46499
31.8958
-12.0191
-7.25131
2.29331
1.80101
23.2404
-0.129632
3.02577
20.8878
17.505
-2.54621
31.1554
14.1371
-41.633
1.49836
3.89625
-46.4794
-2.18205
22.7378
2.90775
15.8201
22.4941
74.2847
2.97592
3.22293
-7.31124
-16.659
-58.1869
-38.1276
2.92697
26.1069
60.2884
0.0584302
23.2754
21.8934
-28.4824
24.0953
14.0407
-8.42085
20.0879
26.782
-2.68591
16.1839
-25.7795
-39.3951
23.431
28.5365
-43.1308
23.572
19.5283
10.4164
22.1585
21.3343
7.13098
-15.5305
4.42857
26.9699
23.2223
23.9171
22.1726
19.0819
0.0314652
52.7885
0.102153
6.72143
7.82617
47.2919
23.1398
0.977366
12.3344
68.5217
-6.60243
-11.0359
-35.6538
11.5058
5.30067
-27.0078
-2.83637
23.9368
-1.14761
4.86548
0.232048
3.35252
21.1707
20.2593
17.3507
0.637278
-0.192862
-4.12718
5.08834
0.398045
7.79812
6.6767
0.0822815
6.35268
5.11779
21.8562
-17.8987
21.0392
6.79847
7.05185
21.4899
21.0955
22.4439
8.03097
7.49388
2.69176
11.1903
7.13788
8.95364
-48.0813
9.2094
1.34447
-53.5714
-49.7267
-46.3082
22.9647
-50.2884
25.7309
-47.3698
5.81361
-54.8689
3.16299
10.3085
10.3104
5.47161
3.34866
10.4704
7.11756
23.6982
6.33912
24.5739
5.17897
-0.0234844
-102.368
-54.1195
33.8595
39.4838
-28.3167
-20.8392
-17.856
-59.5683
-54.3971
3.4167
-55.4513
7.02626
6.16334
-31.2473
-79.9705
-1.64049
7.53948
22.0725
60.3444
4.63054
-79.989
6.50475
12.5483
6.15965
7.26589
-23.18
8.94414
6.44259
6.67102
10.3613
16.8838
7.13808
3.0516
-72.3276
-75.2615
-15.5142
36.8938
-20.9483
20.5526
2.62967
22.6456
14.3025
12.0428
34.1347
20.0209
36.78
2.94851
12.4784
13.3113
7.70786
10.4953
2.53996
14.1628
22.138
15.2338
50.2846
8.68038
29.4082
-37.3674
5.30865
-26.6118
45.8416
19.7892
19.483
13.1324
-16.0565
1.10987
18.2597
-23.4854
15.7656
11.651
5.40986
23.2637
18.031
4.40682
-0.259551
-19.6465
24.6009
5.78173
-30.4374
8.95923
-22.4551
-27.979
23.9803
-59.3147
5.10896
40.6969
3.048
22.0144
18.6925
24.197
5.20873
22.4744
-54.2145
3.84298
-52.8005
4.218
0.0172842
31.5809
-54.6553
0.430067
5.43427
8.30599
29.9616
-55.1382
21.8771
6.92423
-9.07198
3.42871
7.40147
22.0787
-109.43
5.23233
13.7806
5.29587
7.92985
22.1718
17.8631
6.22207
20.9184
-1.64079
21.5182
-76.4189
21.299
-42.0439
-5.86992
4.59049
15.6641
5.14074
-1.26322
19.9129
5.29768
6.20108
4.28167
66.9643
0.0995383
47.8663
5.02844
1.60071
5.14075
-0.464522
22.5458
20.2256
25.1776
7.84909
1.74405
24.6879
1.81352
2.70586
2.77876
-5.80783
10.6449
-0.273158
20.6511
-14.4029
-63.8901
1.0252
4.54445
2.08421
-7.93453
1.22067
1.03041
5.74173
2.01997
6.82975
5.32147
0.307949
2.47764
22.5985
-9.99589
-22.4003
25.7828
61.2827
24.8191
21.9248
-0.292635
23.1755
54.8948
0.339869
50.9147
7.78498
-0.331375
18.4851
43.6258
3.64506
0.29475
64.4294
24.302
34.619
3.74622
0.154588
1.0442
5.94386
-0.228447
2.64932
10.1056
3.7177
62.8241
3.21707
3.51466
2.03136
21.454
-8.22688
-0.766933
5.01345
5.52297
7.32484
2.32427
18.6885
-9.62569
33.1864
28.1211
6.34749
2.19448
55.141
-0.758142
54.3139
37.7186
18.796
21.4669
1.67722
3.84856
9.18089
1.45617
1.1355
21.9174
-99.3749
5.76689
4.81478
0.530129
19.4616
4.30395
62.5436
5.84944
56.8152
4.42248
-49.4224
-0.105477
0.177899
4.51461
-23.4584
1.72357
44.3112
20.6534
44.5436
4.9212
-1.89686
12.341
-25.4626
35.5211
23.1495
19.972
6.8773
-6.01532
20.292
-74.1809
-1.2882
25.083
46.064
22.0945
-6.01767
55.9965
11.7321
5.15222
54.3446
42.5287
9.84886
10.4705
-38.6585
53.3126
18.0276
53.1516
5.17251
-34.9836
37.0073
6.30118
0.21093
0.192847
1.06041
7.08233
22.0356
-12.7337
7.45658
-8.89049
25.1784
50.3917
-1.3057
46.9823
0.293891
0.121954
0.786752
68.0849
-1.83276
61.2122
24.3526
12.8319
35.2747
15.3967
27.7024
-0.32323
-0.452954
0.232999
-0.253431
16.0765
0.381926
22.4054
-17.2225
5.70154
-10.5953
23.4395
-4.01749
59.4798
11.1786
9.72924
0.606489
53.553
-0.48303
31.2576
7.07728
17.5634
3.36318
9.41271
44.5714
47.9768
0.689458
-0.100003
6.80244
-18.5297
-45.889
1.42868
64.8715
40.3495
68.0093
69.4899
58.6687
-42.8163
8.77009
58.6375
-31.3194
-0.122399
13.157
0.666677
-7.8058
-22.5652
6.86439
9.5695
5.23214
-0.196838
20.7769
-19.1785
51.6341
-24.4806
21.6391
8.44046
19.4826
11.2971
4.34261
-86.7988
6.01524
-11.4234
0.119955
20.398
-63.6035
-101.435
20.4619
2.49318
0.993362
25.5871
20.405
1.13661
35.142
-71.8196
-10.3804
-17.1271
48.8375
-15.6552
14.7349
34.6868
13.6901
-26.9874
-31.5756
14.8371
6.59328
63.3823
9.8756
-19.2332
6.20966
-0.294107
-39.9412
2.03321
-51.3704
5.23773
-52.3258
1.1288
-51.2035
18.9083
-5.45568
64.1933
-53.5294
32.7593
-10.6929
-55.5782
-1.32833
-9.18346
44.718
42.4333
-10.7762
20.1319
27.6307
24.3427
14.4717
21.5004
2.81366
-54.7932
-164.816
-37.2739
29.7862
33.0914
-15.4492
36.2031
-47.6298
1.91179
15.9756
10.1579
-25.2394
24.243
-49.2592
23.9698
43.9369
44.8464
74.1609
43.3544
-7.33757
-34.63
60.0793
24.5083
47.2244
-24.4775
-54.0874
60.3685
37.797
5.93232
29.9571
26.7157
-21.5313
-51.0037
-98.159
33.3118
16.6663
48.5353
-30.5316
58.523
40.7525
22.504
49.887
-73.654
16.4125
11.3342
24.4467
2.99406
-16.2791
-64.1054
56.2135
4.08034
-24.1064
-65.1944
57.2141
55.3066
54.1004
-29.9278
-72.2171
56.1895
-2.89031
-32.5565
56.9628
8.60872
2.55928
21.6659
4.92957
8.33326
3.56216
54.4387
-4.83837
1.38766
7.85215
7.61008
9.18932
6.34498
20.298
-12.2944
4.45719
7.68971
-29.3732
-49.9296
-55.6835
-1.19649
9.18098
0.124973
-12.3331
-8.02746
8.10543
-47.2721
12.4755
-46.1377
-48.8906
54.1882
30.9549
35.6378
-1.6152
20.0381
-43.1482
-5.75314
2.77474
-44.0611
-0.324798
-33.4317
-18.4508
-6.22906
-19.3564
9.39058
24.4903
20.8474
23.3566
22.0026
52.1337
2.1473
-0.305725
-0.121344
23.7668
-13.9804
-56.1008
-33.2078
23.4272
49.7385
32.8838
41.9708
13.9248
-60.5006
4.83592
24.1361
15.2571
5.92779
28.3373
19.2479
2.2167
24.3177
1.87543
2.16356
10.0242
24.5371
46.9075
-9.90674
67.942
-74.932
29.3477
-81.7077
-52.3997
1.88249
17.4462
50.0464
5.6216
-11.792
4.66152
24.0202
-9.13147
-59.6531
30.1461
58.1663
75.0388
-33.124
-10.1388
-33.2311
23.5702
9.18879
-0.249862
19.3469
15.0742
-6.59891
12.4527
20.586
-19.5848
3.41854
-59.4363
6.96447
-80.844
0.679371
19.9015
-81.7082
-0.39749
-0.405679
73.1763
17.0433
62.4922
10.1537
-52.7116
26.571
15.696
46.4142
68.1682
24.6607
47.0219
-0.378194
-18.6571
24.9435
20.5513
7.19383
22.0683
-14.8353
10.7832
3.4972
25.5767
12.6346
-3.84602
13.7494
18.6326
4.98944
5.03639
-12.9544
0.242867
21.4033
-0.260284
22.8077
0.136091
3.44322
20.614
-4.43568
20.0852
-37.6165
0.166729
41.6933
1.00406
48.9474
0.661643
6.20676
0.0779882
0.0793956
3.12866
11.4042
24.5493
47.4504
34.316
-68.7703
-28.9423
59.1898
37.5226
30.0059
18.7968
-0.00197687
-0.579137
-47.4523
59.2596
32.1782
27.9351
1.35522
27.8073
0.154287
0.584386
-2.68658
-8.64698
-17.1767
-48.1281
21.1272
5.4472
-6.29983
20.5716
48.7106
20.8858
0.259388
20.8818
3.75705
-52.2726
-4.11024
0.760276
16.6684
6.3383
4.1792
-45.3164
20.3004
-46.3945
36.1747
-50.6964
-10.9242
-10.306
1.24198
31.2618
17.0784
24.7007
43.8068
23.6875
4.677
18.5848
19.9024
20.9231
23.0399
-18.4231
19.4051
24.0845
53.6148
22.1263
-4.10631
24.3256
23.9411
-51.4929
-51.0879
-7.99086
-52.4641
-48.7124
21.1547
66.9627
-71.571
-2.45494
25.8395
32.4272
-49.1657
3.28858
1.43776
18.2667
-4.68031
-55.209
-21.6402
46.6472
13.9151
3.65026
18.0669
-64.5446
38.0417
17.5024
-31.5201
-76.954
-65.6342
75.4259
22.7237
18.2395
17.5065
23.1366
-54.339
26.9084
19.7629
28.5728
-21.004
24.337
34.6413
57.212
48.9277
18.6078
-0.243384
33.0017
6.03113
2.76183
2.04531
39.724
-11.0725
-7.48623
1.68691
68.0867
2.07859
-65.391
37.246
37.2107
51.9472
-60.2252
-27.6101
-54.4035
45.1325
2.87006
-12.468
-5.93625
18.8921
8.80704
22.9505
5.76701
31.9988
6.196
20.0354
6.15539
4.05598
0.343777
48.6291
16.5226
9.99888
-6.80609
14.4025
5.92735
15.1414
9.25811
-11.2057
-23.3982
-2.236
12.0177
48.6572
5.55515
72.0233
-29.4306
71.0745
67.3217
5.53132
10.2736
11.4168
3.57944
5.36618
-64.4578
25.4547
-37.7844
-24.3171
13.3117
7.76357
-49.8212
12.5354
12.5829
20.3028
15.2604
3.56407
-35.1673
7.52141
5.25142
3.95064
5.60583
5.30745
5.86947
5.33034
5.19554
12.0419
-31.2423
2.63885
3.10066
0.811225
3.28736
29.655
-5.82628
25.663
25.8181
-0.71822
-0.709522
3.33057
0.772956
13.5058
2.92758
12.2971
14.982
-0.959069
66.5793
1.60583
6.29392
0.249912
0.350077
-9.63682
0.180101
-57.4321
6.31776
60.7692
11.0799
5.12506
-12.1071
-3.83744
5.51482
-13.3426
8.40863
0.59115
13.8343
-56.1604
0.15426
10.7957
33.0185
48.9544
6.14743
15.895
18.2496
-19.2913
-5.21437
0.106169
58.566
-35.3123
-3.46154
2.74721
62.899
1.39347
5.32455
39.843
-41.5447
13.8709
0.568975
1.03464
0.100314
0.121956
-0.537767
-49.3857
25.3459
-0.665368
-29.5363
14.6495
0.719808
5.8504
9.44272
27.1472
-22.4443
13.8969
24.3942
-7.20783
8.24986
20.4047
72.3911
23.0578
-82.5203
52.8868
26.3778
36.7136
1.24784
59.7113
2.77914
20.8445
31.6894
0.514537
-19.1114
-77.3694
3.28225
2.16059
-110.147
34.5807
-55.3418
7.51268
2.74506
0.0363081
22.6997
38.6291
64.3391
23.589
64.1125
23.37
-58.35
-66.5321
-54.6062
-64.1993
4.77176
8.07226
36.5705
24.5472
23.9049
75.8725
8.54536
-4.70916
-36.7575
1.55022
4.56965
11.5414
6.70588
1.13437
14.8067
15.7663
5.49234
17.1082
22.9479
-11.5035
22.6589
22.0585
24.3789
58.9287
23.8037
20.8075
44.9101
-10.0368
23.2362
24.1822
47.3987
24.048
31.56
73.1468
67.1914
-3.0907
4.34404
24.1002
54.7215
21.6923
23.6713
5.22849
55.4033
-25.7596
3.98839
9.21534
16.771
62.1266
49.2153
16.6435
11.1021
-15.7359
17.0313
4.78774
-26.3468
15.1021
2.35656
-52.4986
-46.4646
-46.6543
22.162
-50.5131
24.093
-6.9747
25.8371
31.4152
29.8389
-6.28785
17.3026
20.9284
53.9642
21.627
21.9518
36.0468
26.4507
24.2873
21.8912
28.994
23.7036
26.029
-32.2901
17.6958
-3.67553
4.23843
44.7912
7.13773
75.5464
3.01551
10.3863
15.5622
-11.6255
5.10751
4.05952
5.66852
-18.2107
3.48895
8.05688
-10.8932
5.98256
13.01
4.20194
5.1987
-24.2523
-7.52233