/*--------------------------------*- C++ -*----------------------------------*\
| =========                 |                                                 |
| \\      /  F ield         | OpenFOAM: The Open Source CFD Toolbox           |
|  \\    /   O peration     | Version:  2506                                  |
|   \\  /    A nd           | Website:  www.openfoam.com                      |
|    \\/     M anipulation  |                                                 |
\*---------------------------------------------------------------------------*/
FoamFile
{
    version     2.0;
    format      ascii;
    arch        "LSB;label=32;scalar=64";
    class       surfaceScalarField;
    location    "0.01535";
    object      phi;
}
// * * * * * * * * * * * * * * * * * * * * * * * * * * * * * * * * * * * * * //

dimensions      [0 3 -1 0 0 0 0];

oriented        oriented;

internalField   nonuniform List<scalar> 
92401
(
0.147751
-0.0945548
-0.00816988
-0.0450265
-0.0649444
0.0603842
0.0391916
-0.0346314
0.0217818
-0.0385705
0.0426185
-0.0258298
0.00624478
-0.0122356
0.0122178
-0.00622689
0.00125392
-0.000474211
-0.00549436
0.00471464
0.0195016
0.00988344
-0.0257816
-0.00360348
0.00539928
-0.00445386
0.000308497
0.0322874
-0.0257126
0.0129268
0.0494273
-0.0393459
0.0316787
-0.0417601
0.000819697
-0.00114268
-0.000419392
0.000742373
0.00464152
-0.0416303
0.039328
0.0265329
0.0238856
-0.0897465
-0.0161825
0.0102184
-0.000138819
0.00610296
-0.0344837
-0.0397347
-0.0159652
-0.0164206
0.0545155
-0.0221297
0.00167602
-0.0640121
0.0623361
-0.00281846
-0.00770159
0.00195153
0.00332863
0.00242143
-0.000908467
0.00137474
0.000383195
-0.000849465
-0.00460499
0.0100726
0.000243539
-0.00571114
0.0158601
-0.0054717
-0.00461465
-0.00577373
-0.0405794
0.00874274
0.0366833
-0.00484669
-0.0396632
0.0110356
-0.0559614
-0.0541887
-0.00312519
0.0555038
0.00181008
0.0913959
-0.0898147
0.0232702
-0.0248514
0.0505517
0.060838
-0.07187
-0.0395197
-0.032425
0.0506895
-0.0579277
-0.00252723
-0.00108719
0.00389405
-0.000279623
0.0310497
-0.0632982
-0.000176403
0.0615206
-0.0610768
-0.0323461
0.0319023
0.0125538
-0.0170749
0.000686583
0.00383457
-0.0364594
0.106446
0.0603535
-0.13034
-0.0838775
0.10948
0.00700123
-0.0326032
-0.12949
0.0327299
0.0299151
0.0668452
0.015556
-0.0621628
0.0376709
0.0089358
0.0614486
0.010687
-0.0565796
-0.0443259
0.0104491
0.00229392
0.0315828
-0.0498788
-0.0415133
0.0643164
0.0270757
-0.0337126
0.0397415
-0.0135519
0.00752297
-0.0209911
-0.101435
0.0658135
0.0566122
-0.0859796
0.0851615
0.000818148
0.0321377
0.00235789
-0.0770203
0.0425247
-0.000942696
0.0289463
-0.0318145
0.00381091
0.0279408
-0.0505953
0.0226544
0.000220003
5.29121e-05
-0.000108646
-0.000164269
0.000129133
-0.059494
0.0593649
-0.0689816
0.0430939
0.0626087
-0.0367209
0.0900712
-0.0256564
-0.0133902
-0.0510245
-0.000866067
0.0706964
0.0018923
-0.0717227
-0.0463931
0.0735368
0.0372085
-0.0643522
0.000483851
0.000985492
-0.000325146
-0.0011442
-0.00213347
-0.00408774
0.000881224
0.00533999
-0.0384507
0.0850113
-0.0463771
-0.000183492
0.000418765
-0.000942986
-0.000668878
0.0011931
-0.0540291
0.0538993
0.000129794
0.0751658
-0.00662629
-0.0201825
-0.048357
-0.0980818
0.0887035
0.00642284
0.00295547
-0.0534228
0.0264262
0.0120913
0.0149053
1.96607e-05
-0.0160837
0.00600141
0.0100626
-0.0132825
0.0247603
0.0383432
-0.049821
0.00110743
-0.000437663
-0.000251001
5.49531e-06
1.20026e-05
0.000868614
-0.000886112
0.00126218
0.0002584
-0.00085346
-0.000667119
0.00405785
-0.00900253
0.00525129
-0.000306604
0.0685843
0.0050145
-0.0179748
-0.0556239
-0.0147855
-0.00453653
0.0100119
0.00931014
-0.0402175
-0.0514126
-0.055676
0.147306
0.00369097
-0.0327391
-0.00403499
0.0330831
-0.000406862
0.000559718
0.000690148
-0.000843004
0.00572905
0.00369277
-0.0286934
0.0192716
0.0183294
-0.00694539
-0.00930502
-0.00207899
0.0405935
-0.0759393
-0.0275183
0.062864
-0.0279082
-0.00346659
0.0101635
0.0212114
0.0117496
0.00772145
0.0129396
-0.0324107
-0.00117287
-0.000464558
-6.3303e-06
0.00164376
0.0239741
-0.0086306
0.0367191
-0.00137149
0.000960645
-0.00156591
0.00197676
0.0463042
-0.0338978
-0.0687678
0.0563614
0.000618599
-0.000272973
-0.000345626
-0.00104227
-2.93483e-05
0.000544573
0.000527045
0.00107846
-0.000808589
0.00138628
-0.00165614
0.0224168
-0.0214715
-0.0632676
0.0623223
0.00127684
-0.0129207
0.00260393
0.00903997
0.0445824
0.0560525
0.0183995
-0.119034
-0.116597
0.0246022
0.12914
-0.037145
-0.00535065
-0.0433851
0.00453462
0.0442011
0.0520845
-0.0294878
0.0256811
-0.0482779
0.026308
-0.00396506
-0.153077
0.130734
0.00612944
0.0150453
-0.02544
0.00426521
0.000687157
-0.000231758
-0.000697949
0.000242551
0.0370125
0.0131225
-0.00188129
-0.0482536
-0.00218308
0.0817528
-0.0836845
0.00411481
-0.0195923
0.0486697
-0.114192
0.0851148
0.0412756
0.00470269
-0.0513289
0.0416365
-0.000360976
-0.00228796
-0.029484
0.0419717
-0.0101997
0.0708793
0.0168685
-0.031318
-0.0564298
0.128528
-0.140882
-0.0299504
0.0423037
-0.0142787
-0.0459817
0.0579724
-0.0827238
0.00207423
0.0806495
0.00143928
-0.100124
0.165416
-0.0667314
-0.00234862
0.00334596
-0.000485905
-0.000511435
0.0886168
-0.150116
0.030931
0.0305686
0.00160942
-0.000238277
0.000716384
-0.00208752
-0.0851079
0.143313
-0.106328
0.0481229
0.0279896
0.00389886
-0.0397517
0.00786321
0.0868934
-0.0176232
-0.0783672
0.00909712
0.00586851
0.0310597
-0.0512068
0.0331927
0.0294163
-0.137663
0.0750537
0.0851168
0.113564
-0.0770913
-0.121589
0.000885329
-0.000920985
-0.00074067
0.000776325
-0.0950489
-0.02768
0.110796
0.0119333
0.00263054
-0.00558139
0.0142313
-0.0112804
-0.0139003
-0.0337606
0.0576049
-0.00994405
-0.00501191
0.0163095
-0.013771
0.00247337
0.000276505
-0.000600579
-0.000495148
0.000819222
0.0209359
-0.0247725
-0.00117528
-0.00171982
-0.000773748
0.00142651
0.00106705
-0.0576271
0.0603176
-0.00269044
-0.00235532
-0.00596232
-0.00203727
0.0103549
-0.0354033
0.0281767
-0.00667365
0.0200038
-0.0485285
-0.0553528
-0.0518616
0.0430763
0.0975902
-0.0888049
-0.00743529
-0.00157163
0.00470735
0.00429958
0.0471058
0.0128296
0.000888124
-0.0608235
0.000264778
-0.00870944
0.00682649
0.00161817
-0.0364908
-0.0560471
0.0119667
0.0805712
0.0646305
-0.0386127
0.0255328
-0.0515505
-0.00819327
0.0589654
-0.0575205
0.00674836
-0.0600538
-0.0336527
0.00912075
0.0845857
0.0174635
0.00510908
-0.0343145
0.0117419
0.0599171
-0.0574617
-0.00245541
0.00205487
0.00185391
-0.00110167
-0.00280711
0.0413996
-0.0433149
0.00191538
-0.0492903
-0.0435107
0.109762
-0.0169607
0.000913934
-0.0095728
0.00927763
-0.000618761
0.00319722
0.0058751
0.00229577
-0.0113681
0.00140603
0.00618952
-0.00733076
-0.0282165
-0.0558302
-0.00909093
0.0931377
0.0244706
-0.00682998
0.0165498
-0.0341904
-0.086048
0.0942952
-0.104565
0.0963181
0.0713066
-0.0481074
-0.0231992
0.00160209
-0.0343723
-0.0100175
0.0427877
0.00766395
-0.00575323
-0.00844385
0.00653312
0.0453567
-0.0683815
-0.0617032
0.084728
0.0750947
-0.0650834
0.028599
-0.0386103
-0.0130049
-0.00786906
0.0307984
-0.00992444
-0.0602066
-0.087561
0.0575828
0.0901847
-0.04106
0.0538927
-0.0112306
0.0987179
-0.0491803
-0.0495377
-0.00363305
0.0144807
-0.00318373
0.00092832
0.000610955
-0.000688567
-0.000850708
0.0486863
-0.0173473
-0.00516349
-0.0261755
0.00355339
-0.00175401
-0.000551738
-0.00124765
0.00555818
-0.00972982
0.00854748
-0.00437584
0.0727505
-0.0426293
0.0257831
-0.0559042
0.00838441
-0.000112963
-0.00699535
-0.0012761
0.00159299
-0.00054476
-0.00104823
-0.06273
0.0632886
-0.000558518
0.010796
0.00430899
-0.0950201
0.0799151
-0.0107841
0.0136241
-0.00994363
0.00710355
-0.0728143
0.0162416
0.0837291
-0.0271563
0.0191559
-0.0976019
0.0744565
0.00398948
-0.0507876
0.0417038
-0.00813835
0.0172221
0.00872655
-0.00173525
-0.00295912
-0.00403218
6.48226e-05
-0.00105437
0.000989545
0.0218589
0.174991
-0.240565
0.0437155
0.000169649
-0.000264068
-0.0237595
0.0609162
-0.0542271
0.0170703
-0.000118911
0.00517653
-0.00416466
-0.00089296
0.000850973
0.00176635
-0.00342591
-0.0723483
0.00160786
0.0707404
-0.0335392
0.114353
-0.0480203
-0.0327937
6.3583e-05
0.00114234
0.0093729
-0.0105788
-0.0018292
0.092524
-0.0906948
0.00232132
-0.00162713
-0.00107495
0.000380753
0.00129357
0.000584585
-0.000611364
-0.00126679
-0.0366288
-0.00186136
0.0324099
0.0185624
-0.0642548
-0.0725609
-0.0162028
0.00570796
0.0830558
-0.000572631
0.00186621
-0.0983694
-0.0416845
0.112642
0.0274116
0.0268308
0.165521
-0.0833037
-0.0570322
-0.0251856
-0.0182497
0.119256
-0.0441043
-0.0569019
0.042416
0.0286917
0.0376004
-0.108708
0.107161
-0.2471
0.105631
0.0343076
0.00151182
-0.00131335
-0.00146671
0.00126824
-0.0124988
-0.0361326
0.0569342
-0.00830271
0.0250163
0.0404753
-0.02517
-0.0403216
-0.0355971
-0.0266445
-0.019221
0.0814626
-0.0551273
-0.0127758
0.0554043
0.000834834
-0.0114419
0.00731096
0.00329613
0.055831
-0.0288269
-0.0513885
0.0243845
-0.0885921
0.10409
-0.0503784
0.0348809
0.0155721
-0.0223899
0.00690528
-8.75371e-05
0.052669
-0.0615756
0.0647376
-0.0574335
-0.00273025
-0.0144742
0.074638
-0.00530816
-0.0120774
0.00203413
0.0153515
-0.00114681
0.057312
-0.0571029
0.000937672
0.135237
-0.0543992
-0.00177617
-0.0790614
0.0580505
-0.00721291
-0.0477512
-0.00308647
0.0536485
-0.0210209
-0.0765369
0.0439094
-0.00940171
-0.0019103
0.0142996
-0.00298755
0.00519518
-0.00170437
-0.00480093
0.00131012
0.00203986
-0.0423077
0.0389379
0.00132991
-0.000998795
-0.0858723
0.00429312
0.0187711
-0.0126007
-0.0626573
0.0471258
0.0155316
-0.0604087
-0.0159493
0.00968263
0.0666753
-0.0981012
-0.00491666
0.104813
-0.00179525
0.00372186
0.0226415
-0.0123976
-0.0139658
-0.0697872
0.149513
-0.067105
-0.0126208
-0.00526982
0.0142386
0.0223951
-0.0313639
-0.0504107
0.0956314
0.037158
-0.0823788
0.0269444
0.00222917
-0.0144469
-0.0147267
-0.0352509
0.0365235
0.000767235
-0.004018
0.00698776
-0.00995377
0.00698402
-0.000657472
-0.00395259
0.0101682
0.0371818
0.0374174
-0.0745992
0.00105954
-0.00181207
7.70054e-05
0.000675531
0.0187388
0.00794894
-0.0180165
-0.0086712
0.0229198
0.00845742
-0.00290727
-0.0284699
-0.050881
-0.00105259
0.00717965
0.0447539
0.000399312
-0.042707
-0.000908834
0.000569992
0.00139838
-0.052156
0.0373464
0.0513677
-0.0365581
-0.0427401
0.0287674
0.0181849
-0.00421214
0.00129748
-0.00304607
-0.00942066
0.0111693
-0.00795778
-0.0047682
-0.00368317
0.0164091
-0.042052
-0.00446155
0.0112626
0.0736227
0.0405406
-0.0736681
-0.0404952
-0.0439046
0.00012026
0.0437843
0.0874176
-0.0482991
0.0579818
0.00375296
-0.00777595
-0.0384791
0.0425021
0.0364486
0.0110592
-0.00574055
-0.0417673
-0.000471687
0.000304418
0.000972958
-0.000805689
-0.0167723
-0.0447891
0.0615614
-0.000257357
-0.0012566
-0.00428417
0.032152
-0.0241149
0.00583197
0.0279135
-0.0415214
0.0942031
-0.0886111
-0.00036813
-0.00522384
-0.0219106
0.100317
-0.0185981
-0.0598087
-0.030788
0.00655234
0.015577
0.00865865
-0.0390266
0.0351888
0.0144278
-0.01059
0.0310672
-0.0250802
0.00111438
-0.00710134
0.0193211
0.0712743
-0.121235
0.0306395
0.0735005
-0.0729858
-0.0240394
0.0235247
-0.142516
0.00313811
0.00323524
0.136142
0.0305625
0.0122615
-0.0410189
-0.00180509
0.0398573
-0.0581607
0.0187913
-0.000487929
0.00200756
-0.00117895
0.000227793
-0.0010564
-0.0132094
-0.00180393
0.0741396
-0.041343
0.0190225
-0.051819
-0.011721
0.0466395
0.00045061
-0.0353691
0.00472133
0.0975252
-0.092641
-0.00960548
0.0510508
-0.098164
0.0566567
-0.00954353
-0.0500404
-0.000717943
0.0390373
0.0153155
-0.00500303
0.00890367
-0.0192161
-0.0240552
0.0485291
-0.0131879
-0.011286
-0.0498548
-0.000185541
-0.00731108
-0.12324
0.176594
-0.0460431
0.00986112
0.00948456
-0.0620266
0.042681
0.0503081
0.00580967
-0.0462567
-0.0119761
0.00633429
-0.00354463
0.00918639
-0.0552226
0.00075423
0.0544684
0.10932
0.0419757
-0.134443
-0.0168528
-0.00872706
0.000337071
-0.00358607
0.0190691
-0.112353
-0.0240051
0.117289
0.0122993
0.065934
-0.0687487
0.00273459
-0.053734
-0.0110272
0.000482319
0.00178719
-0.00252686
0.00193499
-0.001746
0.00029332
-0.051418
0.0282605
0.0730305
-0.049873
-0.00184504
0.000925921
0.000889772
-0.035587
-0.00780271
0.0461243
0.00024555
-0.000303404
0.000325573
-0.000893471
5.32418e-05
0.000514656
0.000142452
0.00203809
-0.00163694
0.00132311
1.7867e-05
0.000295967
0.000349735
-0.0001242
0.000881893
0.103534
0.119441
-0.0752245
0.000245744
-0.00102431
0.0011283
-0.0528859
0.053645
-0.00075908
-0.0096761
0.0754091
-0.0703413
0.00460822
0.00177375
-0.0186817
0.00496925
0.0119387
-0.0592465
-0.00331551
-0.0168978
0.00425392
0.0465543
-0.0339104
-0.0641896
0.000518097
0.0636715
-0.00625797
-0.0155023
-0.0123226
0.0340828
0.00023437
-0.000305594
-0.000433569
0.000504792
-0.00401593
-0.00764757
0.00901749
0.002646
0.0550108
0.0437349
-0.0173626
0.0467615
0.08804
-0.0369972
-0.0978043
-0.0115854
-0.0438829
-0.0217547
0.0215229
-0.0568427
0.0570744
-0.00957711
0.0280684
-0.00789589
-0.0105954
-0.0158854
-0.013049
0.0145127
0.0144217
0.0976514
-0.0939677
0.0170047
-0.0206884
0.00102853
-0.00420539
-0.000219896
0.00339675
0.000585523
-0.06534
0.0647545
-0.0722633
0.00285759
0.0651686
0.00423714
0.0401176
0.0372762
-0.0773938
0.0191472
-0.0601399
0.0294072
0.00235984
-0.0014885
0.00102488
-0.00189622
-0.000158852
-0.000571428
0.00219027
-0.00145999
-6.18037e-05
0.000419023
-0.000902833
0.000545614
0.0644261
0.0552788
-0.0395308
-0.0801741
0.00629463
-0.0860582
0.0816804
-0.00191682
-0.013543
4.71456e-05
0.0265807
-0.0130848
0.0511888
-0.0510953
0.0198544
-0.0199479
-0.000441881
0.00121976
-0.000593062
-0.000184812
0.0202291
0.0486817
-0.0497635
-0.0478284
-0.00165977
0.000832896
0.00149368
-0.000666815
-9.67288e-05
0.079939
-0.0798422
-0.0501791
-0.0155757
-0.0233182
0.0890729
-0.0505968
0.000417784
0.0120444
0.0175148
0.0151882
-0.0447473
0.000360789
-0.00274098
9.23507e-05
0.00228784
-0.00158619
-0.000667813
0.000594239
-0.109792
-0.00660401
-0.0452629
0.161659
-0.009372
0.00572171
0.140359
-0.136709
-0.0385163
0.0427201
-0.0633
0.0590962
-0.0769258
0.0752678
0.00165798
0.0021136
-0.0511454
-0.0300804
0.065541
0.0192559
-0.00568996
-0.0791069
0.0515895
0.0906585
-0.15487
0.0126225
0.0432623
0.0139998
0.0326344
-0.0898966
0.104533
-0.1079
0.0434841
-0.00331576
0.0125139
-0.0114436
0.00224549
-0.00248093
0.000525904
-0.000943337
0.00289837
-0.00260173
-0.00552156
0.0014598
0.00666349
0.0603173
-0.005841
-0.0175621
-0.0369142
-0.0565182
0.0286235
0.0278947
-0.0913213
-0.00708306
0.0123524
0.00012083
-0.000155483
-0.00244628
-0.117959
0.02351
0.00748237
0.0869663
0.000771079
-0.0532623
-0.00998942
0.0624807
0.0468247
0.0276386
-0.101957
0.0274933
0.0387622
-0.0419788
-0.0198615
0.0230781
0.0469566
-0.0583505
0.050156
0.0295228
-0.0559609
0.0501016
-0.0236636
0.0338793
-0.0361204
0.00120735
0.00103373
0.0155018
-0.145009
0.0919369
0.0375708
0.000932601
-0.0586576
-0.00380202
0.0527514
0.000106061
-0.10628
-0.0338499
-0.0095048
0.00646542
0.0368893
-0.0480206
0.0452609
0.0489337
-0.046174
-0.0416713
0.0814203
-0.039749
0.00996615
-0.100868
0.0489234
-0.0170135
0.00779002
0.0238711
-0.0146476
-0.0884905
0.0939769
0.0375146
-0.043001
0.056955
0.033524
-0.0797967
-0.0106824
-0.048059
0.140222
0.0059268
-0.09809
-0.000328472
0.00315913
0.0032808
-0.00611146
0.0549884
-0.0727852
0.0838912
-0.0660944
0.00869323
-0.0406599
-0.00856559
0.0405322
-0.0432092
0.0285959
0.104023
-0.0894093
-0.0507268
-0.0276831
0.056169
0.0222409
-0.0106877
-0.000822967
0.00681272
0.00469798
-0.00900629
0.0202349
-0.0170788
0.00585021
5.92617e-05
0.0737871
-0.0738464
0.0147693
-0.0443109
-0.018479
0.0486962
-0.0330986
-0.00271131
-0.0128863
0.00126732
-0.023754
-0.0206368
0.0431234
0.0362847
-0.0354527
-0.000831983
0.063212
-0.0413593
0.0622609
-0.0841135
-0.099859
0.097155
0.100355
0.000358727
-0.010908
-0.00191445
0.0124637
0.051054
-0.000335751
0.000334035
0.000373381
-0.000371664
-0.000277977
0.0467545
-0.107848
0.0613719
-0.00865514
-0.000145697
0.00481029
0.00399055
0.0269937
0.00994632
-0.03694
0.00103327
-0.00119619
-0.00849221
-0.0314712
-0.0360987
0.0182796
0.0576379
0.000676248
-0.0583141
0.0722025
-0.043365
-0.0510284
0.0221909
0.00191291
-0.0250892
-0.0211496
0.0685229
0.0432474
-0.0395678
-0.0079656
0.00935759
0.136604
-0.121632
0.0363004
-0.0512726
-0.0462181
0.0376939
0.0224283
-0.0139041
-0.0521513
0.0519427
0.000208588
-0.048512
0.0302347
0.0110497
-0.0474768
-0.0106052
0.0470323
-0.0023437
0.160444
-0.160406
0.00230622
0.109238
0.0160778
-0.0158364
0.0508427
0.00892073
-0.0519602
-0.00780326
-0.0140581
0.00435546
0.0103413
-0.000638644
-0.00947743
-0.0051136
0.00473885
0.00985217
0.0675932
-0.0380913
-0.0539715
0.0244696
0.0297882
-0.0161284
0.0227174
-0.0363772
0.0271302
-0.0956464
0.091526
-0.0230097
-0.00553134
0.000469374
-0.00899615
-0.0959132
0.108962
-0.0232736
0.0102244
-0.011012
0.0477677
0.0145328
-0.0512884
-0.00434819
0.000164773
0.00300078
0.00118263
0.0836701
-0.00707155
0.051704
-0.128302
6.28482e-05
-0.000707283
-3.23503e-06
0.00064767
-0.0673774
0.0586221
0.0746662
-0.065911
0.00334538
0.00134111
-0.00187979
-0.00280669
-0.0775423
0.0756343
0.00190805
0.0625097
-0.0594998
-0.0030099
0.0593746
0.000641528
-0.0600161
-0.0144831
0.124574
-0.000378588
-0.109712
0.0101507
-0.0313767
0.0332704
-0.0238064
-0.000588375
-0.0562694
-0.067661
0.0119721
0.0673511
-0.0116622
-0.0129371
-0.00207164
0.000409152
-0.000681261
0.000203848
6.8261e-05
0.00110289
-0.000304724
-0.00022139
-0.000576778
-0.0639293
0.00758018
-0.00176034
0.0581095
0.000518978
-0.00528207
0.00171141
0.00305169
0.0118041
-0.0143562
0.000180301
0.00237181
0.00794368
-0.00672971
0.0105901
0.0560837
-0.0106062
-0.0230936
-0.0223839
0.0367053
-0.00524761
-0.0359147
0.00445703
0.000784982
0.0673743
-0.000525025
-0.0676343
0.00772551
-0.071581
0.0193208
0.0445347
-0.0430493
-0.0324492
0.0425551
0.0329434
-0.0325243
0.0175445
-0.0897814
0.104761
-0.000762945
0.0148401
-0.00765047
-0.00642669
0.0495507
-0.0589134
0.047309
-0.0379463
-0.0622367
-0.00800769
-0.0064228
0.000669508
-0.000170841
0.00402631
-0.00452498
-0.0114884
-0.00283088
0.00165793
0.0126613
-0.00773573
-0.0089091
0.0106524
0.00599246
-8.74305e-05
-0.00213546
0.00127118
0.000951712
-0.000420958
0.000465036
-4.40779e-05
0.000406439
-0.0698911
-0.0252092
0.0946939
-0.000124383
-0.000220182
-0.00127457
0.00161913
4.60417e-05
-0.00042539
-4.16103e-05
0.000373973
-0.0645636
-0.000173546
-2.03024e-05
0.000658885
0.000646377
0.000126475
-0.000431341
-0.000341511
-0.0291444
0.0624701
0.0793431
-0.112669
-0.00879668
-0.00227459
0.00708124
0.00399003
-0.0142218
-0.000139828
0.00556494
-0.00486642
0.00541538
0.0124373
-0.0129862
-0.000565753
0.00051121
-0.000119003
-0.0666785
0.0662249
0.000453606
0.0314845
0.0473106
-0.0602541
-0.018541
0.0122589
-0.0750045
-0.0223701
0.0851157
-0.0130572
0.00290437
0.00528643
-0.0046426
-0.00615403
-0.00226058
-0.0168848
0.0592948
0.0126215
-0.0550315
0.0685968
0.00442134
-0.0530073
-0.0200109
0.000175462
0.000428526
-0.000767155
0.000163167
-0.000429583
-9.0128e-05
-0.00267353
-0.00111944
-0.00113871
0.00493167
0.0663485
-0.0462838
0.0114836
-0.0315484
-0.000740358
-0.00270378
0.00149141
0.00195273
-0.0161609
0.0110509
-0.00387699
0.00898699
0.0014393
-0.103018
0.102933
-0.00135418
0.00295611
0.000593008
-0.0101817
0.00663254
0.00963875
-0.0101217
0.00148216
-0.000999227
0.00972307
0.00370695
-0.0104739
0.0378997
0.0567835
-0.0283347
-0.0273862
0.0549167
0.028611
-0.0561415
0.0278317
-0.0552178
-0.000208465
-0.00059255
-0.0329116
0.0124502
-0.0099813
0.079174
0.025118
0.00720628
0.0698183
-0.0536787
0.0968849
-0.113025
0.00420847
0.0928003
-0.0970088
-0.0067079
-0.00662519
0.0129474
0.000385664
-0.0339754
-0.0873505
0.0273647
0.0939611
0.0223885
0.0627005
-0.0257431
-0.0593459
-0.0233556
0.11512
-0.0538649
-0.0423632
0.0452008
0.0520791
-0.0556003
0.0552982
0.000302074
-0.0379875
0.0365803
0.00140726
0.0409569
-0.0806008
0.0742165
-0.0345727
0.065259
-0.0821438
-0.00926332
-0.00800053
0.010556
0.000861082
0.000656017
-0.000579873
-0.000937227
-0.00608698
-0.0427416
-0.00677173
0.00125779
0.00138583
-0.00242528
-0.000218334
-0.0553316
0.051222
0.0863557
-0.082246
0.0342049
-0.032229
-0.00197596
0.0106829
0.0280392
-0.0142639
-0.0244583
0.00412215
-0.000539811
0.00226037
-0.00584272
-0.0646684
-0.00123639
0.0207018
0.045203
-0.00287076
0.00670912
0.000283795
0.0417628
-0.111971
0.105121
-0.0349129
0.0444736
0.0138006
-0.0584016
0.00012742
-0.00357773
0.00686806
0.00155456
-0.00484489
-0.00136289
0.0605452
-0.0591824
0.0361887
0.00615543
0.0141813
-0.0565254
0.00410378
-0.00723672
0.00259313
-0.181295
0.0267899
0.164245
-0.0097404
0.039094
-0.0109855
-0.0281084
-0.00100157
-0.00165978
-0.00124282
0.00390417
-0.0408396
0.0441492
0.124967
-0.128277
-0.00174256
0.000684088
-0.00212628
0.00318475
0.0899122
-0.00197031
-0.0434683
0.000423037
-0.00115051
0.00205645
-0.00132897
-0.0179712
-0.116036
0.0144852
0.119522
0.00314104
0.0521665
-0.00374876
-0.0515588
0.0490852
-0.0695908
0.0593538
-0.0388482
0.0320592
-0.0368838
0.0495285
-0.0447039
0.00885977
-0.00248268
0.00605779
-0.0124349
0.00160079
-0.044016
0.0538871
-0.0541793
-0.0365916
0.0967635
0.018255
-0.0251488
-0.0898697
0.0473778
0.017395
-0.135365
0.0705924
-0.00141387
-0.00846266
0.00619672
0.00367982
0.0277465
-0.0502909
-0.00323721
0.0286423
-0.0266084
0.00757412
-0.00579484
0.00019978
-0.00197906
-0.0881766
0.00342508
-0.00251857
0.0744496
-0.150808
0.0788769
-0.0265583
-0.0869827
0.041527
0.072014
-0.0714243
0.0205792
0.00290806
0.047937
-0.0436855
0.0291186
0.0109635
-0.0831525
0.0955221
-0.0123696
-0.0213264
-0.00966461
0.117397
-0.086406
-0.00343647
-0.00393809
0.00598713
0.00138742
-0.0260615
0.0599513
0.0412049
-0.0720678
0.0287028
-0.000621678
-0.000391704
-0.00100615
0.00201953
0.0475127
-0.0488688
0.0541074
-0.0377868
-0.00718241
-0.0449046
-0.122924
0.0455488
0.0773747
-0.0433571
-0.032988
0.0278331
0.00303355
-0.00208594
0.00056984
-0.00151745
0.00243778
-0.000267624
0.000863396
-0.0863194
0.00361573
0.0827037
0.0592113
0.0132927
-0.121072
0.0485675
-0.0719958
0.000366204
0.0716296
0.00100686
-0.00156413
0.00813119
-0.00757391
0.0481845
0.154486
-0.221209
0.0185384
0.00163266
-0.0023031
0.0015738
-0.000903355
-0.0920488
0.0669009
0.0239101
0.00123782
-0.0022905
-0.00156647
0.0034048
0.000452166
-0.000901368
0.00839871
-0.00797593
0.000478591
0.00825394
0.00821144
-0.0160288
-0.000436547
0.0408233
0.0103632
0.00291062
-0.00263812
0.00136016
-0.0972608
0.105723
0.00625203
-0.0147142
0.0120758
-0.0667762
-0.0222384
0.0769388
-0.000168184
-0.00164679
0.0882454
-0.0864304
-0.043471
-0.0372834
0.0898484
-0.00909396
-0.0402641
0.0249295
0.0403282
-0.0249936
0.0525927
0.021382
-0.0722009
-0.00177371
-0.00244329
0.000523205
0.00223893
-0.000318848
-0.122944
-0.0425954
0.0391314
0.126408
0.0494037
-0.0383541
-0.0324466
-0.0369699
-0.0320032
0.10142
-0.00191021
0.00421612
0.000199293
-0.0025052
-0.0310748
-0.0801047
0.0275822
0.0835973
-0.029847
-0.0278942
0.0199544
-0.000934302
-0.00306185
-0.00161347
0.00341045
-0.00358126
0.00178428
-0.00566313
0.00569906
0.0241955
-0.0761582
-0.0837908
0.135754
-0.00029267
-0.000342971
0.000402658
0.000232984
0.0552157
-0.0588977
0.04828
-0.0445979
-0.014217
0.0420742
-0.00676252
-0.0210946
0.0865003
-0.0863908
-0.0196221
0.0195125
0.0264169
0.0227575
-0.0630334
0.013859
-0.12769
0.0739579
0.0196253
0.0341072
-0.00504247
0.00267505
8.53766e-05
0.00228204
-0.00762307
0.00917545
-0.000545523
-0.0136682
-0.00362893
0.0187383
-0.00144107
-0.0642579
-0.00363491
0.0153326
0.0525603
-0.00937124
0.104094
-0.00697604
-0.087747
0.00596645
-0.0471746
0.0816347
-0.0404265
-0.00172322
0.00407565
-0.00169334
-0.00065909
-0.0149584
0.000612788
-0.00260011
0.0169458
-0.107185
0.000845549
0.0132577
0.0930816
0.000132042
-0.000202802
0.000470388
-0.000399628
0.0376683
0.00837902
0.0275754
-0.00625426
0.0468119
0.0537803
-0.094338
1.89163e-05
0.000617129
-0.000504003
-0.000572306
0.00213305
-0.00141094
-0.000149804
0.0177271
0.111696
-0.0487372
-0.0806858
-0.000126928
-7.58745e-05
0.000211598
-0.000338526
0.0615703
0.0166956
-0.0918984
0.0136325
-0.1546
0.0844898
0.0768545
-0.00674386
-0.0183987
0.00100188
-0.0515503
0.0689471
0.0249605
-0.0148802
0.0176173
-0.0276976
-0.0657091
-0.0246267
0.0903359
-0.0765393
0.038271
0.0382683
-0.00216276
-0.000262112
-3.80401e-05
0.00246291
-0.0391676
0.0419121
0.00807658
-0.0108211
0.0481
-0.0558122
0.00771225
-0.0602883
0.0341286
0.0454146
-0.0192549
0.00424089
-0.00210014
-0.00199838
-0.000142362
-0.00310357
-0.00258805
0.00064916
-0.0424982
-0.0435499
0.0458239
0.0143734
0.00226933
-0.0624666
0.00170493
-0.000344404
-0.000959313
-0.000401216
-0.00485567
0.0106531
-0.0124799
0.00668252
0.00646866
0.0217547
-0.0397484
0.011525
-0.0197089
-0.0169287
-0.00747992
0.0441175
-0.0739285
-0.00959012
0.0283518
0.0551668
-0.0014836
0.0149161
-0.00854625
-0.00488628
-0.0532666
0.000415552
0.0331421
0.00037835
0.026815
-0.13453
0.126425
-0.0187098
0.0273161
-0.0337016
-0.0512416
-0.0278382
0.0556698
-6.80566e-05
0.0389802
0.00275914
-0.0416712
-0.0585633
-0.0601944
0.118758
-0.00300459
-0.000894685
-0.00178209
0.00568136
0.00317942
-0.00461554
0.00164667
-0.000210549
0.0361949
-0.00556081
-0.0284676
-0.00216652
-0.00319679
-0.00209629
0.0022885
0.00408887
-0.0111003
0.0686991
-0.0616877
0.0756923
9.52064e-05
0.0280271
0.00923329
-0.00644652
-0.0308139
0.057705
0.000751364
-0.0584564
-0.055791
0.114555
-0.0292348
0.0604158
0.0208674
-0.0520485
-0.0147995
-0.0234894
0.015386
0.0229029
0.00339347
0.00357082
0.000765914
-0.00773021
-0.0342825
-0.0387178
0.0991902
-0.02619
0.0428104
-0.034796
-0.000278113
-0.00773625
-0.0532409
0.115193
-0.0487167
-0.0132351
-0.00165649
0.00191534
-0.000205004
-5.38433e-05
-0.00096395
0.0213806
-0.00366526
-0.0167514
0.00267846
0.00365808
0.000224063
-0.00656061
-0.000270056
-5.40557e-05
-1.78126e-05
0.000341925
2.26001e-05
5.95588e-05
-0.000352215
-0.00893783
0.0232074
0.0695885
-0.083858
0.0807417
-0.0816214
0.000879685
0.000310915
-0.00035296
4.2045e-05
-0.012988
0.00100816
0.00220746
-0.00143796
-0.00177767
-0.00967302
-0.00735556
0.00501285
0.0120157
-0.0557679
0.0265331
0.000255553
0.000328464
-0.000812298
0.000228281
0.0335546
0.0552385
-0.0355613
-0.0532318
0.0150217
0.15439
-0.179741
0.0103303
0.0584434
0.0651184
-0.063146
0.00198517
-0.0129887
-0.00155395
0.0125574
-0.0321616
-0.0294641
0.0616257
0.0322298
-0.0643914
-0.0536677
-0.0444739
-0.0664381
0.16458
0.0507108
-0.0564119
0.00570114
-0.0729348
0.13355
-0.0712217
0.0329556
-0.0300718
0.0867557
-0.00323348
-0.0693746
-0.0141476
0.0697394
-0.0699575
0.0106061
-0.010388
-0.000310138
-0.00586173
0.00747639
-0.00130452
0.00247237
-0.00568978
0.00572823
-0.00251082
-0.000148661
6.65294e-06
0.000832846
-0.000690838
0.0218727
0.022261
-0.0333338
-0.0107999
-0.0051532
-0.00539067
0.00607711
0.00446677
-0.0105616
0.0329256
-0.0442487
0.0218848
0.000784283
-0.00830802
0.0110389
-0.00351513
0.0497836
-0.0048364
-0.0449472
0.0398951
0.0354572
-0.126529
0.0511771
-0.0994951
0.0614925
0.0778977
0.0331364
-0.100402
-0.0458676
0.108614
-0.0399705
-0.0227759
0.00194518
0.0088852
-0.0124439
0.00161351
0.0277824
-0.00374103
-0.0240414
-0.029714
0.0453389
-0.00390116
0.0196098
-0.031594
0.00135869
1.64711e-05
0.00078298
-0.00215815
0.0117818
-0.0383902
-0.0012119
0.000195318
-0.000200931
0.00121751
0.00266068
-0.000207687
0.000883786
-0.00333677
-0.000209509
-0.00233739
-0.077058
-0.0146748
0.00167703
-0.0107252
0.0237231
0.0194409
-0.0893577
0.0220037
0.0479131
-0.00285141
0.0573174
-0.0823691
0.0279031
0.000919289
-0.000831899
0.00170303
-0.00179042
0.0788074
0.0131504
0.00164406
-0.0936019
-0.00104542
-0.000809897
0.00210474
-0.000249416
0.00233306
0.00154433
-0.0681387
0.0642613
0.00626512
-0.00106057
-0.00455669
-0.000647863
0.00607815
0.00439518
-0.00343866
-0.00703466
-0.111225
0.0975081
-0.0880356
0.101753
-0.0556756
0.109708
-0.0540323
0.00353243
-0.0457417
0.0091185
0.0330908
0.0034774
-0.00385968
0.000995848
-0.000613565
0.0476161
-0.0017797
0.000803075
-0.130118
0.00153853
0.072788
-0.0333848
-0.000375739
0.00120087
0.0299055
-0.0242312
-0.00687516
0.077526
-0.0293431
0.0334341
0.00382104
-0.00477006
0.000127386
0.000821633
0.0339388
0.0231269
-0.0743896
0.0173238
-0.000877457
0.000394798
0.000827435
-0.000344776
-0.00043036
0.00139722
0.00511129
0.000554021
-0.00755105
0.00609586
0.00527622
0.076108
0.0408311
-0.0373629
-0.0795762
-0.132956
0.142463
-0.0087318
-0.000774605
0.0308404
-0.0310211
0.00018073
-0.0361021
0.000323009
0.00026639
-0.00300113
-0.00203532
0.0144755
0.207376
-0.157357
-0.0644947
0.0294447
-0.06101
-0.0183226
0.049888
-0.00288948
0.0385089
-0.000258462
-0.0857444
0.0474939
-0.0218671
0.00889188
-0.0376375
0.0471933
0.0466219
-0.0561776
-0.0667405
0.0887083
-0.151075
0.129107
-0.000102912
0.000164522
-0.00147202
0.00141041
0.000264388
0.00217517
-0.000763261
-0.0016763
0.0454142
-0.0165171
0.0404649
-0.069362
-0.00353068
0.000427395
0.00316801
-6.47266e-05
-0.012057
0.0108949
-0.0364754
0.0117924
-0.0451351
0.00575856
-0.00290565
0.0178229
-0.0206758
-0.131465
0.0150777
0.125482
-0.00909485
0.0395615
-0.0260478
-0.0196524
0.00613882
0.0353024
-0.0542655
0.00690602
0.00442158
0.00762177
0.0513221
-0.0633655
0.0245896
-0.00752878
-0.0254534
0.00839261
-0.080468
-0.00777706
0.0154307
0.00120391
-0.00092479
-1.47275e-05
-0.000140359
0.00608928
0.00135141
-0.00730033
0.0177344
-0.0321787
0.0390339
0.0163094
-0.141681
-0.0240266
0.149398
-0.111721
-0.015389
0.0260627
0.101048
0.0576827
-0.0346687
0.029166
-0.0521801
0.109057
-0.00649643
0.0045265
-0.107087
-0.0179004
-0.0376494
-0.00394881
-0.0154638
0.007438
0.0119746
-0.0012954
0.000475247
0.000118911
0.000701241
0.0145279
-0.07683
0.0623022
0.104822
-0.00697966
-0.112325
-0.0268758
0.0561602
-0.0471848
0.0400435
-0.122263
0.0130197
0.0691998
-0.00461158
-0.0119577
-0.0275645
0.0441338
0.0032637
0.0488669
0.0801687
-0.128871
-0.000164167
0.0495527
-0.0833092
0.0899795
-0.0562231
-0.0969509
0.0946521
-0.00630968
0.0086084
0.00175035
0.00284107
-0.0942704
0.089679
-0.00143045
0.0036029
0.00587484
-0.0080473
0.000107167
-0.000836513
-0.000210636
0.000939983
0.087918
0.00232259
-0.0193126
-0.070928
-0.000480767
0.000594622
-0.00043234
0.000318485
0.00080212
0.00317061
-0.00214452
-0.00182821
-0.001796