/*--------------------------------*- C++ -*----------------------------------*\
| =========                 |                                                 |
| \\      /  F ield         | OpenFOAM: The Open Source CFD Toolbox           |
|  \\    /   O peration     | Version:  2506                                  |
|   \\  /    A nd           | Website:  www.openfoam.com                      |
|    \\/     M anipulation  |                                                 |
\*---------------------------------------------------------------------------*/
FoamFile
{
    version     2.0;
    format      ascii;
    arch        "LSB;label=32;scalar=64";
    class       volVectorField;
    location    "0.01535";
    object      U;
}
// * * * * * * * * * * * * * * * * * * * * * * * * * * * * * * * * * * * * * //

dimensions      [0 1 -1 0 0 0 0];

internalField   nonuniform List<vector> 
47425
(
(10.0927 -0.0480409 0.0748348)
(10.1171 -0.026298 -0.52457)
(9.94372 0.0363961 0.138344)
(10.9692 -0.350543 -0.220108)
(11.6787 0.378976 0.713207)
(10.1371 0.00835868 0.0407205)
(11.5673 0.253702 0.623684)
(10.0763 -0.00813832 0.00816421)
(10.1621 -0.0573364 -0.0477004)
(5.99995 6.4559 -0.927952)
(10.037 -0.0493064 -0.0108651)
(10.4017 0.110987 0.0201845)
(11.4216 0.291933 0.230327)
(9.98739 0.0721871 -0.0316111)
(10.1224 0.307119 -0.140782)
(9.53016 -0.190175 0.14702)
(9.96618 0.100295 0.0107422)
(8.69048 -0.479077 -1.12727)
(8.56554 0.785873 -4.42475)
(12.7961 -0.35536 -0.655251)
(10.5418 -0.505368 -0.496507)
(9.72364 0.0684355 -0.0700387)
(10.1299 0.0509801 0.0689227)
(10.0573 -0.0644626 0.0204155)
(10.0434 -0.136429 0.118873)
(10.0992 -0.0460275 0.00174886)
(9.99678 -0.0804332 0.0161032)
(11.2933 -0.225012 -7.85514)
(9.94288 -0.0605757 0.0263107)
(10.0493 -0.00782635 0.000381958)
(9.69214 0.351849 0.243005)
(10.0058 -0.051273 0.189352)
(10.0316 -0.207186 -0.0785676)
(9.87652 0.161894 0.102051)
(10.0084 -0.269704 0.0740029)
(10.2626 0.0407996 -0.0262478)
(9.74683 -0.0240988 -0.0292418)
(9.71591 0.32976 -0.186678)
(10.4128 0.12941 -0.143175)
(10.0368 0.127271 -0.0110845)
(9.79858 -0.104428 0.0942188)
(9.58474 0.0814106 -0.0857335)
(9.41879 -0.306861 0.330914)
(10.076 0.138944 0.0556698)
(1.42917 -1.6266 -0.598756)
(10.2314 -0.0342246 0.214223)
(9.98392 0.0817711 -0.0366114)
(10.0571 0.109558 -0.0926096)
(10.1253 -0.18074 0.138125)
(9.99337 -0.156158 -0.0994446)
(1.96362 -0.47841 -5.18824)
(9.65365 0.624684 0.715708)
(10.1155 0.0929898 -2.63851e-06)
(7.71963 -6.09562 2.02356)
(10.0269 -0.0252408 0.167226)
(10.3973 0.10813 -0.232429)
(10.0942 -0.0843353 -0.250641)
(9.94227 0.129599 -0.154828)
(12.7072 0.408653 0.204745)
(10.0215 0.0594848 -0.174549)
(6.5095 -5.98387 1.30164)
(6.19425 0.825261 1.79911)
(6.96413 -7.47871 1.26625)
(9.12616 -0.975836 0.237223)
(9.95465 0.0124388 0.136852)
(10.4708 -0.185291 0.0966996)
(9.9222 0.0401796 0.00249254)
(10.2925 0.189216 0.387862)
(8.77581 -6.63253 2.81988)
(9.12968 0.491802 0.594039)
(10.6844 -0.251422 0.222972)
(10.0516 0.142537 -0.055394)
(10.5581 0.0558349 0.0660476)
(10.4571 0.192719 -0.473796)
(7.8642 6.0286 1.14709)
(9.83323 -0.126617 0.203944)
(7.42643 -7.52667 2.03474)
(10.0458 0.105833 -0.0645438)
(8.31243 -5.8766 2.83368)
(11.2096 0.191986 1.64588)
(8.3701 5.65198 1.34115)
(10.2383 0.199595 0.0472136)
(9.39325 0.0772745 -0.0845466)
(9.98474 0.301244 0.269434)
(9.72662 0.181537 -0.174338)
(9.87826 -0.00128842 0.00707365)
(10.2799 0.0059443 -0.0260745)
(10.1599 0.132216 -0.0815483)
(9.82732 0.785843 -0.809632)
(10.692 -0.179427 2.40456)
(9.65387 0.324769 0.0321983)
(10.4321 -0.259626 -0.171566)
(10.0408 -0.0462495 0.224474)
(9.98399 -0.226865 -0.126744)
(9.75205 -0.170532 -0.0820908)
(10.2015 -0.110394 -0.11527)
(10.04 -0.0202086 -0.0649514)
(10.092 -0.303651 -0.186493)
(10.0358 -0.0472571 0.292575)
(9.85225 0.528152 0.419386)
(10.1856 0.159956 -0.0657429)
(8.74578 0.100635 -3.41702)
(10.3381 0.096589 0.049456)
(5.47353 1.67717 -0.218519)
(10.3487 0.120847 0.136582)
(10.0339 -0.334142 0.0924856)
(9.94663 0.0242772 -0.111545)
(9.87291 -0.0883036 0.0781796)
(10.0582 -0.00117789 -0.0165108)
(9.98005 0.239468 0.0454138)
(-0.495244 -1.32962 -1.40335)
(10.1119 0.0464538 0.004637)
(10.0339 -0.443491 0.13233)
(10.0913 -0.0080622 0.077158)
(10.3368 -0.351689 0.129473)
(1.83512 -3.90799 -5.15753)
(10.3331 -0.339444 0.0992417)
(4.18227 0.147619 -3.6007)
(10.3575 0.0806723 0.31071)
(10.4713 0.294564 0.365165)
(10.0874 0.13471 -0.0810608)
(9.93145 -0.183441 -0.0015822)
(10.0272 -0.0436476 0.132558)
(11.3339 0.687152 -0.380783)
(10.0659 0.212477 0.0327523)
(10.1437 -0.537245 0.179158)
(10.0249 0.0227871 0.174705)
(9.85519 -0.0457974 0.0819439)
(9.88798 -0.149495 -0.368655)
(10.0866 -0.041135 0.120996)
(9.59311 -0.0556912 0.433088)
(9.8868 0.12983 -0.0896567)
(4.60002 0.134913 1.36276)
(10.386 -0.0941831 0.174747)
(9.76528 -0.20519 0.0291135)
(11.474 -0.42412 -0.688788)
(10.7564 0.340462 0.267416)
(10.1863 -0.547386 0.260443)
(10.0402 0.0771118 0.183314)
(10.4549 0.200888 -0.166786)
(10.3754 -0.135262 -0.0530476)
(11.4427 -0.159194 -0.159051)
(10.4017 0.00683737 -0.0506)
(10.0088 -0.685553 0.236722)
(10.0437 0.165556 -0.187277)
(10.0549 -0.0664371 -0.0134504)
(11.5115 0.0551375 0.988958)
(10.2122 0.0992968 -0.0239937)
(10.2303 0.00949388 0.0726919)
(10.0775 0.0156654 -0.109837)
(9.96389 -0.651861 0.150992)
(2.97527 -0.281266 -6.05491)
(10.1648 0.145672 0.211429)
(5.84496 0.153267 -10.7433)
(8.94798 -0.974821 -0.376034)
(9.97496 0.0464006 0.00634237)
(10.7239 0.206921 -1.4327)
(7.40228 -3.49835 -2.2183)
(9.94642 -0.210783 -0.705897)
(10.0664 -0.202461 0.150852)
(10.5258 -0.395834 0.161176)
(10.0615 0.0689131 -0.223031)
(9.99475 -0.0587257 -0.144074)
(9.77769 0.319444 0.0224131)
(12.0489 0.114976 -0.0095616)
(1.87418 -1.80655 -1.91815)
(10.0458 -0.000984755 -0.0834085)
(8.32908 5.81322 1.20669)
(10.0792 -0.29696 -0.141704)
(11.9961 0.427612 -3.55873)
(9.26707 5.29911 0.972917)
(10.1126 0.180548 0.0060747)
(10.1877 0.141096 0.0353851)
(9.35074 -0.779218 -0.31038)
(10.5673 0.19561 -0.27971)
(9.40083 -2.69224 -0.849961)
(2.8077 0.847443 -6.88707)
(10.0111 -0.0639204 -0.0251059)
(10.0553 0.0276886 0.0211032)
(10.1121 -0.0879803 -0.0511965)
(2.58382 0.363477 -10.2948)
(10.0036 -0.0277885 -0.034699)
(9.92449 -0.0594306 0.0269209)
(9.61991 -0.309179 0.0253492)
(10.0261 -0.0315599 -0.0510496)
(10.0042 -0.0272625 -0.211843)
(10.175 -0.326951 0.115134)
(5.66689 -0.328323 -0.0171001)
(9.97755 -0.0644077 0.0900595)
(10.0301 0.0204505 -0.0748889)
(10.0344 -0.0817726 0.124442)
(9.95853 -0.186547 0.0758467)
(10.9781 0.676596 -1.10195)
(10.0368 0.149164 -0.0329833)
(9.87537 -0.0875364 -0.0582644)
(10.5893 -0.22142 0.0416261)
(10.138 0.0452726 -0.15579)
(10.0702 0.0212055 0.0762258)
(10.6841 -0.267914 0.141723)
(10.0741 -0.0910584 -0.0167382)
(10.1006 0.147547 -0.123363)
(9.99251 -0.156259 0.0430941)
(10.0862 0.0474617 0.00632034)
(10.4883 -0.284415 0.0212791)
(10.1917 -1.19779 -0.643294)
(10.3078 -0.0833508 0.125877)
(9.86603 -0.0460378 0.264501)
(10.518 -0.20701 0.0244143)
(9.97234 0.185201 -0.143362)
(9.63636 0.314671 -0.0486217)
(10.1213 -0.0167746 -0.266408)
(10.6339 -0.0143526 0.0664683)
(10.0832 0.243141 0.020314)
(10.0593 -0.19513 -0.068698)
(10.2062 0.0882618 -0.0339473)
(10.6633 -0.340793 -0.128288)
(10.3799 0.111004 -0.0243213)
(10.8657 0.0710954 1.12918)
(8.73137 -1.07634 -0.287476)
(10.0524 -0.23103 -0.130206)
(11.1138 -0.253077 2.0807)
(10.5133 0.157319 0.151968)
(9.71135 -0.519853 -0.0897686)
(10.4786 -0.173444 -0.0788917)
(10.2151 0.0294965 0.22756)
(11.0936 -0.471761 2.01105)
(9.96466 -0.0120772 0.0595061)
(10.5549 -0.270956 -0.133216)
(10.6866 0.49735 0.302366)
(11.0119 0.900447 -0.178088)
(10.3878 0.0264491 -0.0572239)
(10.0984 0.0255201 0.0967733)
(10.0399 0.00597765 -0.0522197)
(9.99659 0.0407969 0.081245)
(10.2164 0.214128 0.00578645)
(10.0792 0.123811 -0.0111057)
(11.1335 0.316813 1.74583)
(9.92782 0.0583375 -0.0476072)
(11.3306 0.284172 1.59385)
(10.351 0.0834581 -0.18369)
(9.86882 0.0462255 0.162983)
(9.733 -0.172583 -0.0453662)
(9.92302 0.0412477 0.0380735)
(11.1945 -0.0787844 -0.190524)
(10.3367 0.25925 -0.0621944)
(9.71978 -0.0258711 0.194015)
(10.2195 -0.111194 0.16629)
(9.32911 0.441673 -0.187264)
(9.94987 -0.0584502 -0.0408005)
(9.92624 5.10445e-05 0.0378721)
(9.83051 -0.294353 0.117727)
(11.0823 -0.0883706 1.68547)
(9.99528 -0.103806 0.0384559)
(9.95623 -0.22551 -0.0583653)
(9.74239 -0.0135832 -0.0237409)
(10.0364 0.0710317 -0.0495051)
(9.90497 -0.254935 0.078291)
(10.4307 -0.0258679 -0.109156)
(10.5443 -0.158135 0.0842297)
(10.1202 0.0457762 0.00682663)
(10.3579 -0.139727 -0.458023)
(9.95153 -0.0924354 0.123438)
(10.0425 0.144928 0.00821697)
(10.3715 -0.145714 -0.0248172)
(11.029 0.0558151 0.555628)
(9.74395 -0.181846 0.077949)
(9.93652 -0.0905928 0.07415)
(11.0909 0.0740517 0.456862)
(9.87134 0.131785 0.217839)
(10.1981 0.13215 0.0338106)
(9.86001 0.116045 0.0199701)
(11.3733 0.382737 1.30251)
(11.0631 0.417659 1.45763)
(10.1249 -0.355494 -0.120944)
(11.2219 0.158158 1.50061)
(10.4346 -0.0696329 -0.0389949)
(11.2867 0.270514 1.39295)
(7.26823 3.01449 2.73483)
(11.0247 0.341804 1.48565)
(5.85995 0.998956 -4.55669)
(5.96625 -5.85729 0.910434)
(9.99555 -0.0840116 0.0672519)
(5.61338 -5.90889 0.110295)
(9.85571 0.231048 -0.184701)
(9.86624 0.0697526 0.0308306)
(10.6929 -0.0965185 0.0655777)
(9.97024 0.266166 0.118282)
(9.82706 0.00703619 0.0654387)
(9.54292 0.280282 0.331335)
(10.2593 -0.424316 0.0825317)
(1.35466 1.49475 -2.95101)
(9.35728 0.635746 0.134577)
(10.0063 -0.0147657 -0.00683286)
(9.85087 0.00427458 -0.0235562)
(9.894 -0.0677731 0.196188)
(10.9155 0.0565645 0.371188)
(11.3691 -0.00804491 -0.225459)
(10.3074 -0.32522 0.158477)
(9.97476 0.00454805 0.0182232)
(11.1623 0.106976 0.427591)
(10.0172 0.1215 -0.247891)
(10.1247 -0.260712 -0.00608192)
(10.0092 -0.363829 0.0343145)
(9.95767 -0.179578 0.172174)
(13.8242 2.86338 0.611183)
(9.06771 0.497346 0.772469)
(1.53525 0.94164 -5.64888)
(9.89111 -0.0237971 0.142124)
(10.0708 0.125682 0.010641)
(9.99518 -0.524217 0.0564643)
(9.90988 -0.332387 -0.036756)
(1.13877 -0.470504 -5.08141)
(10.1297 -0.00756577 0.0109046)
(10.1139 -0.0694503 0.0193539)
(10.2682 2.41596 1.50172)
(9.97798 0.00551386 -0.092827)
(10.0146 0.0014509 0.0644682)
(9.85142 0.161997 0.0827424)
(9.74542 0.222392 0.131015)
(13.7728 0.365593 0.219066)
(10.4633 2.17292 1.44913)
(10.1337 0.0862078 0.187299)
(10.2864 0.371126 -0.113081)
(9.99999 0.1929 -0.137814)
(9.74199 0.167583 -0.415775)
(10.0425 0.1098 -0.0497643)
(10.1324 -0.0810298 0.201457)
(10.0325 0.0835402 -0.306281)
(9.94677 0.0140439 -0.0962558)
(10.0167 0.103881 0.0408447)
(10.7831 -0.0577754 0.343086)
(12.7248 -2.9942 1.58265)
(10.2714 -0.608612 -1.03472)
(9.99088 0.0639925 0.09098)
(10.0633 0.0110352 -0.235495)
(9.71887 0.0672624 -0.0749902)
(13.1063 -2.42753 1.80181)
(10.0329 -0.159209 -0.189446)
(10.0696 0.0198497 -0.0302822)
(10.0411 -0.212552 -0.0474358)
(9.99638 0.0895926 -0.0728273)
(9.98361 0.0179941 -0.0824636)
(10.0984 -0.117013 0.0102172)
(9.76766 0.0261585 0.0949801)
(10.1024 -0.0874612 0.281877)
(9.60676 -0.205928 -0.0797878)
(9.89551 0.199428 -0.146867)
(9.76622 0.297327 -0.0698013)
(10.0897 0.149794 0.117253)
(9.94299 0.0560739 0.226528)
(9.99513 -0.0046116 -0.0959293)
(10.3053 -0.493462 0.14207)
(10.0636 0.129469 -0.00734109)
(9.6568 -0.15105 0.029936)
(9.87408 -0.0198128 0.17486)
(11.0631 -0.689535 0.0869679)
(10.2608 -0.0700589 0.0317571)
(9.49675 0.221374 0.19194)
(9.9423 -0.211239 0.100833)
(10.2862 0.202887 0.0193148)
(10.7245 0.0914515 2.01624)
(10.4714 -0.576385 -0.331114)
(10.0372 -0.27252 -0.0389127)
(10.0585 0.196083 -0.0874572)
(10.236 -0.0424817 0.182589)
(10.0666 0.22749 0.0869553)
(10.1672 -0.0350069 -0.134017)
(10.0667 0.0928043 0.0958121)
(10.0498 0.0239362 -0.0642226)
(10.2244 0.517877 -0.018047)
(10.199 -0.0681897 -0.189452)
(1.31622 -2.83741 -1.3963)
(10.3537 -0.132914 0.0396859)
(10.0454 0.627605 0.0769094)
(10.0199 -0.0721514 -0.00923843)
(10.0501 0.540468 0.0775841)
(9.75004 -0.184498 -0.052143)
(10.0355 -0.12215 0.0223971)
(9.89325 0.118039 -0.121085)
(9.79347 -0.032393 -0.0199929)
(9.96338 0.146505 -0.154238)
(10.0771 0.624999 0.026398)
(10.3611 -0.0477528 -0.00157603)
(10.3288 0.0865165 0.0415282)
(9.83267 0.0397687 0.0486315)
(10.2089 0.1007 0.0573492)
(10.1918 -0.0982593 -0.132711)
(10.1881 0.228756 0.0258749)
(10.2405 -0.103762 -0.142195)
(10.1217 -0.125659 -0.0626455)
(10.2084 0.800341 -0.152749)
(10.1659 0.961251 -0.204426)
(10.2657 -0.00512837 0.035695)
(10.3835 0.0107787 0.178993)
(10.1267 -0.0919974 -0.1754)
(10.1557 0.750405 -0.134265)
(10.2175 0.0306087 0.0110007)
(10.0528 -0.0435348 -0.139252)
(11.3397 -0.712592 -0.633129)
(9.88342 0.0166915 0.00435458)
(10.2864 -0.718008 1.8081)
(10.1181 -0.0660846 0.0183557)
(10.599 -1.90702 -3.62335)
(9.90739 -0.0456316 -0.123349)
(10.5728 0.102167 0.151733)
(9.9014 0.345703 -0.354064)
(9.9281 0.04477 -0.069875)
(9.86302 -0.0458358 0.0609288)
(10.1134 -0.012013 -0.0510361)
(10.2375 0.117494 -0.052941)
(10.1545 0.863478 -0.136739)
(3.31648 -2.10857 0.792781)
(2.44585 -0.426615 -2.00739)
(10.2162 0.172129 0.216547)
(10.1351 1.33986 -0.654171)
(10.4916 0.556851 -0.31295)
(10.5905 0.517646 -0.263198)
(9.98832 -0.133112 0.0915461)
(9.90455 0.0809973 0.159334)
(10.0963 0.0764629 -0.0691239)
(9.92557 0.0200148 -0.0424322)
(9.9625 -0.0808036 -0.0321484)
(10.0161 0.0619241 -0.121775)
(10.571 0.516607 -0.204832)
(10.0593 -0.0960672 -0.0556253)
(9.92152 -0.0320922 -0.174633)
(10.3812 -1.18031 0.519024)
(11.0483 0.477784 -0.040327)
(10.7538 0.360234 0.127523)
(8.0477 -1.14155 -4.54001)
(0.14175 5.22318 -0.138492)
(10.1019 -0.190683 -0.0110143)
(7.39216 -0.797178 -5.0161)
(0.409188 4.50877 0.22168)
(9.63869 0.134368 0.0875184)
(-0.0105039 5.42195 0.0255485)
(9.12785 -1.67415 1.67543)
(9.93466 -0.210721 -7.8189e-05)
(10.7246 0.579131 -0.210533)
(10.6771 0.605209 -0.245607)
(10.909 0.529653 -0.117529)
(-0.644928 5.04948 -0.0411351)
(10.1174 0.0883702 0.01464)
(10.0752 -0.142607 -0.0562792)
(10.0391 0.0138085 0.104492)
(10.9882 0.583939 -0.189006)
(10.8884 0.605068 -0.258569)
(10.1046 0.0692694 0.0367354)
(9.97724 0.0598663 0.0148319)
(9.81168 3.53655 2.99762)
(-0.804835 4.17614 -0.727996)
(12.4894 -0.306972 -2.47257)
(10.1287 -0.00791019 -0.024445)
(8.75564 -0.564769 -2.81631)
(10.2077 0.339868 0.634404)
(10.2139 -0.193123 0.0667802)
(10.5977 0.254839 0.0700047)
(11.2679 0.247999 0.276868)
(10.5946 0.211541 -0.00503612)
(10.2776 -0.00461903 -0.00963828)
(10.0378 -0.00467199 -0.03116)
(9.95392 0.107364 -0.0877494)
(10.3739 0.199794 -0.131458)
(9.96 -0.0249534 0.0136791)
(9.99154 -0.154821 0.106441)
(10.0204 0.101237 0.146032)
(9.95254 0.33113 -0.0363621)
(10.6891 0.0123232 0.0721207)
(9.99291 -0.0858588 0.0570615)
(10.0782 0.0414568 -0.208144)
(10.1935 0.0653149 -0.0343343)
(10.0332 -0.0307876 -0.115603)
(9.74842 -0.185391 0.1733)
(10.2878 0.154867 -0.0647476)
(10.292 -0.0928019 -0.0453848)
(9.82331 0.0350143 -0.123562)
(10.6569 0.0730053 0.0211451)
(9.36872 4.30159 2.43603)
(9.85928 -0.138676 0.0145367)
(11.575 1.43987 -0.923948)
(10.0599 0.0562028 -0.12283)
(10.3925 -0.177411 0.0577436)
(9.47684 -0.173551 1.44372)
(9.66783 1.25952 -0.42797)
(10.0178 -0.0341688 -0.0114908)
(9.76416 1.30729 -0.481726)
(10.185 -0.0123161 -0.260114)
(9.76518 -0.122819 0.0590799)
(9.89024 1.20745 -0.754863)
(10.0737 0.324924 -0.586396)
(10.1605 -0.251176 0.0168343)
(9.78869 1.07462 -0.49993)
(10.2448 -0.0392861 -0.0472729)
(10.4527 0.00320947 -0.195196)
(8.23472 0.190288 -3.53967)
(10.0581 0.0264445 0.0390944)
(9.65577 1.64501 -0.379542)
(9.82371 -0.180025 0.00431608)
(9.05937 1.84994 -0.734965)
(10.1037 -0.213319 0.00631997)
(9.90734 -0.131579 0.0331436)
(9.94411 0.159649 -0.011454)
(10.1579 0.0312163 0.0541013)
(10.9927 0.365196 0.56678)
(9.88789 0.11676 -0.0233514)
(10.0649 0.0252443 -0.0272338)
(9.93211 -0.0370615 0.00302729)
(10.1448 0.123782 0.0127773)
(10.7724 0.157454 0.121662)
(10.1105 -0.0155931 0.094741)
(9.99704 -0.0105144 0.0482619)
(8.82301 0.221279 -0.312457)
(10.1371 0.008312 -0.012917)
(9.94469 0.0795327 0.0320548)
(9.87487 0.00903514 -0.0856498)
(9.84215 0.0919556 -0.0866017)
(10.1151 0.0219997 0.165184)
(9.98006 0.0817145 -0.0531656)
(10.0198 0.0438807 -0.227486)
(10.1353 1.23328 -0.862021)
(10.1956 -0.0581457 -0.00885604)
(9.78946 -0.0222813 -0.243724)
(2.95734 -0.261908 -5.06792)
(9.96193 0.0302919 -0.120081)
(10.0574 -0.081306 -0.0298087)
(9.9923 -0.122566 0.0839504)
(10.1267 -0.00255973 0.0296443)
(12.2441 0.707162 0.328589)
(12.2976 0.326431 0.643588)
(10.0095 0.114583 0.346197)
(9.8069 0.115917 -0.0273573)
(10.195 -0.0784148 -0.319039)
(10.7525 0.05441 0.830092)
(9.86276 -0.112678 0.0529391)
(12.3119 1.13585 0.265529)
(9.85575 -0.337166 0.0914591)
(-0.864137 -1.32533 3.46763)
(8.07518 -0.29707 -0.420162)
(9.85214 -0.591172 2.09324)
(9.75478 0.0911274 -0.159483)
(12.2311 1.00282 0.338972)
(9.99045 -0.0393089 -0.0278724)
(10.0421 0.0794774 0.104132)
(10.1323 0.112516 -0.0517572)
(10.144 0.00848319 0.171713)
(10.033 -0.0722972 0.00112803)
(9.94828 -0.087814 -0.152159)
(10.1847 0.745369 0.970497)
(9.97463 -0.00692499 0.102157)
(10.2058 0.231494 -0.13769)
(10.1207 0.125349 -0.0736524)
(12.1989 0.625742 0.30678)
(10.1016 -0.0623121 0.0471536)
(9.93462 -0.0716874 -0.0107065)
(12.0426 0.770944 0.183563)
(11.8005 0.0752515 0.382523)
(10.0419 -0.0260881 -0.14031)
(9.97404 -0.00246863 -0.0752674)
(-0.219764 1.47586 1.07882)
(9.73481 0.0347137 0.0519216)
(10.1563 -0.219197 0.0689237)
(10.0507 0.146156 0.0783268)
(9.98992 0.00569397 0.139501)
(10.1185 -0.0237914 -0.0030955)
(11.5762 0.263801 0.10956)
(10.6495 0.0848439 0.928122)
(9.60977 0.468456 1.00639)
(10.1179 -0.0713158 -0.121417)
(10.0701 0.136223 -0.0306153)
(9.89214 -0.168418 0.07238)
(12.322 -0.0483741 1.33022)
(9.43062 0.162514 -0.229559)
(10.0125 -0.119316 0.254748)
(-0.288302 1.10165 0.991189)
(10.1927 0.0293229 0.0534228)
(10.1215 -0.0070844 -0.0197901)
(-1.06799 1.17122 1.2707)
(11.8542 1.83386 -0.821393)
(9.87108 0.0617747 0.102106)
(0.101141 1.06409 0.448164)
(-0.0940262 1.45741 0.926818)
(9.98299 0.014323 0.0355558)
(10.0097 0.301176 0.229791)
(9.97834 -0.0542481 -0.128083)
(9.71457 -0.198186 0.221184)
(10.1998 -0.254128 0.0676541)
(9.77122 -0.123425 0.131186)
(12.3769 3.72489 0.904099)
(10.1784 0.253781 0.119304)
(10.1606 0.210637 0.00487914)
(10.093 0.0431587 -0.109489)
(12.0931 -0.238002 0.384994)
(11.5508 0.598852 0.0920648)
(10.3649 -0.3174 -0.229605)
(10.2646 0.148702 0.030975)
(-2.59833 -2.50651 -0.306908)
(6.3582 -1.12056 -2.60134)
(10.6427 0.176859 -0.064889)
(10.0262 -0.0918241 0.156187)
(10.0643 -0.181422 -0.000371431)
(10.7669 -0.119978 -0.519698)
(10.0786 -0.117176 -0.265356)
(9.99477 0.060368 -0.32156)
(10.1433 -0.216765 0.0312534)
(10.2628 -0.00397605 0.21956)
(10.1174 0.0527477 -0.169546)
(10.3278 0.23378 0.131157)
(10.2613 -0.0941129 0.247317)
(12.3408 0.711035 -0.3068)
(10.1078 1.4048 -0.902009)
(10.5389 0.187986 -0.0776896)
(12.419 0.880592 -0.578028)
(10.6183 -0.0155693 -0.0327874)
(9.85645 0.106807 0.173485)
(10.6053 0.629009 0.140985)
(10.1392 0.134579 -0.014896)
(10.1573 0.208641 0.269682)
(10.16 0.0303062 -0.0993565)
(10.157 0.596595 -0.261435)
(8.04911 -0.520698 -0.970959)
(10.0892 -0.0955643 0.0506087)
(10.4206 0.170133 0.0405238)
(9.96305 -0.116508 0.118812)
(14.1289 -4.9323 -1.43974)
(10.6842 -0.371509 0.699836)
(10.9347 0.0292032 0.670486)
(6.54389 1.25417 0.552548)
(6.29144 1.24542 0.404131)
(10.0328 0.145632 0.0254693)
(9.96506 0.2386 0.405777)
(5.10832 1.0111 -0.195885)
(9.98526 -0.0715825 0.00141149)
(9.88277 -1.56732 -2.98234)
(10.2705 0.320541 1.20376)
(9.79809 -0.133424 -0.327767)
(10.1227 1.35988 1.21907)
(9.99673 0.0392437 -0.0257223)
(9.96093 0.122808 -0.0137191)
(10.1409 -0.109302 0.12191)
(12.6071 0.283466 0.115123)
(9.69798 -0.0286894 0.34211)
(9.88768 -0.35277 0.0462717)
(10.0343 -0.0517132 0.00453328)
(10.1283 0.381684 0.133007)
(9.93122 0.0451561 0.0520798)
(9.98779 0.0202836 0.0431667)
(10.0966 0.0765617 -0.00113397)
(9.8735 0.0879535 0.0516547)
(11.1964 0.348922 0.43071)
(9.82918 2.28088 -3.25071)
(14.4223 1.54055 -0.122482)
(10.5098 0.195751 -0.0360861)
(10.0609 0.999795 1.35376)
(10.3069 0.0485033 0.0803767)
(9.39425 -0.759749 0.271179)
(10.2253 -0.146337 -0.0396097)
(10.0355 0.343807 0.107294)
(10.2087 0.0754425 0.0645396)
(10.1062 -0.00607592 -0.0343175)
(9.99944 0.0213171 0.266321)
(9.22509 0.271229 -0.698721)
(11.2923 0.128699 0.172879)
(10.2091 -0.0546006 0.103668)
(10.2802 -0.228068 0.0809598)
(12.0139 0.768521 1.39031)
(9.94027 0.0194954 0.0639687)
(7.4088 -4.8328 2.87605)
(12.6724 -0.847434 -2.32827)
(9.79126 -0.0583094 0.0472092)
(9.58097 -0.271798 0.255754)
(10.4355 -0.273511 0.313222)
(10.0782 0.081123 -0.0395388)
(8.13396 -2.39257 2.77535)
(9.99218 -0.147411 0.0190958)
(9.94139 -5.53229 1.08647)
(10.1202 0.181941 0.0592136)
(10.914 -0.0150488 0.793717)
(11.3947 0.388755 0.0789378)
(10.0398 -0.0466236 -0.0809109)
(9.89731 0.122515 -0.0892605)
(10.4766 0.22174 -0.197281)
(8.70438 -0.496311 -1.79918)
(9.5861 0.0162382 -0.148873)
(10.0761 0.234726 0.283773)
(10.1826 -0.0232256 0.152773)
(11.3815 -0.0232927 0.668484)
(9.94459 -0.0512477 -0.000761844)
(11.5334 0.355716 0.367654)
(10.2556 -0.034938 0.0694223)
(5.19406 4.68903 1.68894)
(11.3278 0.327757 0.14726)
(10.2222 -0.0234759 0.114593)
(11.3831 0.326976 0.271747)
(10.1492 0.00710549 -0.15607)
(10.1764 0.121535 0.11361)
(10.2885 0.19468 0.166627)
(10.1542 0.125847 -0.015894)
(11.5814 0.408197 0.244118)
(9.94539 -0.0369991 0.053679)
(10.1478 -0.308922 -0.0430565)
(11.4438 0.377165 0.127425)
(10.0443 0.104 0.165478)
(10.1745 0.0806846 -0.0958242)
(9.94129 0.0730876 0.031372)
(9.9811 0.0102152 0.00646666)
(6.81817 0.216208 -4.49288)
(6.69291 -0.284795 -5.01049)
(10.2231 0.0789705 0.422164)
(8.80568 0.275817 -3.62722)
(9.86863 0.123302 -0.0343227)
(9.8528 0.00267239 -0.111899)
(10.5564 0.469532 -0.18509)
(10.0567 -0.2607 0.154846)
(9.80723 0.040051 0.252313)
(10.3118 -0.0196328 0.0894935)
(10.0646 -0.174814 0.0510305)
(9.991 0.141188 -0.101132)
(10.0427 0.133612 -0.28026)
(5.20774 -0.0244677 -5.61489)
(7.69725 -0.813051 0.701607)
(9.95511 0.151186 -0.071988)
(9.93713 0.0304415 -0.140818)
(9.83894 -0.139028 -0.0327993)
(10.1258 -0.0520696 -0.0140623)
(9.88258 -0.0387436 -0.109157)
(10.0961 0.193456 -0.0460692)
(10.6668 -0.259729 0.154226)
(10.905 -1.55845 2.19015)
(10.0647 0.0754109 -0.0539912)
(9.8306 -0.280692 0.29391)
(10.2609 0.107476 0.0392847)
(10.0049 -0.0160377 0.170245)
(9.90857 0.0929913 -0.0325168)
(10.1857 -0.0235145 -0.0100982)
(10.2002 0.0060406 0.00486344)
(10.0634 0.0241588 -0.00691476)
(10.012 -0.121766 -0.221641)
(10.2041 -0.196096 0.091784)
(9.28101 -0.779921 -0.876373)
(5.08456 0.518444 -4.08255)
(9.92935 0.0665683 -0.139211)
(-0.471889 -1.00249 1.08736)
(9.69507 -2.21632 1.15861)
(12.5967 -1.14075 -0.671227)
(-0.0682035 -1.0719 0.649985)
(10.0742 0.277394 -0.0910966)
(9.37279 -0.0498049 1.08229)
(10.2864 -0.406728 -2.16939)
(10.8848 -0.903246 0.421119)
(5.71888 0.329881 -3.10037)
(0.143891 0.996632 2.03286)
(1.36697 0.336417 -2.68312)
(10.8615 0.0209204 0.522996)
(10.2856 0.0838459 0.0342051)
(10.9017 -0.0338516 1.09319)
(10.1923 -0.0679453 0.220671)
(4.04876 -0.19551 0.351664)
(10.6236 0.014225 -0.250159)
(10.4449 0.0165278 -0.039742)
(9.90571 -0.0582434 -0.0330268)
(10.2166 -0.0364623 0.0222967)
(10.8052 0.0892001 0.778842)
(9.51094 -0.0491563 -0.373358)
(10.2293 0.204916 -0.116309)
(10.0752 -0.0203053 -0.216364)
(-2.56282 0.456942 0.262559)
(8.16917 0.216029 -2.00164)
(10.3279 -0.0317831 -0.137436)
(10.0653 -0.188394 -0.0654475)
(5.32097 0.407758 -1.68422)
(6.04911 0.181232 -2.39178)
(9.82119 0.512832 -1.56063)
(-0.0901449 -2.96549 -0.962039)
(7.66192 0.527135 0.759768)
(4.56893 0.286763 -3.10737)
(4.24811 0.211456 -4.00096)
(10.2064 0.085963 -0.0278317)
(9.91944 0.0533116 -0.255661)
(9.63923 -0.0538096 0.154115)
(9.89273 -0.0602192 -0.0567864)
(10.3053 0.013951 -0.140995)
(-0.310818 1.59772 1.19285)
(10.7069 -0.020307 -0.187076)
(10.3914 0.00818922 0.0281279)
(10.235 -0.0499165 -0.083752)
(10.0821 -0.0303655 -0.0625465)
(-0.271107 1.38532 1.49803)
(0.205561 1.17754 1.75348)
(9.71404 -0.112492 0.164978)
(10.2258 -0.069361 0.117072)
(9.94812 0.013167 0.00548757)
(9.9596 0.000811969 0.069085)
(10.2414 -0.144843 0.05206)
(10.0249 0.00120472 -0.00225818)
(9.727 -0.00797668 -0.00348872)
(10.047 -0.0294841 -0.00771475)
(9.95318 0.0471164 -0.0140434)
(6.84941 -0.514235 -2.50558)
(9.77398 0.0651355 -0.0975357)
(9.93026 0.0523378 0.0299348)
(9.9538 -0.17242 0.206532)
(10.1423 0.151329 -0.0233794)
(10.0227 -0.00632639 -0.0149619)
(4.12243 -0.426641 -1.77904)
(12.1689 -1.07715 0.126093)
(9.92336 -0.0414958 0.0682623)
(10.4765 0.43651 -0.171199)
(10.056 -0.05798 -0.130052)
(9.71474 -0.384755 0.243275)
(9.6237 -0.322136 0.354065)
(11.4727 0.00919572 -0.014243)
(10.0252 0.0181672 0.0264732)
(-1.38306 0.550756 3.39947)
(11.694 -0.0870551 0.0319046)
(10.278 0.070237 -0.0401472)
(10.4787 0.187058 -0.062926)
(8.08433 0.258664 -2.86159)
(14.7582 0.496459 -0.315029)
(10.004 -0.0547941 0.1339)
(10.0815 -0.0487439 0.130824)
(12.4117 1.00013 1.41605)
(9.84157 0.111873 -0.291688)
(10.0784 -0.0607123 -0.0397178)
(11.1262 0.165687 0.364268)
(10.0293 0.01571 0.0567311)
(9.79454 0.169726 -0.106701)
(2.94075 -1.34746 -3.22302)
(11.8231 -0.645473 0.521956)
(13.813 1.8049 0.817744)
(10.0922 0.0076985 0.0219738)
(7.77979 0.368394 -2.11956)
(10.009 -0.274359 0.0256217)
(11.0053 -0.974665 -0.197207)
(9.60562 -0.29553 0.48881)
(11.5319 -0.0192836 0.0136584)
(10.2994 0.473393 0.0881251)
(9.51134 -0.275705 0.482901)
(5.13297 1.13525 -2.16499)
(12.579 1.07418 1.80295)
(11.8529 -0.298043 -0.65167)
(-1.53481 1.31498 2.32568)
(11.4233 0.147615 0.250993)
(10.2587 -0.0550548 0.0984659)
(10.471 0.109995 -0.0553257)
(11.2353 0.982705 -0.13152)
(9.95496 0.0654353 0.242102)
(11.6896 -0.0301346 0.195099)
(0.374351 -0.900331 1.97466)
(9.95519 0.117784 0.194096)
(12.2138 0.0233925 -0.865534)
(9.84019 -0.0873957 0.000826708)
(9.74697 -0.0759203 -0.0926616)
(11.3929 -1.89644 2.01693)
(9.94444 -0.103019 -0.223618)
(10.1226 -0.031908 0.110829)
(8.77579 -5.53739 0.664203)
(9.60461 0.395317 0.0638335)
(9.68898 -0.234188 0.0754453)
(11.8803 -0.672388 0.448812)
(10.0265 0.979778 1.12499)
(9.99988 -0.107981 -0.0714282)
(11.9112 -1.78519 -0.207716)
(5.57682 -0.60019 0.461358)
(10.3019 0.0972431 0.241801)
(9.58357 -0.645941 -0.553819)
(10.0863 -0.045751 0.140117)
(10.0838 0.184266 0.0788122)
(10.124 -0.271945 -0.307715)
(10.2275 -0.161913 0.108867)
(6.09803 1.14511 -2.09)
(-0.438604 0.46577 -0.0447959)
(11.0902 0.279518 -0.702009)
(9.73219 -0.721372 -0.0391628)
(10.8515 -1.9602 0.0562524)
(5.10803 3.93922 -1.38469)
(3.61207 0.0533378 -1.08774)
(10.6194 -3.18769 4.31469)
(10.1662 -0.00730164 0.0675708)
(10.0502 0.229399 0.030236)
(9.60322 -0.0233565 0.263968)
(10.0432 -0.0300524 0.106048)
(8.01111 0.339787 -0.544961)
(9.60931 -0.405091 0.37215)
(9.47548 -0.394344 1.31878)
(9.74766 0.326844 0.409843)
(-1.37314 -0.749887 0.433887)
(11.643 -0.0297646 0.0656031)
(9.93355 0.382812 0.0471185)
(10.2499 -0.0112505 -0.0433898)
(10.0147 -0.012273 -0.0431599)
(10.2878 0.0203459 -0.334856)
(6.24152 -1.62608 -2.71955)
(10.0034 0.196707 0.184827)
(7.32326 4.99111 -0.518357)
(10.0415 -0.0554695 -0.0137214)
(10.0693 -0.47069 -2.60781)
(10.1089 -0.0339895 0.0520724)
(10.2438 0.0275997 0.0716537)
(10.2508 0.128855 0.343639)
(10.3382 0.0765188 0.113757)
(9.72114 0.0758375 -0.243117)
(12.5411 -0.179157 -0.499136)
(11.9412 -0.00158683 -0.158613)
(9.40163 0.979998 2.65565)
(7.72447 3.84634 2.80371)
(9.58533 0.894334 0.623365)
(10.1991 0.441652 0.0235041)
(11.0515 0.443186 0.205526)
(6.40145 -0.170676 -2.4321)
(10.2201 -0.0878008 0.00375494)
(10.1379 0.0128844 0.0737526)
(10.012 -0.31083 0.134166)
(11.3937 0.0175259 -0.0521259)
(10.7056 0.330798 5.02015)
(8.64379 -0.307867 1.21491)
(10.1824 -0.238262 0.112064)
(10.0131 0.27357 0.0163358)
(9.59227 0.78701 -0.181458)
(10.1902 -0.0843331 0.00378244)
(10.0808 0.202417 -0.0320586)
(14.8069 -1.53652 1.1187)
(11.7234 -0.435804 0.836421)
(1.67603 3.94695 -0.768839)
(10.1882 -0.486964 0.294132)
(11.4096 -0.727377 -0.125911)
(10.3126 -0.912054 -0.903868)
(12.8956 0.0368764 -3.08917)
(9.93451 -0.0682736 0.302637)
(0.645746 -0.528983 -3.1394)
(10.1604 -0.055729 -0.181112)
(10.0554 0.0626714 -0.123776)
(10.6824 -0.197805 0.811173)
(11.8492 0.427207 5.17768)
(10.0791 -0.0908557 0.136523)
(9.99005 0.251585 -0.406315)
(10.1152 -0.175907 -0.00167844)
(10.6746 -0.761872 0.663598)
(10.7358 0.0447753 1.03669)
(10.0982 0.0410037 -0.0792089)
(10.7982 -0.299101 -2.60823)
(9.80562 -1.00953 -2.70795)
(12.5255 0.0209297 -0.126298)
(10.1391 0.309168 -0.155749)
(9.60833 0.220804 0.0887495)
(3.25417 0.655011 -3.07312)
(1.11158 -1.07729 3.68218)
(5.6281 2.96518 1.12693)
(12.6672 -0.710665 -2.19792)
(6.59369 -0.331673 -0.106681)
(10.0327 -0.0255468 -0.0697959)
(10.0194 0.19915 -0.139968)
(8.76045 1.30567 3.1027)
(10.011 -0.219101 0.129946)
(4.7256 -0.50713 0.467905)
(9.93979 -0.190519 -0.217261)
(9.93023 -0.0378579 -0.137404)
(-3.66535 3.30134 -0.307075)
(9.76177 -0.902755 0.921503)
(10.6829 -0.173851 0.135651)
(10.0852 -0.161926 0.170145)
(9.24118 0.125907 -0.0676444)
(8.35618 0.255346 -2.38311)
(9.91682 0.272229 0.262811)
(9.99968 0.0611025 0.0745279)
(10.2764 0.418693 0.917314)
(11.9561 -0.630356 -2.37207)
(10.2689 0.215932 0.162783)
(9.88381 0.216158 -0.144189)
(9.76516 -0.181938 -0.0376091)
(9.84875 0.255957 -0.280648)
(9.81206 -0.0575081 -0.142511)
(11.5312 -0.6413 -1.53036)
(11.0987 -0.140061 -0.135059)
(8.64596 0.00490018 0.350834)
(9.82028 -0.68557 0.542075)
(9.69972 -0.128474 -0.0695189)
(9.94006 -0.224718 -0.0372221)
(9.73276 -0.0229979 0.25011)
(9.78389 -0.107854 0.154376)
(10.3812 0.66219 0.347298)
(11.4893 -0.906566 -0.218135)
(13.7784 -0.207273 2.03207)
(11.0628 -0.0436125 0.427151)
(11.4782 -0.502725 -1.08128)
(10.1373 -0.140807 -0.420613)
(1.8522 -3.5388 -2.15669)
(9.81933 -0.055705 -0.115125)
(9.89544 -0.174902 -0.173676)
(9.88963 -0.101701 0.0105523)
(12.9594 -0.728277 2.429)
(-0.784339 2.86485 0.388734)
(5.41666 5.20286 -1.29084)
(-0.435547 1.4982 0.639088)
(10.0749 -0.39563 -0.275864)