/*--------------------------------*- C++ -*----------------------------------*\
| =========                 |                                                 |
| \\      /  F ield         | OpenFOAM: The Open Source CFD Toolbox           |
|  \\    /   O peration     | Version:  2506                                  |
|   \\  /    A nd           | Website:  www.openfoam.com                      |
|    \\/     M anipulation  |                                                 |
\*---------------------------------------------------------------------------*/
FoamFile
{
    version     2.0;
    format      ascii;
    arch        "LSB;label=32;scalar=64";
    class       volScalarField;
    location    "0.091626";
    object      k;
}
// * * * * * * * * * * * * * * * * * * * * * * * * * * * * * * * * * * * * * //

dimensions      [0 2 -2 0 0 0 0];

internalField   nonuniform List<scalar> 
47425
(
0.271502
0.302808
0.290449
0.296953
0.435749
0.292261
0.394815
0.299385
0.366887
1.51963
0.308926
0.322276
0.339393
0.291046
0.282644
0.311845
0.28617
0.307255
1.03841
0.491493
0.294446
0.284122
0.295594
0.290394
0.291368
0.27068
0.274387
0.769976
0.272259
0.276775
0.286542
0.315712
0.356124
0.276072
0.266893
0.286803
0.280093
0.363339
0.282883
0.2923
0.344236
0.905518
1.10167
0.3784
1.69726
0.31765
0.309576
0.350646
0.280672
0.272308
0.727997
0.575532
0.270605
0.909332
0.347139
0.347809
0.274474
0.27404
0.370994
0.284739
0.850621
0.816026
0.931232
0.295604
0.364462
0.27557
0.341095
0.340642
0.882115
0.288505
0.283701
0.26786
0.270418
0.289225
0.979208
0.368709
0.980121
0.286466
0.823343
0.492652
0.977074
0.291163
0.283422
0.348596
0.353704
0.295987
0.267908
0.264459
0.486998
0.543625
0.283148
0.317092
0.273491
0.362858
0.374107
0.355303
0.27233
0.275587
0.292282
0.346173
0.334348
0.394542
0.286311
0.409727
0.279558
0.344432
0.296233
0.30301
0.480729
0.306765
1.42568
0.318241
0.399579
0.340021
0.301428
0.758273
0.297043
0.585412
0.316523
0.30727
0.304407
0.362698
0.342886
0.319983
0.33564
0.364126
0.297454
0.364887
0.339401
0.27343
0.281788
0.30292
0.458967
0.326842
0.674256
0.317148
0.283492
0.369691
0.29084
0.286261
0.354005
0.329884
0.310469
0.430747
0.307577
0.366223
0.404484
0.33985
0.342995
0.361577
0.435258
0.74265
0.360297
0.74805
0.300609
0.297674
0.309295
0.866511
0.324518
0.302581
0.308273
0.271458
0.265505
0.286005
0.721843
0.782259
0.337729
0.976227
0.319344
0.823715
1.16202
0.324958
0.353842
0.28895
0.320786
0.345909
0.787742
0.270911
0.272726
0.273502
0.790907
0.266941
0.270315
0.271153
0.272466
0.336704
0.290154
0.379796
0.334019
0.276947
0.357974
0.277588
0.37723
0.365297
0.272528
0.289677
0.360532
0.297234
0.302594
0.269013
0.309191
0.358887
0.431296
0.291644
0.30432
0.366441
0.269589
0.287169
0.346505
0.361897
0.273398
0.282574
0.352098
0.297736
0.281583
0.276854
0.28844
0.569718
0.306769
0.352916
0.49325
0.274195
0.611973
0.281047
0.385947
0.474579
0.273576
0.294283
0.320565
0.354918
0.288427
0.290713
0.317583
0.36937
0.354973
0.303068
0.534028
0.307073
0.49693
0.352658
0.321653
0.268051
0.271613
0.280247
0.27705
0.362565
0.284776
0.35755
0.271106
0.282904
0.274581
0.466054
0.280507
0.365695
0.293773
0.272679
0.287728
0.350994
0.288032
0.357613
0.367468
0.352128
0.298463
0.349302
0.347461
0.332826
0.273677
0.345467
0.275275
0.311306
0.303477
0.485831
0.536478
0.277712
0.475498
0.362475
0.47744
0.409749
0.521694
0.493293
0.835459
0.268306
0.909824
0.34632
0.28892
0.28228
0.335544
0.303897
0.350488
0.316999
0.717527
0.29048
0.371308
0.275329
0.28658
0.302074
0.292924
0.278902
0.308213
0.329985
0.30716
0.268186
0.30174
0.279751
0.849446
0.774471
0.726695
0.272448
0.270968
0.279132
0.295556
0.737806
0.299689
0.31017
0.557431
0.313978
0.329787
0.358265
0.297043
0.625248
0.520892
0.291759
0.298085
0.267828
0.310731
0.272649
0.29847
0.270821
0.272122
0.278437
0.283572
0.99059
0.295488
0.280855
0.383801
0.272832
0.905348
0.310431
0.269034
0.277895
0.287743
0.287508
0.268591
0.286395
0.266384
0.277
0.275863
0.281442
0.284531
0.310555
0.290714
0.27533
0.299496
0.290662
0.294204
0.309119
0.298099
0.283807
0.297326
0.360265
0.318938
0.306509
0.293413
0.297251
0.27744
0.294205
0.350622
0.358444
0.314689
0.285219
0.341971
1.07314
0.282793
0.287932
0.385664
0.286363
0.475404
0.355682
0.364436
0.281054
0.357607
0.286674
0.272468
0.355244
0.323751
0.364513
0.294376
0.286302
0.349717
0.293872
0.29038
0.291325
0.301221
0.280689
0.280434
0.288612
0.316551
0.292101
0.364458
0.270068
0.593392
0.271167
1.04401
0.303057
0.341365
0.329233
0.273046
0.332288
0.272511
0.307451
0.288812
0.518978
0.779569
0.270127
0.305815
0.288684
0.288718
0.296365
0.283731
0.284952
0.34069
0.300531
0.277546
0.291578
0.297096
0.273751
0.414962
0.287624
0.29047
0.452812
0.362288
0.28148
0.570412
0.381689
0.345891
0.374697
0.669428
0.272877
0.287405
0.288203
0.287428
0.587273
0.302278
0.269464
0.274834
0.292463
0.292871
0.297802
0.27869
0.678471
0.567852
0.463703
0.356379
0.361517
0.450322
0.272019
0.286298
0.327879
0.285562
0.355171
0.363124
0.377802
0.286636
0.369613
0.290379
0.291908
0.305696
0.29055
0.289816
0.285616
0.348575
0.357669
0.367348
0.30814
0.305943
0.317869
0.286703
0.835708
0.360527
0.363722
0.344928
0.319849
0.691044
0.301206
0.271123
0.303908
0.350141
0.32697
0.301842
0.316141
0.278828
0.296662
0.272677
0.300542
0.404615
0.268665
0.315806
0.316657
0.326384
0.271752
0.272266
0.274013
0.281081
0.282
0.301183
0.28016
0.274302
0.28341
0.295725
0.297138
0.311356
0.299234
0.272778
0.303836
0.268414
0.272401
0.282324
0.306381
0.309802
0.305384
0.363305
0.375393
0.697448
0.287668
0.281562
0.3237
0.365735
0.420538
0.422035
0.311564
0.280644
0.317563
0.402836
0.315959
0.428146
0.362381
1.47134
0.311332
0.313497
0.276844
0.420691
0.273748
0.282783
0.287172
0.379175
0.272629
0.267576
0.99356
0.276743
0.329932
0.272238
0.402531
0.266084
0.275909
0.385234
0.373494
0.288785
0.27057
0.254822
0.271186
0.288905
0.271152
0.270738
0.268359
0.345802
0.418555
0.289735
0.327161
0.28862
0.272803
0.492188
0.283787
0.327934
0.175673
0.288454
0.273304
0.232536
0.713735
0.295372
0.186337
0.205901
0.274157
0.346964
0.268992
0.278019
0.361934
0.311304
0.947393
0.285814
0.315369
0.271178
0.425607
0.3411
0.369484
0.295033
0.759884
1.90981
0.283907
0.303586
0.323782
0.292614
0.344963
0.356176
0.31777
0.309566
0.378946
0.278902
0.359113
0.437147
0.310931
0.282079
0.441717
0.329137
0.28472
0.299863
0.321256
0.275554
0.361918
0.335023
0.323953
0.343279
0.276257
0.296657
0.908699
0.290959
0.368989
0.791204
0.754354
0.273939
0.353519
0.674629
0.324475
0.383164
0.792934
0.376793
0.729169
0.271667
0.269825
0.354826
0.472063
0.381506
0.375569
0.269199
0.353021
0.277154
0.297311
0.266926
0.31764
0.286788
0.798679
0.65244
0.313573
0.304969
0.322506
0.288769
0.37434
0.351687
0.35241
0.360589
0.342619
0.290714
0.311509
0.354472
0.278292
0.347904
0.336021
0.914132
0.525394
0.311894
0.282991
0.349049
0.272214
0.867318
0.284104
1.44456
0.328447
0.410883
0.317795
0.296963
0.314003
0.276328
0.322185
0.288586
0.269717
0.381605
0.349631
0.368556
0.359018
0.345741
0.932027
0.31818
0.364164
0.341568
0.363677
0.273205
0.324511
0.309427
0.357614
0.341379
0.299767
0.33034
0.294648
0.315434
0.286215
0.280639
0.436109
0.503209
0.281913
0.401796
0.280313
0.299311
0.288043
0.273049
0.604273
0.269939
0.29373
0.289594
0.271024
0.60767
0.888147
0.292756
0.33393
0.274017
0.32043
0.271641
0.299468
0.300293
0.510952
0.298253
0.272236
0.291878
0.275218
0.290523
0.284025
0.267499
0.294366
0.272703
0.267725
0.295451
0.497169
0.271748
0.249292
0.598932
0.518129
0.262748
0.302114
0.790172
0.324391
0.305941
0.461403
0.243487
0.755707
0.312625
0.278823
0.438804
0.310908
0.51449
0.293499
0.323849
0.279081
0.277323
0.401773
0.345796
0.291162
0.316801
0.309585
0.342431
0.348331
0.37843
0.448066
0.427022
0.774026
0.906202
0.827832
0.562237
0.589787
0.3631
0.343446
0.279455
0.272271
0.319014
0.285549
0.304271
0.314548
0.331242
0.273604
0.315684
0.353813
0.273591
0.36182
0.302979
0.272648
0.346751
0.273146
0.280633
0.284459
0.321454
0.386181
0.275972
0.27262
0.281735
0.341405
0.33213
0.473527
0.399595
0.272435
0.319406
0.268278
0.27674
0.278829
0.32384
0.340126
0.458951
0.292769
0.279314
0.2815
0.362659
0.860834
0.290647
0.290588
0.358378
0.317339
0.34293
0.313291
0.298776
0.3768
2.39202
0.406187
0.844856
0.366857
0.357857
0.267888
0.367942
0.278411
0.311409
0.306333
0.279902
1.73418
0.390116
0.331006
0.708776
0.338615
0.266013
0.294974
0.36957
0.279619
0.317813
0.19725
0.276591
0.354529
0.354907
0.374943
0.681311
0.3569
0.337254
0.450686
0.281109
0.2851
0.400794
0.485273
0.31072
0.374191
0.404986
0.315143
0.285793
0.279723
0.304059
0.337872
0.336477
4.20858
0.639717
0.331791
0.51819
0.481196
1.09085
1.47226
0.466704
0.347074
0.360762
0.373541
0.342268
3.05047
0.279684
0.299819
0.372762
0.223811
0.306071
0.367347
0.340734
0.274325
0.367577
0.430037
0.363484
1.49577
0.268607
0.346414
0.376584
0.365703
0.357266
0.34985
0.37481
0.411761
0.314584
0.330463
0.420064
0.295003
0.282707
0.30706
0.379976
0.27636
0.375861
0.346351
0.339408
0.596898
0.819762
0.279624
0.3635
0.290021
0.36189
0.349027
0.611908
0.51588
1.1775
0.282374
0.333163
0.295443
0.819122
0.295123
1.83086
0.389852
0.370016
0.44636
0.534809
0.301267
0.283484
0.286238
0.294833
0.416818
0.294639
0.363498
1.28842
0.345782
0.27473
0.279987
0.620327
1.11806
0.462215
0.504382
0.890292
0.381528
0.328677
0.353694
0.290492
0.42688
0.350639
0.366782
0.980022
0.298859
0.27765
0.283058
0.357108
0.3513
0.365998
0.305384
0.286973
0.421484
0.281291
0.316413
0.284855
0.352838
0.344725
0.343445
0.31173
0.302908
0.287158
0.358707
0.292899
0.294036
0.303905
0.287906
0.34172
0.40653
0.317836
0.33563
0.282083
1.57329
0.363856
0.347968
0.311815
0.866668
0.750171
1.29386
0.309869
0.316002
0.303972
0.721688
0.335262
0.307611
0.344489
0.338498
0.363951
0.873173
0.346554
0.286706
0.342855
0.321372
0.270537
0.52855
0.948151
0.292
0.970395
0.323692
0.603374
0.515792
0.303592
0.330204
0.355605
0.590805
0.324522
0.304873
0.305355
0.675711
0.466052
0.578454
0.296364
0.308828
0.2773
0.289216
1.5846
1.49705
0.327321
0.327676
0.357719
0.868295
0.280995
0.273333
2.43886
1.36875
0.355628
0.285602
0.822237
1.5153
1.22734
0.360461
0.798753
1.4983
0.999678
0.307294
0.404518
0.402707
0.305276
0.307304
1.59754
1.2822
0.324531
0.332709
0.345081
0.288834
0.306471
0.31507
0.427734
0.326914
0.366938
0.279675
0.375909
1.54548
0.943288
0.290568
0.522356
0.401194
0.307835
0.457855
0.273767
0.324832
0.290867
0.307506
0.376235
0.279984
0.716148
0.289129
0.792673
0.526541
0.990197
0.391476
0.419194
0.322231
0.350328
0.357598
0.501589
1.0357
0.343301
1.05735
0.46486
0.691207
0.431598
0.815858
0.652121
0.301575
0.370551
0.922776
0.330141
0.282219
0.287247
0.790591
0.672858
0.290486
0.304717
0.593404
0.363324
1.0827
0.748838
0.339653
0.411155
0.995261
0.336162
0.294208
0.855611
0.285388
0.808974
0.7526
0.283607
0.279691
0.29852
0.274597
0.357982
0.291155
0.287061
0.349655
0.355798
0.428408
0.304955
0.29175
0.470558
1.96108
0.741288
0.3207
0.307895
0.512776
0.286441
0.939538
0.323123
0.321913
0.34971
2.13321
0.328731
2.07845
0.376363
0.456385
0.307208
0.742191
0.566515
0.600963
0.392376
0.491972
0.335299
0.363526
0.350293
0.543639
0.323043
0.419656
0.744974
0.388159
0.410481
0.890826
0.316689
0.290004
0.644591
1.54508
0.368339
0.309242
0.35933
0.379488
1.15181
1.10985
0.275148
0.293143
0.359141
0.797251
0.355932
0.534663
0.339177
0.346816
0.352531
0.438774
0.321313
0.550798
0.577537
0.314644
0.343937
0.397156
0.305247
0.846779
2.03907
0.309628
0.791229
0.81653
0.376772
0.715709
0.360611
0.330126
1.00942
0.332906
1.16325
3.08185
0.297862
0.335994
0.401476
0.365346
0.353174
0.35628
0.460765
0.361637
0.30399
0.354567
0.3052
0.688431
0.356594
0.328228
0.351672
0.586785
0.285321
0.775436
0.698856
0.32912
0.81616
2.02615
0.28076
0.42066
0.429097
0.339778
0.312188
0.477964
0.874071
0.455757
1.14769
0.285867
0.708502
0.415243
0.273516
0.346464
0.347482
0.449716
0.306266
0.350222
0.526878
0.274583
0.527656
0.338328
1.40728
0.360155
0.274202
0.335081
0.480116
0.325049
0.727165
0.407638
0.292865
0.624158
0.282633
0.313402
1.27845
0.271119
0.35442
0.658895
0.31296
1.06326
1.13141
0.348714
0.360735
0.281652
0.838931
0.475767
0.934263
0.747262
0.37459
0.30988
0.387631
0.965829
0.94981
1.29249
0.33773
0.357545
0.326642
0.293053
0.365746
0.671022
0.347185
0.329955
0.314748
0.276926
0.296262
0.353081
0.28633
0.348865
0.34814
0.384414
0.281428
0.345737
0.530775
0.299939
0.279289
0.35637
0.32365
0.359399
0.276245
0.310462
0.317462
0.289627
0.375958
0.525949
0.336891
0.291212
0.279224
0.273037
0.483651
0.301974
0.298944
0.480789
1.00256
0.662502
0.28888
0.471126
0.428934
0.370906
0.425159
0.383651
0.405453
0.345866
0.290199
0.344967
0.352259
0.289038
0.352529
0.364909
0.333657
0.288212
0.291807
0.341986
0.46443
0.333258
0.375674
0.76863
0.346478
0.63817
0.36617
0.819274
0.268962
0.347452
0.320172
0.280727
0.291716
0.365881
0.275036
1.24043
0.519024
0.763359
0.337965
0.862801
0.283628
0.307908
0.489571
0.294271
0.748552
0.386086
0.575992
0.332212
0.940404
0.902252
0.28832
0.272157
0.912734
0.296
0.939824
0.318089
0.340856
0.286451
0.281246
0.280991
0.297707
0.314536
0.651319
0.364654
0.385266
0.30464
0.326614
0.270836
0.355031
1.27922
0.347744
1.36515
0.578108
0.287715
0.357401
0.305137
0.309425
0.303413
0.329948
0.329795
0.362906
0.313943
0.277961
0.313462
0.342777
1.27071
1.44079
0.312036
0.326517
2.14802
0.321411
0.277051
0.277293
0.273625
0.315542
0.357341
0.400063
0.377934
0.305695
0.286378
0.358798
0.271778
0.268471
0.290529
0.671233
0.38363
0.77209
0.707976
0.766481
0.288161
0.280125
0.279409
0.275347
0.275394
0.59184
0.301629
0.268966
0.295607
0.345263
0.290629
0.399688
0.286656
0.359182
0.410074
0.302714
0.277055
0.285874
0.304635
0.307612
0.285066
0.314686
0.299307
0.466314
0.301667
0.350193
0.386024
0.299966
0.303517
0.281754
0.30807
0.292659
0.341194
0.375516
0.285944
0.267684
0.294748
0.296259
0.289505
0.330891
0.273828
0.316041
0.28508
0.293696
0.787037
0.291585
0.38333
0.266246
0.278552
0.611895
0.292432
0.344518
0.272783
0.283254
0.326349
0.351707
0.69363
0.366979
1.45286
0.275984
0.284238
0.341226
0.272804
0.26794
0.375125
0.306992
0.268338
0.270296
0.909198
0.390173
0.613003
0.338641
0.495046
0.362602
0.285741
0.382568
1.56943
0.339608
0.291068
0.289036
0.733809
0.283223
0.294584
0.305377
0.304303
0.390092
0.721719
0.286585
0.300661
0.347456
0.302092
0.329145
0.836308
0.74647
0.283964
0.278035
0.27363
0.329231
0.316067
0.271935
0.739687
1.21873
0.280182
0.329918
0.802475
0.288684
1.8634
0.409318
0.272308
0.283115
0.2789
0.289235
0.535948
0.306174
0.305792
0.291067
0.325769
0.293581
0.361543
0.569031
0.362926
0.446725
0.45957
0.42041
0.537651
0.329988
0.387718
0.363756
0.379195
0.318217
0.292401
0.757934
0.539982
0.377901
0.323397
0.360539
0.322175
0.311785
0.23504
0.270921
0.27125
0.357061
0.349904
0.450474
0.376896
0.79034
0.662422
0.300334
0.37789
0.286957
0.289055
0.365123
0.277588
0.297718
0.276902
0.271952
0.221636
0.221057
0.272792
0.396443
0.648551
0.977405
0.314055
0.271687
0.433806
0.459027
0.773695
0.298744
0.773737
0.871006
0.974702
0.851526
0.364909
0.273806
0.270376
0.360613
0.799328
0.271996
0.372716
0.317687
0.272795
0.467364
0.427618
0.409419
0.306555
1.22649
0.274196
0.282913
0.307747
0.311731
0.545052
0.631329
0.306369
0.428949
0.288559
0.333837
0.306104
0.838919
0.353672
0.809786
0.371897
0.805188
0.352735
0.450674
0.670299
0.482619
0.380213
0.382691
0.666059
0.35251
0.353863
0.355991
0.347443
0.360714
0.34096
1.21588
0.47813
0.305975
0.545235
0.547974
0.539929
0.287865
0.28123
0.625818
0.605744
0.774163
0.298098
1.07313
0.286233
0.963434
0.612995
0.50047
0.663784
0.279639
0.325342
0.281274
0.326783
0.323882
0.47442
0.394239
0.279497
0.29667
0.340343
0.304672
0.277826
0.271545
0.426291
0.274519
0.269411
0.308398
0.38261
0.393547
0.307317
0.340168
0.348198
0.344038
0.517261
0.394261
0.290041
0.288934
0.446245
0.517104
0.293139
1.95154
0.316389
0.382616
0.945875
0.353215
0.292115
0.275316
0.449996
0.298873
0.269783
0.346632
0.294803
0.282653
0.293557
0.27912
0.34026
0.304382
0.307366
0.283235
0.336622
0.623578
0.286045
0.298945
0.289361
0.297627
0.381124
1.12201
0.296908
0.281571
0.30828
0.524955
0.255261
0.321708
0.304716
0.787422
0.329268
0.3682
0.352478
0.366191
0.330847
0.337882
0.294261
0.466973
0.354736
0.340987
1.30272
0.299265
0.371971
0.329166
0.320549
0.353471
0.390779
0.295615
0.33652
0.279073
0.317752
0.306683
0.328642
3.01863
0.285079
0.378115
0.375971
0.343895
0.595335
0.327342
0.671803
0.353187
0.52195
0.632468
0.310265
0.278606
0.388274
0.351889
0.310234
0.279922
0.724015
0.415553
0.336515
0.919306
0.610233
0.289448
0.449634
0.366402
1.22622
0.854956
0.357791
0.388426
0.463146
0.556474
0.434428
0.879505
0.212174
0.584178
0.299217
0.538993
0.35498
0.365606
0.377445
0.348639
0.307176
0.341697
0.550662
0.298995
0.348312
0.352393
0.454559
0.706695
0.380038
0.687887
0.316127
0.994694
0.373324
0.374643
0.795813
0.5238
0.670054
0.580761
0.599222
0.502634
0.440542
0.40659
0.326408
0.350773
0.350343
0.712136
0.328776
0.328645
0.292937
0.452812
0.342771
0.286083
0.792663
0.461332
0.470059
0.155411
0.385553
0.311209
0.335778
0.325161
0.345092
0.326592
0.266378
0.314479
0.362229
0.156144
0.149753
0.452856
0.321041
0.397715
0.378519
0.416529
0.360993
0.34443
0.327154
0.129016
0.332052
0.363266
0.133474
0.361265
0.815228
0.555311
0.317665
1.52793
0.378119
0.430371
1.02782
0.383229
0.366928
0.283795
0.546404
0.273308
0.281019
0.322976
0.353177
0.349679
0.312354
0.581204
0.353637
0.429295
0.291387
0.376405
0.35961
0.271793
2.23448
0.46648
1.06005
0.417898
0.285683
0.874082
0.445499
0.27943
2.2693
0.281352
0.276951
0.440229
0.422104
0.928441
1.0329
0.314799
0.628788
0.892974
0.381085
0.604032
0.934801
1.04444
2.23671
0.341385
0.330311
0.535601
0.601669
0.386428
0.897278
0.325404
0.299835
0.473111
0.323392
0.281771
0.369791
0.704694
0.635466
0.271581
0.464417
0.286599
0.379545
0.310159
0.376392
0.55746
0.386707
0.73846
0.351377
0.360678
0.683528
0.280736
0.288716
0.404351
0.281229
0.322554
1.08056
0.300954
0.831138
0.755734
0.761015
0.794828
0.376378
0.354392
0.27854
0.273981
0.377157
0.283767
0.292373
0.384723
0.292403
0.367162
0.884487
0.281336
0.476635
0.279776
0.425698
0.332611
0.788893
0.346117
0.42155
0.28569
0.305529
0.395392
0.27849
0.302702
0.296232
0.279886
0.476168
0.299545
0.350413
0.32259
0.288567
0.340273
0.3089
0.351104
0.970749
0.302227
0.288482
0.285807
0.34877
0.130115
0.572611
0.426761
0.628177
0.977252
0.202855
0.385173
0.0692962
0.171062
1.16174
0.365302
0.49454
0.230406
0.668192
0.645761
1.14841
0.32269
0.300343
0.497259
1.27182
0.309246
0.353042
0.407526
0.381938
0.370792
0.35842
0.900539
1.44422
0.167741
0.336179
0.134534
0.332154
1.32879
0.295485
0.324914
0.298154
0.285998
0.399408
0.296399
0.527921
0.406584
0.318036
0.368318
0.296378
0.496252
0.600235
0.295099
0.388587
0.325889
0.77243
0.407642
0.341075
0.48896
0.469317
0.274732
0.27699
0.339503
0.288056
0.656071
0.280708
0.391076
0.542782
0.301372
0.30755
0.297126
0.296434
0.555153
0.368619
0.470114
0.287671
0.293633
0.419429
0.555729
0.291911
0.319132
0.290362
0.284682
0.560528
0.400605
0.712978
0.306284
0.285984
0.393275
0.352495
0.310518
0.293856
0.346376
0.359966
0.494034
0.28695
2.00501
0.364728
0.363965
0.283233
0.35704
0.799746
0.931739
0.350703
0.797754
0.336128
0.953213
0.374077
0.637782
0.420911
0.495291
0.378914
0.301729
0.33442
0.370943
0.50428
0.338973
0.325486
0.888632
0.374529
1.78349
0.373237
0.308553
0.359896
0.545383
0.382328
0.28316
1.06167
0.282504
0.306434
0.283475
0.343437
0.690589
0.429047
0.326659
0.454706
0.345904
0.306035
0.297593
0.325294
0.37071
0.387907
0.36094
0.315398
0.312545
0.357029
0.310017
0.276265
0.344387
0.315411
6.66765
0.337211
0.407983
0.3085
0.355778
0.322545
0.366554
0.278784
0.338165
0.31489
0.312214
0.348974
0.754384
0.272781
0.830344
0.438411
0.391243
0.379798
0.312699
0.382508
0.397038
0.712211
0.291944
0.310275
0.314643
0.444994
0.334953
0.278443
1.17292
1.58014
0.622768
0.277794
0.284352
0.458991
0.35297
0.353594
0.446288
0.364427
0.301815
0.322702
1.64401
0.279421
0.50439
0.27556
0.300108
0.372909
0.295427
0.372161
0.405963
0.281606
0.53712
0.355206
0.348841
0.392046
0.887033
0.294368
0.35995
0.331283
0.351946
0.318584
0.329594
0.275743
0.266169
0.374465
0.528344
0.359469
0.330047
1.40167
0.362265
0.549508
0.358353
0.383028
0.34972
0.325592
0.768102
0.311001
0.471469
0.332667
0.355006
0.317641
0.347246
0.514343
0.409294
0.297076
0.567835
0.376929
0.577084
0.691596
1.51847
0.287584
0.401688
0.377686
0.236373
0.347243
0.234017
0.392813
0.219297
0.345637
0.815825
0.3547
0.559807
0.606047
0.328397
0.201033
0.385157
1.05157
0.454572
0.59894
2.08188
1.30784
0.667869
0.729778
0.286117
0.336816
0.688581
0.346288
0.911037
0.332379
0.743222
0.701947
0.305057
0.350249
0.302797
0.271441
0.337055
0.274027
0.644841
0.373813
0.343779
0.495827
0.304041
0.339622
0.285928
0.297573
0.333147
0.315521
0.373305
0.274308
0.364504
0.826398
0.284652
0.286355
0.311492
0.283431
0.841565
1.17451
0.353692
0.392883
0.477489
0.280195
0.268672
0.303817
0.318528
0.299681
0.304955
0.301872
0.288092
0.544193
0.294346
0.320664
0.299139
0.27751
0.280383
0.896554
0.296287
0.314411
0.305031
0.393493
0.344351
0.311215
0.598744
0.361311
0.29855
0.344615
0.336236
0.334432
0.380562
0.357441
0.291341
0.367219
0.34818
0.294704
0.31089
0.329538
0.3964
0.406555
0.300041
0.31354
0.356958
0.386319
0.423811
0.53037
0.896793
0.846983
0.314684
0.280568
1.18382
0.47064
0.513129
0.287876
0.2818
0.297675
0.274397
0.294963
0.280541
0.287154
0.307182
0.285461
0.287397
0.295588
0.287076
0.27888
0.491921
0.329964
0.310912
0.289951
0.300935
0.545973
0.284184
0.293562
0.362985
1.00594
0.467979
0.374181
0.362234
0.284934
0.315765
0.4242
0.610633
0.352242
0.29603
0.352541
0.296005
0.302244
0.322157
0.382888
0.341222
0.296604
0.35218
0.378438
0.558684
0.346354
0.712878
0.540473
0.362502
0.352162
0.306834
0.306902
0.352334
0.274723
0.300372
0.539225
0.288609
0.320853
0.675833
0.328679
0.349142
0.393644
0.343159
0.297696
0.32839
0.284443
0.324537
0.671576
0.333297
0.383675
5.04257
0.526384
0.922275
0.760038
0.300373
0.300899
0.467152
0.28081
0.492941
0.44043
0.632921
0.369858
0.275975
0.75899
0.276766
0.481857
0.369579
0.296329
0.657526
0.954429
0.280345
0.284228
0.8147
0.279007
0.288443
0.285853
0.279141
0.34013
0.531593
0.526208
0.307732
0.730851
0.30474
0.297407
0.302111
0.785746
0.300851
0.825785
0.280648
0.31784
0.284665
0.38133
0.33477
0.443135
0.284722
0.628379
0.425937
0.428911
0.642085
0.306213
0.300211
0.914645
0.40204
0.316137
0.377057
0.957188
0.305795
0.382681
0.318802
0.529914
0.359027
0.287172
0.278728
0.410888
0.298086
0.345586
0.309625
0.281395
0.30461
0.289152
0.290655
0.325464
0.745812
0.309996
0.290755
0.289967
0.299284
0.310064
0.343422
0.273703
0.352739
0.395023
0.373354
0.366137
0.296273
0.343284
0.288216
0.34067
0.881818
0.36817
0.669479
0.301129
3.46958
0.32223
0.430658
0.360823
0.300085
0.367864
0.285659
0.289815
0.327253
0.342486
0.269092
0.294125
0.27797
0.592921
0.277677
0.294843
0.326278
0.667024
0.106143
0.297258
0.729431
0.808491
0.541882
0.517978
0.791038
0.117615
0.36571
0.147776
0.327801
0.453564
3.98636
0.35837
0.334376
0.275436
0.280048
0.702164
0.30802
0.356489
0.884922
0.354998
0.580961
0.342971
0.536329
0.285291
0.349695
0.333113
0.273983
0.366325
0.27115
0.31802
0.994301
0.901745
1.07819
0.403577
0.895989
0.292762
0.270935
0.285442
0.347119
0.276925
0.327866
0.284848
0.366772
0.361231
0.27686
0.283666
0.345283
0.277761
0.308325
0.33988
0.310369
0.337665
0.443595
0.296541
0.327569
0.763701
0.32818
0.728568
0.732939
0.328165
0.366847
0.282129
0.422122
0.310969
0.32647
0.712928
0.282156
0.3345
0.310676
0.320762
0.295612
0.289715
0.43952
0.459073
0.3755
0.314909
0.740205
0.336995
0.588666
0.545384
0.360507
1.02038
0.402451
0.332382
0.304209
0.351536
0.344354
0.310234
0.283771
0.328217
0.164465
0.52719
0.175112
0.287197
0.314947
0.38089
0.129014
1.13226
0.329985
0.358984
0.347335
0.142937
0.351278
1.17411
2.78042
0.343238
0.284913
0.365533
0.454393
0.290817
0.331007
0.362314
0.293337
0.349611
0.302263
0.866663
0.324472
1.63646
0.386053
0.828131
0.334555
1.78135
1.02709
0.813938
0.30451
0.322054
0.396301
0.360034
0.289379
0.345368
0.304925
0.745545
0.281575
0.410411
0.657456
0.279998
0.278427
0.295488
0.317379
0.33126
0.360466
0.344028
0.373262
0.371664
0.304219
0.378748
0.310677
0.401636
0.304779
0.351379
0.286292
2.64034
1.49367
0.339956
0.403323
0.27193
1.68238
0.273282
0.274072
0.339867
0.272507
0.358439
0.343278
0.266933
0.270043
0.33452
1.94832
0.525355
0.370891
0.7429
0.280369
0.361218
0.307139
0.35956
0.736991
0.363289
0.754909
0.2692
0.300617
0.711713
0.798012
0.305546
0.314651
0.559716
0.377035
0.317131
0.429107
0.341807
0.35041
0.366011
0.354196
0.267389
0.365353
0.3389
0.423776
0.279429
0.345587
0.272064
0.318756
0.800975
0.831844
0.291241
0.428558
0.306571
0.339858
0.296282
0.473122
0.293241
0.305216
0.318717
0.33177
0.390626
0.351469
0.430258
0.326518
0.273654
0.322416
0.281559
0.334338
0.281564
0.466223
0.401513
0.318043
0.530888
0.310501
0.276348
0.338126
0.284307
0.35859
0.566313
0.299482
0.379548
0.356076
1.1162
0.350693
0.33466
0.362202
0.647251
0.363091
0.474565
0.334437
0.355852
0.474666
0.369382
0.338051
0.743874
0.398309
0.363187
0.303027
0.286723
0.488046
0.299012
0.957908
1.3827
0.375887
0.373889
0.357432
0.424035
0.39425
0.337789
0.75107
0.422224
0.574394
0.281482
0.378608
1.15416
0.427889
0.311238
0.415853
0.294475
1.23232
0.33809
0.34619
0.294973
0.273733
0.282556
0.317119
0.286947
5.04128
0.280153
0.61185
0.276106
0.375579
0.335636
0.465087
0.313926
0.31896
0.304347
0.636234
0.413256
0.446536
0.287564
0.284784
0.400012
0.327717
0.314619
0.281167
0.278262
0.275245
0.299378
0.276118
0.334287
0.278927
0.508054
0.380642
1.38537
0.686943
0.519637
0.494218
0.343502
0.35103
0.274533
0.518485
0.291274
0.295144
0.290729
0.405813
0.440569
0.292432
0.37035
0.706917
0.438331
0.281597
0.284729
1.64956
0.735821
0.339112
0.779656
0.777033
0.56433
0.695245
0.503184
0.685278
0.356776
0.557182
0.685838
0.277863
0.284233
0.271524
0.419502
0.544003
0.292942
0.276397
0.35456
0.322633
0.375892
0.688734
0.422459
0.903645
0.336585
0.287588
0.303239
0.287643
0.323314
0.648453
0.992147
0.859058
0.714757
0.313962
1.34028
0.524087
0.307083
0.488988
0.421238
0.691325
0.365412
0.424547
0.692172
0.680135
0.421129
0.813024
0.442297
0.787631
0.34717
0.295824
0.361734
1.11154
0.711072
0.343279
0.303841
0.486447
0.39224
0.523655
0.317539
0.338897
1.07188
1.30507
0.169267
0.383969
0.158488
0.279188
0.163738
0.327235
0.415706
0.529586
0.146916
0.382512
0.44122
0.112554
0.409287
1.21453
0.360992
0.33247
0.796266
0.292491
0.435579
0.285021
0.274391
0.289807
0.297075
0.79721
0.63234
2.13654
0.341526
0.339576
0.579846
0.327306
0.359198
0.358994
0.317624
0.297825
0.51484
0.379922
0.352866
0.286743
0.369418
0.355052
0.671702
0.40671
0.72458
0.910475
0.698618
0.373698
0.352706
0.680591
0.236241
0.480979
0.316031
0.339514
0.285737
0.728408
0.567985
0.621265
0.638618
0.543023
0.282833
0.37628
0.818262
0.733638
0.339041
0.355731
0.4034
1.95073
0.307868
0.281887
0.36169
0.311208
0.80632
0.354526
0.540707
0.618212
0.9811
2.11985
0.477562
0.399254
0.740078
1.09281
0.791054
0.517771
0.857672
0.884092
0.466906
0.331615
0.395096
0.356454
0.270606
0.296782
0.376856
0.453049
1.77545
0.337227
0.382206
0.398286
0.366926
0.420932
0.499665
0.429314
0.349776
0.373137
1.02705
0.999669
0.142065
0.348916
0.309644
0.326671
1.66405
0.836978
0.362753
0.53917
0.298192
0.382533
0.425404
0.497233
0.297158
0.296949
0.295514
0.344241
0.853167
0.403343
0.317875
0.731632
0.284931
0.899475
0.666809
0.416992
0.648681
0.325337
0.280975
0.310761
0.282547
0.345012
0.347049
0.296122
0.31173
0.297712
0.281547
0.442721
0.489732
0.665584
0.286164
0.417754
0.316685
0.345719
0.304808
0.469705
0.310714
0.300997
0.296119
0.283808
0.287935
0.28913
0.405057
0.278652
0.31944
0.324056
0.545899
0.288086
0.341222
0.44607
0.724808
0.961578
0.339834
0.759669
0.399174
0.327451
0.303679
0.475619
0.304864
4.33632
0.366134
0.290597
0.376842
0.370373
0.35963
0.400291
0.655867
0.93592
0.389495
0.797533
0.300893
0.274048
0.346012
0.282932
0.278919
0.360883
0.279618
0.28711
0.52252
0.288722
0.181666
2.24125
0.507421
0.279891
0.281206
0.5207
0.300398
0.292416
0.519456
0.295264
0.688126
0.349525
0.733673
0.280336
0.48573
0.389436
0.596355
0.284241
0.386639
0.286586
0.952339
0.364327
0.279418
1.29258
0.378263
0.453095
0.311205
0.3348
0.373675
0.277739
0.447779
0.277807
0.288581
0.287699
0.397215
0.549616
0.292846
0.285567
0.288292
0.284075
0.295864
3.54512
0.279997
0.403255
0.278907
0.507522
0.318708
0.323373
0.32157
0.41612
0.29961
0.367876
0.272259
0.302942
0.296952
0.307575
0.280528
0.386977
0.357451
1.02564
0.93521
0.723858
0.348995
0.301065
0.300219
0.278831
0.284627
0.978368
0.570733
0.351089
0.325388
0.274415
0.294873
0.26976
0.284797
0.468385
0.464046
0.693312
0.889086
0.324791
0.362205
0.352249
0.280251
0.508449
0.340451
0.407172
0.34888
0.31579
1.01272
0.367672
0.27328
0.300096
0.357176
0.294339
0.439988
0.280055
0.551497
0.329886
0.83478
0.440643
0.696302
0.28785
0.297207
0.312131
0.374406
0.320406
0.358234
0.289819
0.280631
0.284212
0.29057
0.354883
0.529868
0.32703
0.781935
0.370933
0.314886
0.460783
0.381689
0.36145
0.227295
0.975804
0.799134
0.204303
0.281958
0.285167
0.78176
0.304598
0.363832
0.334063
0.322523
0.247071
0.345545
0.346987
0.282137
0.371266
0.304121
0.921868
0.47386
0.388587
0.267148
0.351821
0.365039
0.30809
0.285161
0.824256
0.790196
0.320094
0.703951
0.295185
0.279781
0.351056
0.292837
0.829034
0.276449
0.277456
0.28221
0.595577
0.278985
0.315745
0.404961
0.409048
0.277869
0.297924
0.298929
0.302855
0.290437
0.333018
0.321741
0.528919
0.382033
0.353521
0.517946
0.345098
0.545261
0.320219
0.804358
0.397221
0.21627
0.581014
0.111721
0.384517
0.467291
0.523362
0.348348
0.279859
0.281772
0.281301
0.342417
0.750019
0.359621
0.277781
0.334355
0.330045
0.268516
0.430883
0.300939
0.355499
0.412554
0.297966
0.287715
0.311056
0.302075
2.94495
0.89858
0.340486
0.342934
0.376306
0.338545
0.736136
0.839373
0.911306
0.710172
0.329731
0.29697
0.303334
0.268002