/*--------------------------------*- C++ -*----------------------------------*\
| =========                 |                                                 |
| \\      /  F ield         | OpenFOAM: The Open Source CFD Toolbox           |
|  \\    /   O peration     | Version:  2506                                  |
|   \\  /    A nd           | Website:  www.openfoam.com                      |
|    \\/     M anipulation  |                                                 |
\*---------------------------------------------------------------------------*/
FoamFile
{
    version     2.0;
    format      ascii;
    arch        "LSB;label=32;scalar=64";
    class       volScalarField;
    location    "0.091626";
    object      nut;
}
// * * * * * * * * * * * * * * * * * * * * * * * * * * * * * * * * * * * * * //

dimensions      [0 2 -1 0 0 0 0];

internalField   nonuniform List<scalar> 
47425
(
0.00458664
0.00457776
0.00414246
0.00189856
0.00290301
0.00422931
0.00397076
0.00304547
0.00742777
0.00293898
0.00232799
0.00738798
0.00470499
0.00375571
0.0030082
0.00363616
0.00427322
0.00219124
0.000230718
0.00246581
0.00357662
0.00663357
0.00292824
0.00475203
0.00661342
0.006318
0.00363002
0.000454021
0.0039883
0.00515553
0.00685205
0.00714143
0.00745914
0.00411599
0.0048198
0.00443014
0.00661642
0.0053782
0.00435728
0.00401461
0.00491163
0.00623421
0.00510794
0.00260976
0.000966835
0.00318825
0.00332588
0.0045184
0.00364543
0.00592636
0.000596676
0.00237513
0.00564902
0.00134054
0.00316473
0.00288355
0.00622862
0.00482417
0.00243716
0.0047819
0.00105019
0.000654387
0.00132583
0.0026681
0.0073849
0.00625714
0.00555477
0.00389231
0.00114181
0.00482775
0.00368199
0.0051614
0.00556695
0.00327496
0.00179511
0.00746319
0.00134553
0.00363612
0.000198226
0.00170248
0.00170999
0.00457757
0.00676934
0.00742906
0.00518465
0.00371655
0.0049614
0.00485978
0.00373902
0.00133443
0.00669332
0.00428244
0.00688341
0.0031961
0.00256683
0.00184728
0.00591669
0.00528482
0.00337338
0.00447724
0.00556456
0.000880474
0.00560268
0.000893854
0.00572484
0.00657921
0.00542613
0.00329084
0.00551354
0.00704565
0.00384211
0.00515371
0.00508922
0.00221887
0.00710518
0.000316239
0.00712384
0.000685667
0.0041786
0.00504259
0.0038645
0.0074714
0.00590232
0.00229604
0.00353489
0.00614845
0.00358221
0.0074179
0.00328196
0.00680177
0.00642629
0.00329311
0.00093349
0.00281474
0.00531982
0.00403632
0.00600622
0.00589343
0.00430875
0.00303177
0.00499002
0.00236958
0.00452962
0.00430361
0.00610287
0.00742414
0.00326392
0.00542156
0.00233617
0.00499667
0.00427249
0.000521695
0.00738985
0.000394619
0.00261868
0.0036396
0.0026176
0.000284933
0.00367023
0.00438046
0.00718433
0.00638079
0.00542032
0.00640999
0.00112867
0.000383019
0.00743191
0.00173845
0.00306061
0.000748204
0.00185418
0.0039414
0.00479057
0.0029372
0.00465052
0.00114698
0.000365256
0.00396011
0.00530202
0.00663092
0.000296613
0.00529362
0.0045962
0.0060932
0.00610104
0.00696049
0.00522956
0.00100443
0.00228494
0.00475245
0.00746955
0.00394546
0.00463976
0.0047427
0.00618364
0.00702444
0.00582727
0.00427227
0.00717811
0.0032754
0.00477482
0.00293247
0.00512167
0.00700677
0.00219159
0.00233434
0.00520174
0.00692431
0.00400381
0.00747105
0.00441874
0.00435587
0.00745915
0.0032337
0.00444456
0.00440869
0.00382764
0.00206065
0.00296037
0.00379947
0.00163017
0.0023243
0.00412978
0.00297008
0.00234735
0.00156564
0.00626189
0.00233164
0.00681432
0.00369307
0.00407336
0.00415068
0.00319852
0.00748888
0.00218784
0.00336534
0.00152049
0.00285493
0.00169156
0.00198154
0.003929
0.00456707
0.00670906
0.00282657
0.00633773
0.00733161
0.00423761
0.00590017
0.00641543
0.00376295
0.00664703
0.00196294
0.00429711
0.00742026
0.00326784
0.00673376
0.00661777
0.00297412
0.00312442
0.00739659
0.00299677
0.00745955
0.00384964
0.00262309
0.00478874
0.00380755
0.00646599
0.0040864
0.00444703
0.00386561
0.00385316
0.001889
0.0016016
0.00581977
0.00196
0.00205186
0.00196334
0.000505004
0.00163987
0.000545194
0.00102947
0.00456604
0.001028
0.00288368
0.00372246
0.00342728
0.00329884
0.00341636
0.00394685
0.00720901
0.000688136
0.00456734
0.00737543
0.00499044
0.00432909
0.00319257
0.00271102
0.00611884
0.00477177
0.00460609
0.00366
0.00621711
0.00366572
0.00473257
0.000878554
0.000778926
0.00050361
0.00674843
0.00574612
0.00661479
0.00306746
0.000767204
0.00356835
0.00274168
0.00177037
0.00446092
0.00321582
0.00298545
0.00324186
0.00134711
0.00191339
0.00692707
0.00504116
0.00579101
0.00397509
0.00653238
0.00390393
0.00431556
0.00522356
0.00397486
0.00346844
0.000957793
0.00342187
0.00388458
0.00297231
0.0067072
0.000790981
0.00630748
0.00601493
0.00539724
0.00670521
0.00664316
0.00584192
0.00564438
0.00520727
0.00566831
0.00477286
0.00621597
0.00347439
0.00388419
0.00661944
0.00621494
0.00495914
0.00642
0.00650717
0.00234933
0.00382438
0.00679454
0.00635718
0.00385723
0.00181824
0.00511483
0.00396515
0.00321465
0.00586244
0.00614436
0.0027406
0.00743424
0.00477138
0.00663181
0.00270654
0.00131218
0.00368668
0.0068564
0.00192608
0.00681786
0.00416688
0.0038275
0.00502323
0.00661109
0.00563148
0.00669204
0.00651496
0.00481451
0.00390216
0.0043993
0.00365244
0.00557609
0.00717391
0.00368404
0.00536766
0.00547739
0.00388547
0.00499179
0.00440309
0.00601381
0.00515387
0.0034246
0.00320181
0.0056236
0.00107772
0.00622956
0.00231652
0.00453232
0.00335196
0.00332333
0.0060399
0.00233054
0.00612729
0.00340029
0.00595514
0.00116097
0.000923483
0.00636038
0.00235145
0.0037059
0.00346002
0.00365753
0.00392313
0.00361761
0.00391504
0.00463349
0.00590152
0.00297115
0.00427011
0.00586324
0.00373121
0.00378241
0.005655
0.000816172
0.000330433
0.00643202
0.000447354
0.00042062
0.00392093
0.000403409
0.000985694
0.00589619
0.00369044
0.00390948
0.00373875
0.000993747
0.00363296
0.00552023
0.00583115
0.00400792
0.00378269
0.00384139
0.00354827
0.00127425
0.000729575
0.0011497
0.00543748
0.000891352
0.00355339
0.00476201
0.00672636
0.00482729
0.00678246
0.00422912
0.00478986
0.00284693
0.00418637
0.0074896
0.00366974
0.00497589
0.00412899
0.00688835
0.0045585
0.00436682
0.00523071
0.00562921
0.00338512
0.00267682
0.0049904
0.00398111
0.00680411
0.00139265
0.00277635
0.00180813
0.00744304
0.00247687
0.00273519
0.00266866
0.0065451
0.00351652
0.00740266
0.00486022
0.00256495
0.00313612
0.00336348
0.00286342
0.00497791
0.00219702
0.000792135
0.00581918
0.00143027
0.00558199
0.00143351
0.00551571
0.00545394
0.00637745
0.0041713
0.00477057
0.00281599
0.00465717
0.00615676
0.00629694
0.00540018
0.00414461
0.00253689
0.00327008
0.00676704
0.00524024
0.00431996
0.00471089
0.00485198
0.00460977
0.00433593
0.00224412
0.00472288
0.00372038
0.00061652
0.00485549
0.00418729
0.00619086
0.00741179
0.00159618
0.00213767
0.0042544
0.00536629
0.00411584
0.00368024
0.00683697
0.00201849
0.00747828
0.0057415
0.002147
0.00255739
0.00484575
0.00267042
0.00694984
0.00399444
0.00402518
0.00492294
0.00659066
0.00526678
0.000904883
0.00450226
0.00234689
0.00623203
0.00186723
0.00576423
0.0047883
0.00186074
0.00223732
0.00427511
0.00622946
0.000683575
0.00501933
0.00503092
0.00491366
0.00577846
0.0062264
0.00200848
0.00286228
0.00562986
0.00435749
0.00435388
0.00655273
0.00173182
0.00656576
0.00484022
0.000390613
0.00415629
0.00671853
0.000732796
0.00119178
0.00705232
0.000301423
0.000317414
0.00399844
0.00744585
0.0052919
0.00649737
0.00426002
0.00368274
0.00131566
0.00681793
0.00260019
0.00563615
0.00184831
0.00211757
0.00433117
0.00454631
0.00168344
0.00648995
0.00558617
0.00328739
0.00324699
0.00226474
0.00291057
0.00292444
0.00667322
0.00324745
0.00285124
0.00286354
0.00532508
0.00280168
0.00295758
0.00601278
0.00238644
0.00358981
0.00373819
0.00260264
0.00327516
0.0041137
0.00492962
0.00531548
0.00149679
0.00507653
0.00603632
0.00559426
0.000270655
0.00372561
0.00439728
0.000480649
0.000735917
0.00674267
0.00463937
0.000138145
0.00199232
0.000704987
0.00245849
0.00315409
0.000802562
0.00464201
0.00572176
0.00590923
0.00266849
0.00335451
0.0033283
0.00594639
0.00305916
0.00418024
0.00365753
0.00560049
0.00411951
0.0035436
0.001706
0.000908993
0.00266434
0.00264764
0.00386651
0.00517149
0.00341999
0.00741649
0.00605394
0.0056784
0.00526678
0.00502502
0.00184551
0.00469465
0.00596993
0.00172487
0.00186998
0.00131954
0.00108228
0.00375113
0.00679625
0.00475129
0.00652154
0.00137585
0.00418486
0.0013699
0.00405133
0.00351809
0.00460893
0.00445924
0.00544591
0.00320693
0.00167491
0.00332285
0.00477364
0.00186821
0.00385524
0.00748587
0.0040276
0.00392564
0.00196391
0.00461057
0.00182497
0.0032165
0.00747321
0.00627291
0.00239255
0.00390757
0.00332007
0.00743286
0.00489398
0.00387052
0.00422784
0.00395936
0.00370125
0.0044183
0.000808181
0.00055779
0.0040603
0.000722306
0.00425372
0.00274764
0.00326221
0.00581181
0.00415598
0.00447093
0.00381572
0.00383294
0.00619697
0.000522366
0.00213896
0.00319971
0.00506625
0.00605053
0.00361772
0.00490368
0.00229625
0.00706131
0.00167225
0.0038563
0.0064146
0.00392288
0.00607586
0.00505172
0.0041924
0.00542206
0.00339332
0.00676481
0.00586868
0.00335702
0.000919193
0.00675827
0.000755726
0.00202862
0.00191293
0.000716481
0.00399785
0.0034162
0.00190312
0.00305019
0.000739469
0.0007993
0.000859577
0.00301556
0.00449474
0.00302916
0.0028059
0.000777234
0.00237299
0.00351933
0.00505211
0.00404684
0.00372385
0.00308063
0.00533194
0.00403999
0.0011738
0.00177877
0.00555468
0.00246468
0.000991958
0.000641663
0.00418484
0.00060754
0.0017618
0.000613088
0.000784846
0.00449997
0.00294926
0.00652454
0.00610036
0.00462279
0.00069586
0.00113078
0.00456999
0.00468141
0.00674852
0.000881375
0.000857672
0.00674755
0.00219726
0.00349409
0.00672699
0.00215098
0.00676467
0.00677215
0.00402385
0.00459224
0.00142744
0.00597854
0.00666895
0.00471957
0.00507871
0.00504802
0.000929343
0.00182765
0.00656809
0.00113596
0.00568213
0.00604412
0.00598969
0.00171726
0.00441133
0.00246116
0.00249972
0.00522355
0.0066361
0.00115276
0.000603497
0.00421622
0.00366172
0.00185308
0.00507029
0.00560951
0.00286094
0.0026123
0.00294507
0.00805432
0.00247062
0.00102595
0.0074237
0.000990984
0.00477029
0.003851
0.00628419
0.00193587
0.0025456
0.0064478
0.00491303
0.00112956
0.00298292
0.00217218
0.00432991
0.00490866
0.00434188
0.00365247
0.00415031
0.00290743
0.000642786
0.00426667
0.00243667
0.00174813
0.00173455
0.000989031
0.00169225
0.00394938
0.000513877
0.00647428
0.00623237
0.00366053
0.00247958
0.00366216
0.001268
0.00121188
0.00311137
0.00412336
0.00411375
0.00304651
0.00348059
0.00381574
0.0108611
0.00145378
0.00374078
0.00315905
0.0023786
0.00181627
0.00591123
0.000521556
0.00382904
0.00537198
0.00386731
0.00381581
0.0118868
0.00621409
0.00304719
0.00386328
0.00063654
0.0026151
0.00467637
0.0035528
0.00522438
0.00343622
0.000708851
0.00462405
0.0028018
0.00504831
0.00165493
0.00286743
0.00376017
0.00546098
0.00528977
0.00357869
0.00233293
0.00362881
0.00150712
0.000705001
0.00495581
0.00648519
0.00444504
0.000949493
0.00488157
0.00260369
0.00659052
0.00162257
0.00141013
0.00311261
0.00284827
0.00434287
0.006458
0.00514756
0.00310369
0.00125662
0.00198767
0.00118063
0.00597882
0.00204027
0.00221443
0.00278982
0.00339755
0.00597191
0.00166354
0.0016206
0.00331909
0.000812754
0.00340507
0.00338129
0.00402431
0.00453752
0.00321069
0.00444286
0.00111041
0.00485271
0.00451171
0.00400096
0.00558714
0.000720043
0.00299084
0.000643996
0.0014435
0.00074357
0.00203558
0.00373297
0.00117699
0.00330774
0.00115811
0.00194749
0.00199582
0.00215417
0.00271003
0.00478884
0.00401217
0.00746824
0.00130535
0.00365737
0.00328474
0.00404882
0.00122053
0.00543235
0.00421054
0.00573115
0.00746033
0.00284722
0.00164418
0.00283926
0.00289134
0.00480398
0.00226814
0.00648281
0.00304422
0.00297679
0.00608617
0.00213796
0.0021349
0.00405022
0.00185628
0.00359048
0.00354011
0.00201415
0.00285915
0.00298901
0.000204428
0.000703981
0.00223613
0.000725094
0.00319882
0.00306317
0.000553001
0.000872982
0.00436956
0.000945414
0.00324713
0.00419698
0.000568478
0.00255906
0.00652214
0.00310181
0.00130544
0.00545338
0.00063063
0.000322674
0.00215268
0.000775013
0.0021694
0.000869942
0.000813368
0.0051194
0.00439185
0.00270875
0.00165694
0.00359438
0.00688326
0.00189106
0.000659132
0.00368227
0.00152272
0.00412762
0.00196128
0.00591537
0.00556911
0.00334755
0.00301042
0.00407637
0.00161464
0.00459341
0.00147064
0.00658395
0.00534111
0.00568907
0.00293482
0.00489901
0.00669155
0.000734285
0.00236905
0.00218086
0.00366206
0.00251852
0.00304548
0.00125799
0.00390086
0.00102543
0.00299738
0.00482192
0.00295466
0.00338223
0.000821813
0.00181763
0.00159928
0.0058766
0.00440316
0.00185202
0.00391745
0.00293995
0.00499041
0.00740451
0.00592802
0.00379775
0.00361013
0.000766592
0.00356556
0.000474969
0.00365197
0.00430649
0.00292358
0.00481673
0.00364658
0.00388957
0.00420779
0.00191617
0.00531837
0.00133146
0.00685856
0.000345459
0.0013666
0.00149771
0.00195463
0.00412757
0.00524184
0.00343046
0.00456746
0.000589888
0.000716173
0.00334412
0.00212966
0.000977387
0.000859789
0.00226361
0.00110585
0.000694627
0.00340274
0.0043183
0.000534359
0.00375881
0.00419949
0.00400996
0.00106904
0.000458218
0.00373322
0.0032893
0.00121118
0.00241253
0.00206413
0.000714115
0.00320179
0.00102699
0.00113804
0.00330913
0.00417876
0.0012591
0.0053832
0.00219515
0.000224293
0.00679359
0.00409074
0.00364517
0.00486348
0.00295782
0.00293421
0.00692086
0.00292319
0.00405204
0.000755453
0.00148318
0.00419665
0.0013703
0.00836496
0.000372398
0.00646726
0.00336292
0.00211438
0.00480006
0.000939838
0.00381051
0.00295533
0.00233316
0.00509152
0.00384495
0.00648065
0.00209289
0.000636181
0.0054266
0.00167712
0.00065713
0.00253869
0.00338423
0.000926814
0.0015639
0.00478141
0.00470042
0.00096656
0.00173183
0.0023422
0.000783263
0.002586
0.000851579
0.00315285
0.00267766
0.00207956
0.000958969
0.00692884
0.00480857
0.00204817
0.00428484
0.00255693
0.00374699
0.0019901
0.00474358
0.00330779
0.00575607
0.00146667
0.00560391
0.000591793
0.00213754
0.00556558
0.00739773
0.00184497
0.00152546
0.0008109
0.00176328
0.0018412
0.00102365
0.000811141
0.0038996
0.000897935
0.00518447
0.00273395
0.000380566
0.00143042
0.00308877
0.00332507
0.005613
0.00134341
0.00122869
0.00144596
0.00344347
0.00828305
0.0067517
0.00163748
0.00323906
0.00379482
0.00627762
0.000949763
0.00265033
0.00152179
0.00397579
0.00142215
0.00386978
0.00266969
0.00102396
0.00177742
0.0023304
0.0022748
0.00525319
0.000386811
0.00158603
0.00142465
0.00137032
0.00796127
0.00501092
0.000969036
0.000748888
0.00159983
0.00251032
0.0025322
0.00172973
0.00216257
0.0016427
0.00510294
0.00121925
0.00123596
0.005052
0.00109233
0.0032881
0.00232395
0.00263321
0.00117176
0.00240453
0.00534316
0.000628601
0.00324448
0.000616504
0.00257004
0.00344983
0.00293585
0.00174543
0.0011772
0.00238538
0.0035519
0.00278977
0.0011353
0.00367882
0.00405194
0.000666703
0.00634605
0.00354003
0.000795258
0.00323
0.0031712
0.00295047
0.00235068
0.00109381
0.00344867
0.000147013
0.00238156
0.000753711
0.00355769
0.00104846
0.00249308
0.000845101
0.00140123
0.00150878
0.00415262
0.00389424
0.00741053
0.00390246
0.00346052
0.00285545
0.000674343
0.00375528
0.00595174
0.00386006
0.00458822
0.00275096
0.00415365
0.00672703
0.00745236
0.00294293
0.000896462
0.00633709
0.00274642
0.00215442
0.00508292
0.00602602
0.00278833
0.00201879
0.00747109
0.00515352
0.00321966
0.00344954
0.00523219
0.00387981
0.0011218
0.00385001
0.00307809
0.00517408
0.00650052
0.00189794
0.00458116
0.00574863
0.000836773
0.00242607
0.000914854
0.00598749
0.000846901
0.000402577
0.00492448
0.000385604
0.000739696
0.00049052
0.00386267
0.00438507
0.00423736
0.00128942
0.00673226
0.00434668
0.00442236
0.00376751
0.00260134
0.00334901
0.00337424
0.000968134
0.00423986
0.00262009
0.000766947
0.00400481
0.000295285
0.00154031
0.00118371
0.00579821
0.00298406
0.0018715
0.00554331
0.00438745
0.00192708
0.00643397
0.00287395
0.00152572
0.000497685
0.00673394
0.00141694
0.00472096
0.00290942
0.00215119
0.0047911
0.0012753
0.00426932
0.00197106
0.00427861
0.00125598
0.000271422
0.00369135
0.00651565
0.00216985
0.00447923
0.00110545
0.0037407
0.00366174
0.00417776
0.00394657
0.00510646
0.00696783
0.00359674
0.00208312
0.00481417
0.00218341
0.00382608
0.00375987
0.00670857
0.00229573
0.00416215
0.00394351
0.00564621
0.00417283
0.00418576
0.00303395
0.00401954
0.00426565
0.00558869
0.00227199
0.00256053
0.0074721
0.00374846
0.00343982
0.00485947
0.0037433
0.00442971
0.00418785
0.00392367
0.00377555
0.00624276
0.00375349
0.00539421
0.00441685
0.00593445
0.00197812
0.00219471
0.00196174
0.00361907
0.00451695
0.0039084
0.00111718
0.00480827
0.00461933
0.00511985
0.00138887
0.00296811
0.00118306
0.0011983
0.00122387
0.00289211
0.00424528
0.00382656
0.00395053
0.00583928
0.00116646
0.00375006
0.00587528
0.00390472
0.00309907
0.00378956
0.00157458
0.00378241
0.00232796
0.00264489
0.00325211
0.00575204
0.00417852
0.00355315
0.00363673
0.00430162
0.00289492
0.00312171
0.00248393
0.00354585
0.00508195
0.0049218
0.00205676
0.00184582
0.00440918
0.0039839
0.00223686
0.00363214
0.00225012
0.00557334
0.00475343
0.00222813
0.00438842
0.0053535
0.00450654
0.00640396
0.00566273
0.00327981
0.00411036
0.0021862
0.00418897
0.00214933
0.00534763
0.00407694
0.00101062
0.00381726
0.00414051
0.00463364
0.00480791
0.00384499
0.00418349
0.000298812
0.00344744
0.00506548
0.00551115
0.00482657
0.00489019
0.00671063
0.00565157
0.00348551
0.0039333
0.00564952
0.00615962
0.00283699
0.000952854
0.00120026
0.00292164
0.00172784
0.00348657
0.00368586
0.00351994
0.00329205
0.00190479
0.00311626
0.00379841
0.000798563
0.00453455
0.00379838
0.00368774
0.00383095
0.00511485
0.000280052
0.00440594
0.00345376
0.00743038
0.00253648
0.00228118
0.000394463
0.000213025
0.00436325
0.00530974
0.00649877
0.00380398
0.00351712
0.00456192
0.000192612
0.00205874
0.00446716
0.00246086
0.00113404
0.00456701
0.0087548
0.00328362
0.00647374
0.00471143
0.00603984
0.00403736
0.0025265
0.00371901
0.00406504
0.00474647
0.00172156
0.00404928
0.00743715
0.00159063
0.00571888
0.00305205
0.00258806
0.00100047
0.00150461
0.00334315
0.00287962
0.00472009
0.00284779
0.00277052
0.00546586
0.000567748
0.00149491
0.00287974
0.00370452
0.00339964
0.00371391
0.00368751
0.00108396
0.00668296
0.00611701
0.00574165
0.00538212
0.000789206
0.00117154
0.00118401
0.00172141
0.00274826
0.0028797
0.00680481
0.00624301
0.00454907
0.00463582
0.00483229
0.00519772
0.00669106
0.00103231
0.000692861
0.00664808
0.00509388
0.00232071
0.002762
0.00263325
0.0065669
0.00417208
0.00187702
0.00085956
0.00329207
0.00195711
0.00267631
0.00160197
0.000533924
0.0030799
0.0056629
0.00652333
0.00617169
0.00085864
0.00487322
0.00435008
0.00403588
0.00676905
0.000771454
0.000418499
0.000415727
0.00160234
0.00516225
0.00556695
0.00634656
0.00197177
0.0034706
0.000854092
0.000833356
0.000774553
0.000532495
0.000775901
0.00154534
0.00644941
0.000726355
0.00739758
0.000316828
0.00390475
0.000745178
0.00444163
0.00157253
0.00550633
0.00281923
0.00224757
0.00225489
0.00415944
0.00559501
0.00398865
0.000828074
0.000963269
0.00500281
0.00516248
0.000452824
0.000490396
0.00341371
0.00148289
0.000819686
0.00149787
0.00434028
0.00637121
0.000933334
0.00085444
0.00140041
0.00703095
0.0013918
0.00582493
0.000886642
0.0011223
0.00063008
0.00222611
0.00536976
0.00136112
0.00623342
0.00459643
0.00364453
0.00202826
0.00492668
0.00334754
0.00390674
0.00369468
0.00397427
0.00574029
0.00587233
0.00306347
0.0062666
0.00530726
0.00404624
0.00382426
0.0014026
0.00366366
0.00230694
0.00393656
0.00437782
0.00413703
0.000889637
0.00330623
0.00319734
0.00175746
0.000531485
0.00403301
0.00502312
0.00281383
0.000888469
0.00186277
0.00117556
0.00428822
0.00594721
0.00391481
0.00324068
0.00506374
0.00325304
0.00301039
0.00347428
0.00638795
0.00429279
0.00408756
0.00423129
0.00304542
0.00393841
0.00354358
0.000609184
0.00329376
0.00384231
0.00396486
0.00278022
0.00101465
0.00316304
0.00341432
0.00427688
0.00299438
0.00110994
0.00106
0.00366108
0.00310631
0.00035013
0.00146264
0.00201121
0.00397093
0.00144399
0.00306334
0.00391371
0.00241106
0.001036
0.00463009
0.00397869
0.00309554
0.00608712
0.00230972
0.00262201
0.00300555
0.0033289
0.00194431
0.0038773
0.00584158
0.00649791
0.00161909
0.0031468
0.0035938
0.00606574
0.00464756
0.000746652
0.00293937
0.00332159
0.000416968
0.0016024
0.00548408
0.00337696
0.000933671
0.001521
0.00221261
0.00659978
0.00288222
0.000951926
0.00434259
0.00671838
0.00063694
0.00166085
0.00122991
0.00216954
0.00468794
0.00429783
0.00145629
0.000554891
0.000736217
0.00473257
0.00496362
0.00056289
0.00455281
0.00181906
0.0029859
0.00145394
0.000920494
0.00471731
0.00325435
0.00109194
0.00393562
0.00518285
0.00439841
0.00353416
0.00521187
0.000813736
0.000274827
0.00312873
0.00350531
0.000668042
0.000481012
0.000635112
0.00186808
0.0010159
0.00181103
0.00049446
0.00352553
0.00353175
0.000848256
0.0020754
0.00211714
0.00115028
0.000951408
0.000419936
0.00516594
0.0047779
0.000694873
0.00629925
0.00416917
0.000749573
0.00496483
0.00319651
0.0038553
0.00266543
0.00493028
0.00581928
0.00043414
0.000643257
0.00241213
0.000613815
0.00235153
0.00341021
0.0042137
0.00406973
0.00315622
0.00412249
0.00471203
0.00370867
0.00408748
0.000613234
0.000567791
0.00372271
0.00155498
0.00377185
0.00415003
0.00247957
0.0034719
0.00358117
0.00419684
0.000381112
0.00100051
0.00412375
0.000546137
0.00277148
0.00135474
0.00268317
0.00327746
0.00130589
0.00277334
0.000989472
0.00271487
0.00287983
0.00288028
0.00577024
0.00111058
0.00664407
0.00506297
0.00216267
0.00418718
0.00137659
0.00319303
0.00227382
0.00337976
0.000782967
0.00371588
0.00340572
0.00362531
0.00651874
0.00619746
0.00287411
0.00187798
0.00042013
0.00267614
0.000745706
0.00284649
0.00410868
0.00518404
0.00423562
0.00459904
0.00398468
0.00322925
0.00112431
0.00204973
0.00109645
0.000569189
0.00254393
0.00397228
0.000155899
0.000764052
0.00627268
0.00656854
0.00112623
0.0037372
0.000655144
0.000422879
0.002653
0.000679788
0.00120951
0.00260642
0.00068325
0.00153226
0.00515254
0.00348345
0.00094113
0.00120001
0.0054261
0.000879065
0.00576089
0.00262926
0.00393537
0.00261831
0.00166987
0.000755994
0.000916124
0.00589202
0.005689
0.000220745
0.00651189
0.00435591
0.00109735
0.00528504
0.00269252
0.00408104
0.0028821
0.000504897
0.00127854
0.000902683
0.00159823
0.00315235
0.00100763
0.00535304
0.00448401
0.000921067
0.00626246
0.00352432
0.00260302
0.0048277
0.00117716
0.000599481
0.00621009
0.00212758
0.00646685
0.000677731
0.00366746
0.000538168
0.00273792
0.00337658
0.00496675
0.00241635
0.00263888
0.00576149
0.00383459
0.00310415
0.00638617
0.00137743
0.00315026
0.00341557
0.00589645
0.00354313
0.00340422
0.00220883
0.00281162
0.00204624
0.00286641
0.00313991
0.00336692
0.00130635
0.000518537
0.000729272
0.000652632
0.00105135
0.000781433
0.000810776
0.0024635
0.000180691
0.000603015
0.00186923
0.00160471
0.00231944
0.000889843
0.000914192
0.0020099
0.00147981
0.00196366
0.00570066
0.00232955
0.00203898
0.00363419
0.000856662
0.00328514
0.000649546
0.00174014
0.00106536
0.00133553
0.00138661
0.000653838
0.00165774
0.000558386
0.00257152
0.00344277
0.00360704
0.00147725
0.00475672
0.00517301
0.000848182
0.00316858
0.000911132
0.00172108
0.00502206
0.00231245
0.00379768
0.00141311
0.00108016
0.00584489
0.0046179
0.00149432
0.000922897
0.00360095
0.00262968
0.00128612
0.0010045
0.00390561
0.00644289
0.00378703
0.00387845
0.000653959
0.00665944
0.000820886
0.000347042
0.00476417
0.00224304
0.00392272
0.00296045
0.000834453
0.00271932
0.000750813
0.00308672
0.00407066
0.000465906
0.00100575
0.0049526
0.0022678
0.00491403
0.00614526
0.00125233
0.00363979
0.000697313
0.00347829
0.00584056
0.00263051
0.00581782
0.0045807
0.00490907
0.00438561
0.00268412
0.00179174
0.00132912
0.00519584
0.000991227
0.00489034
0.0061136
0.00212043
0.00115833
0.000752022
0.000793788
0.00192755
0.00190824
0.000987503
0.000835562
0.000809808
0.000781559
0.00269138
0.00296141
0.00380786
0.00132918
0.0047332
0.00249346
0.0030276
0.00121378
0.000483883
0.00348142
0.00257148
0.00347541
0.0039707
0.00333092
0.00307218
0.005319
0.00425172
0.00258674
0.00275387
0.0025828
0.00504951
0.00281886
0.00154873
0.000696882
0.00413933
0.000524894
0.00744378
0.00257647
0.00684115
0.00437936
0.000814791
0.00265915
0.001049
0.00349199
0.00329107
0.00306137
0.00420975
0.00441716
0.00408526
0.003008
0.014949
0.00697021
0.000708725
0.00268156
0.00110216
0.00271365
0.00104715
0.00531026
0.00439281
0.00324935
0.00369573
0.00282281
0.000890488
0.00597105
0.00442514
0.00108844
0.00246715
0.00243077
0.00232701
0.00243944
0.0021409
0.00199791
0.00441788
0.00715045
0.00607697
0.00188703
0.00133832
0.00431002
0.000466249
0.00691272
0.00160585
0.00630485
0.00571449
0.00167442
0.00435091
0.00635549
0.00086184
0.00742105
0.00391763
0.00126344
0.00419914
0.00637072
0.00115742
0.00622636
0.00705447
0.000976922
0.00254662
0.00283791
0.000686189
0.00678261
0.00169852
0.00118982
0.00153267
0.00084505
0.00109894
0.00390913
0.00582482
0.00272394
0.00554042
0.00164348
0.00277526
0.00467844
0.00521688
0.00348112
0.00111459
0.00291675
0.00409687
0.00387345
0.00335914
0.00227433
0.00738817
0.00209993
0.000997174
0.00350669
0.00311399
0.00415962
0.00348975
0.00261271
0.00432335
0.00210575
0.00304107
0.000564196
0.00355685
0.00693142
0.000893695
0.00286875
0.000633784
0.000913064
0.00659631
0.00320727
0.00109939
0.00309252
0.000647174
0.00129784
0.000549848
0.00130499
0.000623185
0.00297802
0.0013385
0.00150211
0.000496246
0.00103454
0.00277022
0.000617583
0.000677411
0.00304687
0.000315973
0.00110259
0.00501405
0.00314667
0.00140369
0.000845635
0.00684984
0.0035864
0.000879259
0.000663946
0.0010188
0.00115879
0.00143082
0.00073692
0.0026699
0.00356045
0.00410247
0.0062577
0.00299504
0.00593452
0.00090583
0.00289194
0.00420866
0.000614914
0.00363015
0.00224316
0.00403458
0.00555961
0.00305756
0.00389602
0.00173626
0.00582262
0.00159754
0.000563512
0.0043888
0.00567964
0.00310839
0.00447225
0.000993087
0.00409915
0.0048268
0.00517756
0.00051176
0.00575783
0.00317677
0.00596692
0.00151147
0.00292848
0.0041251
0.00557321
0.00474252
0.0015999
0.00337216
0.0023852
0.00705489
0.00638479
0.00620575
0.00444893
0.00424912
0.00339203
0.00573655
0.00319904
0.00353374
0.00213113
0.00112009
0.000997592
0.00289945
0.00159064
0.00409271
0.00253274
0.00344548
0.00365488
0.00590224
0.00310991
0.00418183
0.0058068
0.00195874
0.00441633
0.00286936
0.000959827
0.00453023
0.00261969
0.00105551
0.00338472
0.00102623
0.00165796
0.00109284
0.000301494
0.00265482
0.0047547
0.00230393
0.000409209
0.00217962
0.00650905
0.0056415
0.00450422
0.00310771
0.0041976
0.00661449
0.0067776
0.00327141
0.00264596
0.00692663
0.00632818
0.00687008
0.00477904
0.00257121
0.00156294
0.00283912
0.00568408
0.00315362
0.0008501
0.00490096
0.00556724
0.00408092
0.000569884
0.000566896
0.0037487
0.00539697
0.00419164
0.00262548
0.0036792
0.00105142
0.0015455
0.00449689
0.00394623
0.00512468
0.0032526
0.00163682
0.00440162
0.00312162
0.00330263
0.00116818
0.00190148
0.00150671
0.000847984
0.000193117
0.00190921
0.00186097
0.00398665
0.00369
0.00317998
0.0031444
0.00514394
0.0040989
0.000445134
0.00575947
0.00172138
0.000489027
0.00319786
0.00287918
0.000685083
0.00189238
0.00382159
0.00368027
0.00684189
0.00284604
0.000998717
0.00370064
0.00134686
0.00874241
0.00235045
0.000708174
0.000778815
0.00306174
0.00271758
0.000958468
0.00423064
0.0006124
0.000533484
0.00112105
0.0074196
0.00609174
0.000311461
0.00526458
0.00047999
0.00178524
0.00293011
0.00100016
0.00150612
0.005723
0.00671831
0.000893986
0.00573716
0.00552675
0.00441042
0.00593688
0.00420754
0.00319411
0.00190615
0.00510003
0.000333239
0.00299519
0.00332306
0.00362174
0.00028303
0.0039215
0.000516828
0.00438154
0.00269489
0.00338407
0.000991806
0.00559036
0.00376935
0.00447865
0.000943248
0.00169926
0.00167374
0.00121238
0.00256416
0.0056871
0.000750586
0.00324718
0.00308878
0.00327406
0.00513993
0.00293389
0.00382606
0.00717946
0.000336321
0.00113836
0.00408003
0.00443693
0.00312332
0.00355731
0.0025597
0.00249249
0.00415363
0.00215731
0.00400332
0.00447625
0.00408173
0.00148617
0.00432097
0.00407341
0.00417233
0.00330913
0.00675478
0.00536789
0.00431422
0.00271047
0.00370788
0.00266846
0.00250131
0.00336572
0.000820158
0.00452468
0.00239124
0.00177279
0.00105896
0.00140753
0.00346995
0.00894651
0.00165556
0.000830286
0.00387034
0.00107173
0.00390792
0.00654361
0.00258698
0.00168236
0.00371878
0.00386106
0.00641617
0.00442739
0.000325292
0.00440949
0.0060299
0.00216113
0.000485348
0.000423656
0.00314297
0.000281031
0.00147338
0.0011078
0.00197811
0.00136245
0.000467751
0.0042905
0.000626357
0.00378236
0.0043928
0.00846007
0.000432881
0.00188464
0.00628042
0.00524259
0.000939622
0.00352384
0.000431717
0.00564661
0.00282399
0.00367941
0.00281854
0.000594881
0.00682412
0.00308039
0.0027514
0.00490934
0.0035757
0.00510971
0.00272606
0.000426158
0.000416932
0.00077165
0.00129024
0.00123039
0.00523077
0.00558606
0.0047141
0.00353439
0.00630557
0.00128499
0.00683349
0.000789537
0.00408755
0.0059187
0.00526939
0.00460892
0.00600818
0.00312598
0.00287588
0.00720352
0.00300025
0.000795827
0.0046844
0.000922274
0.000893617
0.00592621
0.000315466
0.000512986
0.00267566
0.00282903
0.00340584
0.00112065
0.00457797
0.0017955
0.00110592
0.00489094
0.00147503
0.00663019
0.00184273
0.00384498
0.00215055
0.00224121
0.000845118
0.00332799
0.00353177
0.000583344
0.00117223
0.00179062
0.00131491
0.00566131
0.00299154
0.00378204
0.00167249
0.00308463
0.00612341
0.00117401
0.00243191
0.00224901
0.00646366
0.000548069
0.00075919
0.000521068
0.00508557
0.00355501
0.000784165
0.000481911
0.00222883
0.00351185
0.00246781
0.000945662
0.000567209
0.00158287
0.00598745
0.00727052
0.00416259
0.00437884
0.00399028
0.000511548
0.00473849
0.00152903
0.00306355
0.00627653
0.00255771
0.00248612
0.00544055
0.00385097
0.0059537
0.00227201
0.00236144
0.00468799
0.00692175
0.00231385
0.00259742
0.00262161
0.0018866
0.0019621
0.00353495
0.00542071
0.0052852
0.00490378
0.000687181
0.00333645
0.000843923
0.00192121
0.00344148
0.00450069
0.00311531
0.00703499
0.00237753
0.00747109
0.00187481
0.00230582
0.00358892
0.00392885