/*--------------------------------*- C++ -*----------------------------------*\
| =========                 |                                                 |
| \\      /  F ield         | OpenFOAM: The Open Source CFD Toolbox           |
|  \\    /   O peration     | Version:  2506                                  |
|   \\  /    A nd           | Website:  www.openfoam.com                      |
|    \\/     M anipulation  |                                                 |
\*---------------------------------------------------------------------------*/
FoamFile
{
    version     2.0;
    format      ascii;
    arch        "LSB;label=32;scalar=64";
    class       volScalarField;
    location    "0.091626";
    object      omega;
}
// * * * * * * * * * * * * * * * * * * * * * * * * * * * * * * * * * * * * * //

dimensions      [0 0 -1 0 0 0 0];

internalField   nonuniform List<scalar> 
47425
(
59.1941
66.1477
70.115
156.41
150.102
69.1037
99.4307
98.3052
49.394
517.059
132.701
43.6217
72.1347
77.4945
93.958
85.7623
66.9682
46.7903
1366.99
199.323
82.3253
42.8309
100.946
61.1093
44.057
42.8426
75.5883
680.722
68.2645
53.6851
41.8185
44.2085
47.7432
67.0732
55.3742
64.7391
42.3331
67.5577
64.9219
72.8092
70.086
145.25
215.678
144.994
1722.77
99.6315
93.081
77.604
76.9929
45.9486
564.601
242.316
47.903
678.334
109.69
120.619
44.0665
56.8056
76.7256
59.5451
809.971
1247.01
702.376
42.9694
49.3524
44.041
61.4057
87.5167
772.557
43.4605
77.0509
51.8967
48.5757
88.3141
545.487
49.4036
728.43
78.7835
1325.86
289.374
571.393
63.6064
41.8685
46.9233
68.2213
79.6404
53.9984
54.4179
130.247
407.384
42.3031
74.0447
39.7319
113.532
145.746
192.339
46.0273
52.1468
86.6438
77.3183
60.0852
90.9045
51.1025
94.7943
48.8325
52.3516
54.5938
92.0768
87.1907
43.5396
316.768
61.75
78.5148
153.24
42.4237
861.263
41.697
224.93
75.7485
60.935
78.7703
48.5449
58.0934
62.1812
94.9508
59.2224
83.0366
49.1901
103.414
40.1999
43.8492
91.986
123.147
116.118
126.744
67.9395
47.1997
62.7293
67.5
94.4205
70.9426
124.883
68.5419
100.09
50.3988
49.3287
123.926
62.6849
146.82
72.3636
101.875
495.37
48.7557
679.828
45.6156
81.7877
58.6024
866.123
88.4189
69.0752
42.9091
42.543
48.9832
44.6187
434.104
788.274
45.4431
561.55
104.34
716.774
626.703
82.4473
73.8621
45.0451
68.9786
65.5174
716.56
68.41
51.4381
41.2464
963.304
50.427
58.8127
44.501
44.6589
48.3736
55.4834
73.9652
146.183
58.2747
47.9245
70.3563
81.3039
77.023
44.0724
41.2384
61.8698
69.5728
42.1551
82.1314
64.7546
122.384
84.21
41.6232
48.595
156.978
51.8267
41.4726
86.5439
48.4399
61.8723
64.8721
47.2035
92.0728
63.3546
62.7973
75.3572
268.842
45.8607
92.8856
302.575
117.969
148.185
94.6258
164.418
256.205
43.689
126.213
47.0429
61.8764
70.8081
70.0399
99.2907
49.3224
162.248
90.0556
351.22
107.559
293.77
177.972
81.8664
58.692
40.4845
99.1473
43.7144
49.4523
67.2021
60.5999
42.2583
75.1814
41.3088
236.904
65.2781
49.2833
89.8984
40.4943
43.4781
118.016
92.1874
48.3484
122.621
47.205
77.53
133.165
72.558
87.412
42.3256
72.6245
61.9009
80.5322
78.7607
257.189
334.963
47.7187
242.601
176.657
243.178
107.806
318.131
180.505
811.545
58.7611
787.21
120.097
77.6154
82.3627
101.716
88.9535
88.8019
43.9727
620.432
42.3306
50.3438
55.1712
66.1987
94.6179
108.049
45.5808
64.5908
54.8787
83.9234
43.1368
82.314
59.1119
842.445
994.28
646.73
40.372
47.1567
42.1983
96.3521
671.027
83.9852
113.131
314.866
70.3841
102.551
120.003
91.6273
464.14
272.235
42.1187
59.1304
46.2489
78.1695
41.7381
76.4537
62.7544
52.0951
70.0496
81.7579
744.165
55.2491
72.3
129.125
40.6775
739.061
49.2164
44.7277
51.4884
42.9133
43.2789
45.9765
50.7399
51.156
48.8681
57.7983
45.2773
81.8936
79.9534
43.9182
44.3013
60.3926
45.2744
45.2122
45.408
77.947
41.7698
46.7701
93.3999
53.2282
59.9255
73.998
92.4679
47.3251
47.8821
127.936
48.2153
65.9535
43.0076
126.35
817.834
76.7066
41.9946
200.232
42.0019
114.091
92.928
72.5503
42.5125
63.5014
42.838
41.822
73.7862
82.9671
82.8571
80.5971
51.3445
48.7485
79.7689
47.3571
45.5548
77.525
56.2302
63.6903
47.4527
61.4201
85.2947
69.6519
48.0241
489.791
43.529
450.679
66.8657
101.84
99.0673
45.207
142.58
44.4749
90.4192
45.2977
447.02
360.811
42.4703
48.8266
77.8985
83.4441
81.0287
72.3227
78.768
87.0209
64.8605
47.0296
98.1363
69.5756
46.6894
98.8433
76.0425
51.3653
146.254
1096.41
43.7622
281.153
907.444
88.2165
928.826
679.143
46.2803
77.8783
73.719
76.8781
587.926
83.2044
48.8139
47.1321
72.9714
73.3412
77.5246
78.5424
530.4
646.91
154.379
65.5412
72.1155
126.73
57.1227
42.5636
67.922
42.1031
83.9823
75.811
132.705
68.4689
49.3502
79.1279
58.6645
74.0364
42.1799
63.5772
65.4059
66.64
63.538
108.518
115.114
61.3064
79.8444
42.1368
600.084
129.856
75.245
46.3424
129.134
252.649
45.6355
41.4238
45.7889
47.2993
67.2747
48.1355
100.807
82.8987
46.5609
54.7773
136.795
97.5948
46.1688
48.6961
56.7283
52.5465
49.2687
49.921
42.9659
67.3845
59.1125
106.955
60.1566
44.553
45.0075
41.9176
71.6927
122.731
43.2263
40.3098
57.9813
62.1335
57.8236
58.1874
66.4634
71.45
50.6288
76.9245
100.902
423.384
59.2459
67.242
52.2867
49.345
138.854
136.264
73.2333
52.2976
77.1565
109.459
46.2133
147.713
48.4578
256.264
46.2319
49.6292
57.1314
131.805
39.3891
70.7941
71.3439
77.0221
41.366
50.8045
1098
61.4676
140.583
43.6836
102.195
46.1612
57.6214
86.9345
72.7638
67.5504
43.434
372.779
54.0283
57.4259
55.1834
46.8529
43.1002
56.9464
123.354
48.0043
75.0803
66.2904
41.632
284.203
43.2223
67.7518
449.736
69.4018
40.6791
317.327
598.883
41.883
618.192
648.683
68.5661
46.5983
50.8308
42.7895
84.9607
84.5307
720.092
41.921
121.287
48.1141
121.198
55.6223
85.3081
64.8951
451.387
294.272
50.8231
92.3488
99.7177
82.9174
118.521
121.793
47.6187
95.3257
132.906
97.3976
67.438
141.598
50.2009
46.9133
141.814
91.6866
76.1653
115.215
98.0885
66.9846
73.417
63.0277
52.7214
67.6208
45.7659
53.0288
1282.24
61.3843
79.5002
1043.94
1025.05
40.6276
76.1997
1553.25
162.863
94.8611
322.528
119.462
760.4
58.5235
47.1577
60.046
176.903
113.729
112.841
45.271
115.398
66.3011
81.2874
47.6612
77.1061
57.7935
468.158
717.761
117.692
48.1255
83.4102
41.7883
109.456
47.4195
58.2117
63.5018
65.0528
43.4332
168.793
75.5056
46.6156
65.5404
179.692
543.672
241.588
83.1465
41.6393
73.464
41.7408
630.387
67.8886
679.976
81.0715
116.792
65.7995
66.595
57.6585
86.166
53.5972
86.849
56.5014
204.262
90.6897
49.2336
72.8054
88.0725
387.789
65.818
199.545
69.3016
48.6641
43.5531
135.634
79.1867
72.6794
45.9283
61.2521
67.2668
69.6923
79.6681
77.3292
63.5173
124.829
194.375
69.4317
97.3946
65.8983
108.934
88.2966
46.9818
145.398
60.3765
76.979
75.5541
43.7349
292.768
415.223
91.4947
65.9127
45.2881
88.5724
55.3953
130.416
42.5265
292.906
77.3417
42.4401
74.404
45.2969
57.5097
67.7476
49.3352
86.7484
40.312
45.6193
48.1199
163.426
40.2097
329.871
295.241
270.856
366.72
75.5692
231.302
59.1078
45.3137
141.67
304.625
401.47
103.671
62.0333
144.86
110.805
166.382
123.683
92.02
55.2405
68.5284
107.892
112.248
54.6071
78.4165
263.746
56.0769
62.7094
153.542
117.52
113.403
184.959
750.838
469.878
216.999
239.589
80.6894
116.451
42.8313
44.632
69.009
410.355
169.494
68.829
70.7569
40.5429
358.172
412.527
40.5466
164.669
86.712
40.5304
161.206
40.3783
41.4393
70.6933
69.9993
82.0576
46.1604
40.879
59.6952
67.2227
65.7941
135.266
107.859
41.4786
235.875
47.2142
45.7867
46.5515
188.58
77.1027
186.477
117.121
53.4719
42.4196
66.8052
1426.41
68.9354
79.3584
68.4977
62.588
61.1336
109.506
114.373
127.943
296.986
99.6332
823.483
49.4171
64.2439
56.1576
66.2064
44.3034
160.863
120.338
43.4104
280.597
91.7612
71.5014
228.65
78.2038
54.1927
67.9369
70.1562
67.3731
109.31
306.868
64.8259
73.8289
203.021
216.161
688.867
210.902
85.3943
167.197
43.4193
45.7449
109.491
195.707
84.846
82.0446
89.2407
101.288
47.7208
67.9969
99.8057
97.0731
88.1814
348.157
440.038
88.6958
164.033
202.302
600.597
249.062
197.672
90.6426
67.1564
96.5893
89.6974
256.627
45.0081
47.0752
96.4886
351.606
117.04
78.5538
95.9058
52.5087
106.971
125.21
78.6074
533.862
53.2073
65.0235
131.331
97.2572
65.4216
66.1371
104.734
107.492
86.6907
56.2749
119.828
43.5637
43.5927
43.7012
77.7592
56.613
144.357
52.5529
209.18
278.158
263.368
98.1734
83.7004
43.7208
70.3033
112.455
486.949
259.54
718.765
44.3285
57.6298
54.3253
293.61
86.8636
306.579
234.351
228.32
134.483
214.255
88.476
83.839
71.1272
45.598
129.822
66.3173
75.4395
265.506
68.3566
68.6659
50.1128
264.776
373.83
150.133
210.117
642.572
187.43
88.0471
66.0788
87.8219
101.329
180.047
183.775
331.819
45.243
57.9787
70.55
47.817
61.3665
100.071
92.9706
54.1749
123.508
51.7806
75.1478
49.703
47.2952
121.074
67.8341
109.793
43.1525
44.3158
158.151
45.1809
96.5882
102.091
43.1201
62.465
94.2587
78.4737
68.8061
78.5641
444.418
180.65
121.703
104.321
1836.44
1065.61
578.617
427.35
98.7871
49.0197
1305.04
384.042
52.8537
62.4974
104.245
86.7173
394.772
135.422
43.9589
110.534
58.9624
49.6091
198.884
947.916
135.645
1252.1
149.208
250.013
634.144
59.3023
75.1857
131.28
356.564
90.2859
44.292
45.0286
735.381
126.567
379.881
71.8002
157.462
46.8778
51.9322
473.361
497.289
80.2972
50.7312
76.8979
590.419
42.6787
51.1754
407.556
466.382
72.5919
42.681
1023.3
639.623
562.778
98.4313
317.152
491.977
665.178
78.7759
85.9255
110.943
63.31
104.006
472.331
1310.77
64.0378
60.3154
58.7212
51.1323
45.7457
80.4274
118.65
65.5085
49.5561
47.1785
98.9819
428.095
1230.49
49.9551
224.582
107.111
71.4818
156.607
56.8367
89.0787
74.7812
45.214
196.347
52.6446
537.869
42.1559
773.216
385.294
661.14
200.282
101.56
61.4729
102.123
78.2924
221.321
1446.16
102.658
395.596
173.949
516.087
163.282
737.767
636.268
88.6271
85.8095
1726.88
87.8312
48.602
71.6334
696.589
1136.7
77.8111
51.5636
489.94
75.1731
524.529
754.466
106.082
110.033
819.644
101.586
43.2687
629.452
50.2104
368.528
966.78
41.7462
68.3718
81.8945
56.4611
121.029
99.2278
41.4777
119.614
87.8072
115.469
57.4237
41.7127
210.394
234.44
571.407
49.5882
91.5559
242.518
44.4679
845.83
84.7979
108.926
149.887
418.974
85.4968
320.717
179.829
145.009
56.6115
442.54
221.051
236.722
89.1233
161.283
61.9478
76.029
74.5238
354.335
186.533
112.77
703.714
150.1
108.38
238.058
118.271
139.454
672.171
222.993
76.6005
150.984
83.8607
148.415
307.396
557.689
58.0043
44.8086
62.3934
427.802
63.5149
288.494
57.6282
62.3145
47.6539
162
53.8186
201.204
327.535
53.1695
59.1892
89.9872
78.2764
943.029
393.303
113.253
747.369
354.273
121.981
215.246
64.2458
55.5687
678.39
55.6693
337.814
372.067
44.1166
57.6306
123.948
96.2748
56.2592
70.143
173.852
70.505
76.4603
65.1348
78.8676
257.87
65.2783
184.665
150.906
257.95
54.3139
714.261
440.632
53.3725
595.6
254.501
56.0296
102.573
572.978
212.384
45.2939
188.755
505.322
210.748
599.384
56.0201
581.094
119.689
54.1401
68.8143
105.679
193.513
116.309
64.1726
219.119
51.3897
232.215
104.278
1343.77
140.136
79.4828
114.135
275.07
54.8751
304.842
114.766
104.978
549.776
76.827
77.3462
1200.76
42.7226
100.118
371.044
61.1578
335.287
383.468
148.346
68.4604
81.6697
918.237
199.771
518.604
210.041
76.6226
69.6277
98.7295
689.273
629.523
311.247
86.7253
48.2483
83.7014
84.6844
128.087
320.543
92.4524
55.4384
61.4894
60.3558
43.9534
85.005
42.5641
46.8127
118.297
78.0725
44.4097
125.887
246.366
59.0091
46.3471
127.807
63.5575
48.1053
53.6032
96.427
92.0301
48.3458
96.9012
468.843
87.5037
48.2223
53.9659
42.0022
254.83
65.9164
52.0026
570.148
413.245
290.067
46.3408
556.294
146.657
75.3187
846.124
89.4273
826.578
89.5405
66.179
81.4109
66.5517
42.9333
81.1031
82.5145
88.5616
110.794
87.1324
101.352
166.292
78.601
83.2365
437.423
86.5155
1459.86
71.1328
692.123
46.3871
116.436
171.078
50.6425
66.4888
189.863
42.7474
431.612
340.183
1081.21
50.1883
608.918
60.0786
105.832
186.194
61.4203
586.961
90.4328
292.224
77.6448
748.739
680.722
78.107
41.7697
420.644
66.0827
426.828
85.0346
93.0857
68.5657
71.2635
55.0266
42.726
87.4501
312.665
75.7459
176.451
79.6219
86.8686
40.3716
154.648
294.736
88.1813
241.782
138.541
68.7367
117.801
75.9135
72.5387
54.2904
145.224
128.799
48.5681
83.7524
80.8068
64.5055
91.5709
286.861
285.535
77.907
86.482
344.082
85.63
51.3608
62.7807
46.1079
159.517
162.819
203.932
104.428
67.6772
73.2724
63.0591
56.5231
58.119
56.7457
483.293
129.25
652.62
513.436
626.275
57.9491
65.9852
73.0182
69.6987
47.1624
325.512
80.4333
45.7793
75.7051
111.408
76.692
253.837
75.7866
154.291
118.24
93.0825
48.1664
68.4153
85.7365
84.5849
66.2695
108.703
95.8792
187.733
85.076
68.9092
78.4314
145.844
164.435
63.9017
77.3287
130.835
93.9374
166.887
51.3057
56.3139
132.285
67.5092
54.0778
73.4246
42.7592
55.8107
86.9196
71.4526
360.002
69.6077
88.7979
49.7876
68.3238
590.387
76.6078
83.2068
58.8702
58.9142
84.8763
84.0702
902.467
106.45
286.817
50.0774
58.8901
69.7778
40.6525
47.4098
107.624
78.0496
47.4975
43.8818
320.479
106.497
510.727
115.908
266.629
103.999
77.5235
108.686
476.732
178.291
93.403
76.0939
918.912
62.4589
77.5552
82.8087
79.4328
76.2667
905.07
65.0452
87.0532
46.7615
119.099
54.2301
876.409
968.625
65.0809
52.3632
42.1049
86.549
89.8654
59.6098
1130.37
591.981
62.7204
134.066
487.562
63.2108
212.843
124.655
42.0636
60.0911
46.1768
71.6396
212.131
82.3267
75.2247
43.6369
54.844
72.5022
48.6131
357.739
63.461
146.369
177.574
420.215
357.336
98.7056
134.642
77.0654
133.154
114.858
42.1243
590.191
361.215
131.227
87.298
106.052
86.748
84.5516
216.834
40.5391
44.3436
62.1879
65.0122
135.303
72.2449
347.152
384.814
44.2144
131.226
42.1697
41.8806
80.2632
59.8789
61.61
53.2738
40.644
214.698
319.05
41.0332
77.8274
279.463
353.876
47.1101
41.3721
103.978
184.118
900.106
90.7464
395.348
325.451
608.438
389.852
72.2609
48.3508
41.4475
58.4301
930.923
55.8144
85.6803
78.7157
40.3003
605.822
1006.03
984.826
191.317
237.587
49.2543
44.5774
53.2637
82.5442
638.165
529.5
395.543
531.68
371.902
53.1439
47.4623
834.018
47.8091
875.485
95.2421
873.004
79.4155
151.328
121.732
171.188
169.166
169.716
160.132
63.0045
88.7174
68.1502
64.5567
72.1023
66.0457
1282.13
702.335
89.6311
367.685
576.805
360.465
66.324
44.1408
543.332
491.97
531.521
42.398
771.044
49.1393
988.91
546.195
655.642
298.18
52.0767
62.1833
45.1235
71.095
88.868
173.532
80.0212
83.4933
75.9381
92.1172
76.6612
48.3993
46.2415
124.617
43.8067
50.7627
76.2183
100.048
97.0117
83.8826
147.454
88.4524
78.5867
125.032
95.567
87.7258
90.367
148.058
972.943
58.6746
315.134
68.4909
87.6824
507.78
62.9494
57.1687
46.2933
114.947
92.2252
53.2773
106.556
97.9285
81.3556
45.5563
65.0207
83.2428
71.936
100.927
71.9162
94.9947
273.536
86.8447
77.8036
72.9814
107.052
76.3178
354.727
43.087
65.8355
102.953
332.823
240.814
87.8724
98.0958
916.137
225.119
183.073
88.7645
71.5575
108.002
86.3329
53.8329
126.277
76.6153
85.7032
420.839
49.1636
161.046
125.54
106.652
106.183
200.986
76.2424
57.6078
42.9482
52.7745
97.4586
78.2249
385.797
61.3395
92.0483
127.909
103.533
838.629
56.1227
122.501
104.587
267.957
415.823
140.226
42.2144
134.713
64.4143
44.7492
41.6651
551.304
99.3264
56.6145
423.734
130.171
67.3473
142.893
649.703
1100.78
180.654
71.8982
690.056
101.727
277.561
145.493
604.91
230.501
123.837
91.9437
493.608
90.1967
70.5415
85.8142
98.6483
53.405
61.8876
339.4
43.6338
99.3669
527.502
154.769
562.062
88.9484
436.896
47.8842
1138.11
105.892
106.079
659.462
252.385
316.489
475.763
463
259.354
85.2781
85.098
423.264
55.6849
84.0318
321.805
66.2209
56.0348
75.9831
169.884
69.5236
49.1612
725.795
476.616
194.873
253.189
163.958
91.258
79.6871
79.8974
109.337
79.222
56.5314
84.7957
63.907
254.625
263.746
121.647
53.9714
105.443
82.7422
128.559
103.976
96.1781
77.9524
257.287
58.1974
67.9662
244.397
130.351
601.759
206.96
96.9242
652.651
136.341
111.485
378.59
133.074
127.393
49.1825
492.001
41.1357
55.5048
49.9394
84.3471
67.0666
97.8236
255.608
104.634
119.531
78.4166
110.521
99.1942
41.6941
360.547
162.305
564.463
994.687
106.752
387.442
156.508
68.0097
384.611
66.4253
60.2195
110.481
130.713
694.053
503.923
53.5961
316.706
351.022
95.9359
1914.81
395.683
166.507
340.519
61.3736
88.3848
240.499
333.993
145.657
719.528
52.8434
51.3943
154.297
49.9511
47.7471
106.156
322.922
529.548
50.0509
136.781
42.6718
144.355
62.1192
143.754
333.833
93.3496
326.715
59.636
63.3992
755.428
43.1112
53.0917
102.632
53.2124
119.797
264.775
45.6181
924.362
545.863
843.059
497.317
119.396
66.1407
52.034
61.1019
85.3396
45.3124
82.9588
147.799
60.5678
68.8858
647.579
44.9517
170.239
43.263
136.794
71.2614
719.784
126.416
122.557
44.5191
126.442
149.833
48.3364
59.2445
95.4307
43.8269
195.199
95.0859
102.593
54.7092
44.3072
99.9563
45.547
124.876
474.405
43.1747
74.441
50.0861
62.0865
250.927
213.311
121.943
459.799
860.439
250.199
82.9459
383.507
283.678
621.507
74.4393
213.215
258.929
339.2
321.29
776.052
53.615
43.8691
213.458
623.753
52.9013
412.113
124.051
428.564
80.0763
64.3184
674.293
623.919
256.548
56.5381
240.933
129.166
334.537
43.4782
196.786
62.6805
55.2865
93.8732
93.5432
286.087
98.4274
63.3278
159.276
78.0418
286.34
443.146
42.6521
84.148
52.8491
836.963
100.443
129.702
235.146
136.469
70.3429
42.9916
89.6488
74.2709
530.401
42.1519
104.117
310.132
63.2579
49.2812
75.7449
72.2469
665.289
135.556
209.855
93.1963
72.1341
900.244
512.271
58.9409
140.723
59.0884
46.3255
419.951
99.5819
535.744
56.0611
48.9653
92.5598
60.5888
46.2444
59.8599
70.9728
134.11
275.729
215.894
340.258
68.2732
69.4125
46.3284
168.381
612.53
935.399
66.1907
360.477
176.146
688.397
75.3931
339.942
108.015
184.028
127.951
79.2384
251.599
78.3705
191.652
111.961
59.2747
1000.8
107.579
416.963
107.394
77.7074
108.047
177.523
71.8796
66.599
410.426
102.584
118.644
56.139
121.836
445.908
123.18
78.9161
154.272
46.4688
62.5744
43.5004
74.279
75.763
145.877
67.9669
90.3205
94.9676
74.134
73.6427
62.5436
71.829
59.5961
431.843
48.3788
105.858
47.6293
66.1688
118.86
71.1025
52.4992
76.9815
96.9088
84.4795
123.626
340.983
45.684
187.642
402.788
158.581
156.246
49.9514
156.802
92.1048
356.479
63.4879
43.3924
51.7764
179.893
53.9207
64.6037
850.35
228.585
387.813
44.0604
49.7598
194.148
81.1255
55.636
134.237
49.1072
77.0402
53.6383
391.512
43.8601
152.545
44.257
42.5415
74.042
66.0326
131.139
106
41.5189
316.227
62.5247
65.9331
87.2735
807.173
63.8405
61.7959
121.619
63.1673
56.5801
118.762
58.9391
51.0208
107.57
210.872
123.243
80.5609
361.867
107.845
241.613
48.5037
182.4
62.6682
92.8487
246.662
48.8813
135.101
65.5789
82.1137
150.844
70.3789
555.811
115.072
42.8594
511.816
131.392
910.538
307.047
230.2
84.4361
91.3056
122.129
365.239
58.7622
425.604
91.5958
351.897
64.6516
437.568
61.4888
249.83
215.963
118.545
325.516
500.736
345.131
1069.56
543.211
325.093
415.626
427.513
322.285
41.7699
93.9148
339.877
68.0498
665.519
57.3788
519.436
608.877
114.258
98.3719
73.8084
43.3772
112.538
46.175
247.698
129.26
81.6835
185.253
83.7544
151.403
70.8694
53.5241
108.958
48.0155
215.006
47.1107
67.5421
692.163
64.8588
42.1769
100.21
63.3755
847.423
286.525
73.2766
75.8818
170.235
48.6633
84.5742
48.8972
49.5592
102.334
73.9265
54.1648
60.7466
340.142
87.2871
53.4276
42.4017
43.4643
45.1812
201.521
69.7291
92.691
53.1732
84.8468
97.4467
54.2596
214.979
71.1927
47.2596
58.5188
82.155
132.043
110.453
97.7983
49.361
118.08
83.2602
50.7515
50.6611
74.618
88.3273
100.894
66.2309
119.686
64.8851
92.6881
113.629
319.893
777.83
1106.82
118.533
59.0087
513.827
166.73
235.422
44.227
49.9512
42.3255
88.2957
70.2693
42.4131
42.3681
43.9452
107.885
41.4916
46.7098
41.7864
58.3548
191.319
51.1328
109.51
51.0111
95.4255
232.438
57.9855
52.7303
67.1575
1088.03
825.511
99.8161
67.118
67.9767
58.7222
115.297
484.059
61.7378
65.83
89.3361
41.8836
92.9237
48.8617
86.988
109.309
89.8084
61.0609
199.023
279.55
62.1529
2032.2
283.088
194.792
61.833
83.1528
96.5107
112.051
53.4072
73.2812
293.565
44.7568
186.393
656.067
102.781
121.264
574.593
62.9962
77.8984
89.2298
41.5737
114.031
399.839
90.0649
91.5616
434.661
223.95
1006
619.966
98.1054
47.2371
136.973
66.3752
184.696
151.055
564.577
49.8488
45.3031
633.607
52.5713
187.483
78.8469
101.132
657.419
633.7
48.9856
42.3064
911.311
48.6316
52.1903
64.8133
47.0182
80.8383
166.429
276.058
60.3392
570.575
101.743
51.093
83.4161
716.289
76.7183
598.27
64.0524
60.9952
84.1191
82.9797
59.8835
117.563
63.5733
551.012
116.84
121.797
529.608
119.42
52.788
753.423
119.455
102.35
86.5901
186.226
104.228
82.0028
44.4048
264.563
72.2022
70.3848
62.8199
131.555
83.7952
58.8498
44.6415
67.7468
141.199
72.228
64.9326
79.7367
501.836
71.7422
71.3787
69.4975
90.4419
45.9029
63.9771
63.442
130.139
106.536
139.914
146.378
88.0266
418.558
63.2578
55.8207
401.929
347.671
475.641
86.7817
339.927
51.55
518.687
93.2278
279.999
94.1329
43.4854
112.028
194.521
92.0962
69.6937
42.3718
62.7842
408.749
62.9726
48.8968
53.0988
1374.32
250.54
43.8911
1427.89
548.731
320.907
261.855
580.601
251.447
78.3217
235.93
86.6657
103.252
380.077
827.872
61.7769
43.8563
53.4179
482.048
44.19
825.746
156.717
125.708
157.895
121.684
329.132
41.8063
113.523
121.07
55.8085
102.448
53.0656
116.659
1948.47
1742.58
822.202
96.1753
728.218
42.2133
48.5019
60.5508
98.2118
43.9176
54.7373
41.6841
73.3278
88.3734
46.7772
53.8329
74.9162
46.2305
98.633
118.183
43.0858
112.546
117.743
42.7405
51.8998
854.617
55.3778
842.989
588.445
122.649
129.672
82.8369
121.252
67.9272
50.817
644.648
57.6894
56.1707
46.8578
49.2884
76.8825
134.717
141.746
172.333
112.831
45.905
578.511
60.4722
328.75
414.77
63.679
328.932
87.126
52.8709
60.5942
57.4085
61.5077
45.4999
126.176
50.7789
300.08
216.934
336.064
56.473
56.2945
81.5972
267.714
508.009
93.9632
145.466
63.6879
252.001
63.4027
196.094
382.424
82.4578
56.1226
91.6058
888.269
61.3734
58.8596
118.266
46.7356
136.689
121.58
159.297
84.2572
274.865
169.917
350.689
71.3642
257.355
443.889
313.364
52.9889
170.706
86.8364
101.85
53.384
65.3461
62.1817
486.353
84.3934
96.7403
342.21
81.3596
61.8632
94.8504
45.1143
139.33
48.248
63.6635
161.878
103.559
77.4321
163.063
95.0921
96.6277
79.2086
124.131
42.9745
272.408
231.301
102.983
105.484
43.8683
234.396
58.7559
42.7014
83.6166
45.5247
105.634
87.721
49.9614
55.0041
98.1757
295.077
208.424
49.6423
794.861
42.819
97.5308
93.5096
48.1617
745.714
144.702
652.964
50.0256
66.942
530.845
667.704
84.4803
99.4801
184.75
127.983
48.4285
106.007
63.2502
142.115
81.897
131.024
49.8482
132.703
99.1653
104.507
59.4761
86.6108
41.8585
59.5585
608.535
442.469
103.03
107.526
97.5547
84.7786
83.8879
161.77
43.1931
48.7912
59.2125
84.691
79.1208
66.6169
109.547
50.9118
57.3154
51.7937
70.7308
57.3528
68.3619
208.011
91.6171
67.6937
899.82
75.9597
63.3485
77.0574
42.6095
81.7972
203.52
45.0778
73.7559
80.2582
324.298
64.2259
63.1184
93.6253
1405.23
94.1591
155.076
115.757
64.2888
92.4046
80.0008
62.0904
851.755
92.3905
68.3204
61.9874
41.932
287.012
45.5279
291.085
414.024
112.119
71.8083
59.316
118.712
86.0272
55.17
443.882
117.641
287.829
42.669
136.394
425.889
117.869
47.9377
97.6616
52.8401
404.993
54.72
55.6754
87.5434
41.0393
59.3496
86.7951
50.3445
418.15
41.8516
399.747
44.7611
71.4612
66.1648
145.332
84.3985
122.397
110.583
573.834
110.914
115.877
73.2786
43.938
103.882
57.7984
51.8842
78.3352
74.1701
61.9819
118.861
46.1294
65.6365
46.8458
305.305
85.9935
506.608
549.695
328.025
153.146
67.3259
70.0208
59.7907
188.695
87.2694
42.6223
41.3742
111.1
154.363
45.5497
69.844
1005.09
138.12
64.6299
73.3961
347.967
822.651
58.8039
549.097
538.672
198.525
369.213
158.297
552.929
71.2339
213.53
736.007
73.0697
41.3772
60.5378
109.349
311.84
42.3564
43.848
70.0972
138.008
152.186
804.421
106.488
1056.96
118.103
68.257
81.6021
75.1459
76.5669
453.268
199.388
431.145
486.014
66.3929
322.618
1030.77
65.5111
192.475
126.205
401.577
150.051
130.549
683.343
999.489
108.781
639.885
122.61
449.363
79.4809
42.9761
149.21
816.583
700.168
61.9172
98.9993
142.709
98.8096
260.18
48.3836
72.2004
965.446
336.666
326.072
87.3728
298.685
65.2199
320.78
54.9645
119.141
182.244
265.255
86.0645
122.599
260.337
105.1
767.895
70.3575
58.918
413.437
45.9224
141.786
44.2893
54.1365
41.909
79.7802
416.853
426.626
323.536
57.4095
62.9784
318.416
56.389
484.811
71.9012
52.4599
78.6197
198.335
153.844
588.992
49.2928
71.055
62.2256
268.596
97.8409
569.709
906.22
416.667
104.578
59.1642
432.27
317.663
146.244
45.7355
61.2018
41.5508
669.469
285.212
391.661
1081.36
238.279
92.0964
77.7081
755.218
406.899
62.3695
87.483
99.4579
417.611
60.1649
46.7159
88.2125
79.4405
766.106
240.791
220.579
213.952
308.565
307.655
159.011
87.8158
813.108
365.883
701.607
199.711
389.355
669.995
149.121
57.19
108.108
58.1489
58.7013
78.1597
79.4302
133.246
265.464
83.1761
176.906
180.586
144.99
114.129
189.216
114.928
104.054
127.472
773.515
1105.01
383.531
68.7463
115.497
81.7116
238.019
603.835
155.639
527.142
78.8484
467.375
370.07
171.989
46.7013
42.5086
68.1119
63.1342
710.519
95.1201
57.5119
433.287
70.2755
858.666
476.903
107.474
475.453
62.9008
43.716
45.6485
41.8695
96.3699
59.413
87.9058
126.165
71.2793
43.8248
138.623
568.378
545.403
43.1168
104.149
46.8295
61.3146
56.1381
590.361
47.3246
53.4704
52.8018
102.436
44.4416
54.6337
99.1002
54.5182
57.5794
52.0115
237.217
43.1685
55.0928
134.108
403.914
369.469
63.6611
429.153
631.667
53.2625
51.775
163.353
77.2828
340.612
70.471
88.2649
83.1248
210.642
66.8361
88.9841
989.119
496.909
81.6867
613.875
45.5519
45.8627
60.5448
43.9036
46.383
69.9447
52.3374
78.6032
216.494
87.0148
296.066
241.3
182.403
79.1095
41.8999
492.834
125.65
80.4122
525.215
99.2662
675.852
59.9017
419.564
43.4191
182.721
84.3231
220.719
45.4816
83.5953
74.8435
489.884
49.0445
41.7337
196.295
80.0259
140.706
59.9465
73.3389
91.5374
46.506
139.708
47.6283
62.1252
143.276
92.9675
399.303
67.3646
44.7494
60.0358
42.4822
50.5355
323.288
41.5614
95.6169
42.3136
216.059
111.39
48.1372
106.953
109.726
55.0527
69.4123
74.7853
124.006
143.098
50.5152
47.8357
89.5606
65.4419
303.233
634.962
499.438
58.7643
43.51
58.6019
63.5942
87.2634
927.747
233.834
62.0593
51.9911
76.6731
44.8628
47.1851
74.2571
151.281
207.781
507.93
327.499
56.0425
78.9368
69.9959
41.6669
218.746
71.5525
122.626
111.483
48.3369
977.125
76.7456
56.2832
69.1928
72.8164
155.711
588.978
44.0155
416.155
53.5904
712.883
124.696
529.452
67.687
42.6806
59.9624
104.677
47.7019
48.5081
122.029
43.1937
42.2005
53.8611
60.9062
234.252
51.6807
737.444
69.4782
59.8733
155.033
171.477
48.3928
371.934
937.015
728.301
444.869
410.933
54.3117
385.074
290.576
71.1386
56.4338
52.215
629.679
88.4919
94.4937
47.0575
77.7257
244.422
787.934
157.945
84.8651
46.4032
64.3376
188.28
44.4621
54.7515
618.94
457.495
209.856
751.283
72.4764
45.468
69.5955
79.4106
1111.73
50.1482
44.8861
42.119
261.946
45.2946
49.2574
88.908
99.0403
43.673
109.749
45.0501
139.588
84.3148
138.853
48.4952
234.496
86.126
109.899
158.034
108.583
174.532
47.3181
616.249
92.7655
252.339
290.083
265.339
84.4493
129.071
206.423
64.5604
43.4469
50.7449
52.4237
84.5086
564.605
114.424
45.0755
80.9587
64.2144
47.7626
118.387
61.5458
132.169
102.105
46.0544
94.9281
47.8815
77.5583
297.918
602.537
71.2043
97.8822
78.6061
101.558
510.222
237.196
418.231
814.686
139.06
45.8985
47.4872
43.6655
102.904
802.844
78.226
736.211
109.22
43.7757
116.537
406.761
45.2736
45.6841
54.4839
72.7852
59.6359
196.993
74.1713
88.5279
322.606
53.6934
95.4888
65.232
127.695
219.151
50.3146
692.692
80.6992
106.364
54.3741
138.624
44.9824
139.867
123.23
93.6685
88.2687
79.1006
65.6833
69.3193
49.4004
221.767
61.3338
49.5738
112.84
201.334
225.827
176.297
96.9244
107.379
192.55
69.4052
242.974
138.993
129.96
97.9923
104.42
132.614
71.0344
181.076
272.486
96.3348
52.0847
48.4352
245.913
86.7702
98.5988
48.5031
97.3637
86.9918
47.6281
91.0606
407.834
99.8301
69.7082
84.1043
655.186
76.9376
86.4699
145.116
57.969
151.13
45.9534
789.627
84.5096
76.0594
79.8159
53.4623
109.551
53.5229
412.012
41.8518
74.2759
659.013
59.1358
105.705
192.794
96.8163
49.0872
603.172
58.497
42.9201
101.732
126.499
60.818
339.64
43.4459
342.19
95.688
42.3865
68.6887
113.981
712.808
180.152
70.8576
43.0125
128.877
405.795
446.442
115.014
121.991
950.604
209.763
220.053
125.725
78.6889
100.834
59.7946
506.907
1037.22
152.996
158.168
100.194
1226.17
431.104
526.865
382.004
182.934
64.5814
49.2158
152.802
73.749
541.294
302.76
71.3772
977.499
104.401
132.987
69.9493
50.3277
103.072
85.5865
88.9497
79.5621
147.31
184.326
856.852
57.3928
119.103
630.584
604.889
182.268
174.908
60.3564
602.974
46.8717
65.8872
337.235
148.443
42.1985
324.812
420.185
72.2025
120.907
47.7334
91.6552
53.6983
80.9266
172.111
80.0279
596.532
46.5213
49.6455
84.2631
465.657
172.078
120.927
158.811
236.38
119.33
77.297
431.243
105.966
67.1136
190.74
784.465
214.52
59.196
325.851
160.407
93.4703
64.9457
126.04
46.4748
104.023
78.7695
72.723
62.4373
60.0816
84.5876
42.8245
42.114
49.4743
100.245
49.381
160.565
387.909
718.118
93.1445
91.0078
58.8651
47.4662
101.378
635.589
51.395
140.967
71.8476
246.075
65.9742
154.138
211.278
447.205
48.0736
56.9189
279.613
52.6034
68.0613
155.892
98.5596
410.341
86.1817
207.923
484.949
176.548
626.553
195.262
379.001
104.253
184.848
144.548
53.316
502.464
153.095
82.3357
179.199
109.565
97.904
42.4998
50.5998
48.7544
43.2621
87.3222
353.189
41.0758
947.511
107.1
352.314
111.482
384.99
994.803
54.6982
244.364
774.306
173.208
354.797
75.8613
69.3484
743.344
976.911
290.436
166.039
50.8559
483.313
101.273
647.58
52.4137
52.3333
240.71
993.972
61.0466
85.1724
50.2792
250.937
505.743
47.538
414.824
201.535
526.13
710.782
49.4219
331.134
73.4639
603.956
276.688
199.676
446.36
246.675
482.424
341.753
227.708
81.354
78.1902
72.5185
48.2018
53.4485
1424.88
74.6237
112.382
80.0632
78.0295
153.099
1204.94
164.208
188.889
285.76
168.172
211.282
123.273
42.1001
77.7723
1079.44
655.532
277.994
188.521
258.857
88.8393
492.584
59.5039
268.383
393.347
58.2161
554.274
87.962
337.692
304.776
197.86
291.843
294.966
180.892
48.5087
131.402
59.4626
574.676
71.3194
192.618
84.3325
271.564
54.0105
67.0139
319.811
117.024
265.012
44.3578
1416.63
46.1328
58.9083
56.9351
53.4592
106.524
517.643
204.766
110.408
653.508
72.3539
49.5252
55.6272
867.875
99.1424
100.863
833.88
353.471
907.117
540.52
199.04
286.329
156.282
183.341
709.987
65.6412
426.288
152.426
65.664
178.715
63.7137
173.619
83.0593
615.604
478.395
589.53
387.885
330.204
250.69
52.5129
314.329
252.962
52.3107