/*--------------------------------*- C++ -*----------------------------------*\
| =========                 |                                                 |
| \\      /  F ield         | OpenFOAM: The Open Source CFD Toolbox           |
|  \\    /   O peration     | Version:  2506                                  |
|   \\  /    A nd           | Website:  www.openfoam.com                      |
|    \\/     M anipulation  |                                                 |
\*---------------------------------------------------------------------------*/
FoamFile
{
    version     2.0;
    format      ascii;
    arch        "LSB;label=32;scalar=64";
    class       volScalarField;
    location    "0.091626";
    object      p;
}
// * * * * * * * * * * * * * * * * * * * * * * * * * * * * * * * * * * * * * //

dimensions      [0 2 -2 0 0 0 0];

internalField   nonuniform List<scalar> 
47425
(
-0.205182
0.140716
0.0868994
-8.67385
-26.0385
0.0388175
-23.9533
0.0308207
10.5823
-41.5073
0.00941595
11.0347
-19.1173
0.0239591
-4.8888
9.88889
0.0638612
21.9193
-118.331
-41.0685
0.310787
13.2248
-0.0399094
0.375899
12.0191
0.288734
-0.00772705
-49.3187
0.0320874
0.142776
13.3351
9.97051
11.2279
0.215176
0.13055
0.0144303
14.0081
11.0106
4.33837
0.102489
0.396169
-4.71803
-2.11727
10.9257
-43.6171
0.393354
0.0156485
10.8296
0.148764
0.172911
42.3476
-3.49349
0.139446
-38.8028
0.0172953
6.15546
0.0247631
0.102898
-11.4679
0.0501048
-40.6769
-38.1468
-52.2156
18.6389
10.4207
0.584408
11.3187
-5.67288
-45.6777
20.4114
1.21874
0.279249
-1.53578
0.869693
-47.5869
10.2588
-52.0312
0.0850254
-56.3735
-26.3768
-49.2956
8.0042
18.4987
10.1394
0.755593
-0.557091
-1.74102
0.102266
-7.55415
-31.8381
12.5368
-0.582364
0.250441
-0.519528
-0.510245
-0.27863
0.106054
-0.586268
-0.258585
9.08479
10.0265
19.3993
6.80189
43.4504
6.84736
-2.19104
0.351245
-0.287829
-0.0519228
11.3065
-33.4276
10.9392
-2.5813
-0.755091
-3.96378
31.1637
-3.53871
43.8625
5.71622
-6.8241
-0.817892
11.2527
10.8102
-12.0944
8.81499
-4.35492
-0.547358
10.3192
0.0760358
0.374965
19.1248
-1.8879
52.2274
5.65607
-5.58293
-14.7345
0.34771
-4.23971
8.77964
-3.4827
11.2987
-6.55378
3.53718
-4.21112
8.79899
10.3803
-24.6888
10.5751
3.55381
11.1756
-3.62944
35.632
10.6157
-8.67624
18.9939
0.452721
-1.02025
-124.088
-0.124174
0.00838872
-5.48048
0.478065
0.208202
8.50154
-51.6377
-94.47
10.6109
-48.3872
0.37795
-48.5063
-48.5428
0.320506
10.3781
16.1717
-0.280485
11.6745
24.5712
-0.0268216
0.113516
0.133445
17.9949
0.383172
0.00193775
0.174047
0.208867
9.98623
7.75186
46.9558
0.105265
0.13315
11.1375
0.0955334
-14.9705
11.355
0.238301
-4.63378
11.3355
0.17277
-5.36351
-0.405356
0.105627
-1.39321
0.79476
-4.36116
6.64501
-0.62108
0.0230504
-3.8687
9.89625
10.2599
-0.310044
-4.69199
10.3374
0.318651
-1.28701
-5.78517
-0.707326
-30.8074
19.1295
11.1341
-28.9616
-7.55257
0.792919
-1.03573
-0.221881
-26.803
0.216772
-5.49757
-8.07594
-12.4287
-0.361924
0.0587979
-1.27923
10.9611
0.0469748
10.1337
-31.4223
0.282383
-28.53
0.0502907
-0.0507929
0.195387
0.194775
-8.75844
5.91201
10.2713
-0.370417
10.1557
0.333007
0.0679573
0.387054
-24.8171
-0.0207277
11.3193
0.179018
-0.0408786
12.5781
0.0437726
5.25563
10.196
0.105776
10.8535
7.50579
7.39678
-15.3241
-1.2582
0.0708459
-14.9666
0.244695
7.45722
7.89821
-28.6302
-31.0659
7.85915
-26.3884
8.06122
-27.5698
32.0845
-29.7203
29.8533
-37.8769
-0.0487458
-41.8251
0.190683
0.107971
-6.29827
0.149539
0.043387
0.557135
-3.72479
52.725
17.4749
10.4563
0.11506
0.0536214
8.62411
-7.20666
8.3208
10.7151
-12.5673
-0.00214914
0.291206
0.0271987
-0.0423827
-45.1218
-57.1697
32.1044
0.141219
0.129244
9.12417
8.59113
44.9578
0.0133286
-0.0306324
-22.6967
-0.20899
0.253875
0.0237377
0.0695088
-33.2813
-21.2178
9.68351
9.23147
0.0138118
-0.318717
-0.0657213
9.51401
0.0547387
0.168477
0.0571439
-9.62124
-52.2078
2.94631
0.0547831
11.1816
-0.0296014
-51.3871
10.9373
0.205497
0.418931
9.6077
9.392
0.404485
11.1967
0.228608
-0.00286805
0.126389
13.8126
0.0347814
0.139594
9.8969
5.19263
10.0096
10.8564
10.2201
-4.02851
0.242706
17.8515
10.7108
10.5632
15.7388
-7.23019
0.287674
0.0210462
6.29231
-1.76333
0.0270702
10.603
10.9006
7.73431
-0.0185328
-44.0501
-1.81915
8.87717
10.3948
8.72175
-5.80693
9.92715
10.2625
13.6092
10.1799
8.64873
0.405718
10.7563
0.40117
10.7797
0.0150544
7.96119
11.2508
0.0250298
4.17661
5.634
0.0715376
4.79684
0.275238
4.75285
11.2248
0.0190312
-15.702
0.0471588
-33.2874
0.10013
-37.4872
0.126551
0.190623
0.117505
-0.0241529
0.156927
-0.082686
0.010068
5.5649
-51.6016
54.8231
0.259276
5.20221
2.32739
0.778831
0.133096
0.0248004
0.17398
0.0904306
0.28642
0.276885
0.686435
0.0118522
-0.0162428
-11.3654
-7.53569
-4.02025
14.3878
-50.9388
-1.44104
24.4664
-50.4192
0.6191
-52.0368
-35.5899
0.404056
-2.33866
-1.27975
-5.36151
-52.833
-0.244431
0.342798
0.194858
-5.94449
-3.56906
0.0951741
0.259457
-30.6941
-51.3405
-28.0994
11.0795
16.9981
-6.23849
0.297752
-1.39952
-16.0048
-1.21775
11.05
11.2994
11.3227
4.96012
11.2343
0.348607
8.58736
0.0959253
-3.4494
0.31544
0.212725
11.1154
11.2314
10.1117
6.00145
9.27323
0.0500757
-2.46879
-30.8365
10.1898
-15.4539
11.2638
-3.88151
-16.8971
11.217
0.287799
9.69259
10.5851
10.2117
7.51357
0.204076
-2.70809
9.79414
-0.0634826
6.09549
19.5433
0.327178
12.3494
10.1224
13.8223
0.166715
0.105437
0.626829
-0.0471504
1.87225
-0.0142623
-0.0819996
0.221155
0.399641
-2.33841
0.0327531
0.028329
21.7929
-0.0116891
0.760099
0.405202
0.271346
0.0996765
0.133019
9.25284
5.88675
10.3514
10.3539
42.3646
0.105005
0.00748602
10.5924
10.8115
-22.1809
-25.8949
0.127098
0.455713
0.489858
-13.7333
9.88237
-29.391
11.222
-33.2878
24.9685
17.4357
0.00324767
-23.358
0.17288
0.0880944
0.101355
1.13171
-0.0905548
0.278811
-51.5837
0.0787729
-0.0478984
0.155207
-20.3152
0.230865
0.0291252
-20.752
-17.241
0.111447
0.0939816
-31.6875
0.182976
-2.71494
0.0241755
0.303021
0.269991
-12.5866
-15.6378
17.448
0.55486
0.315342
0.002284
-29.2807
16.7408
1.41357
-31.4685
0.105794
0.11204
-31.6457
-43.0757
11.9082
-31.4572
-31.499
-0.00862176
11.1757
0.081546
15.0923
10.1491
-0.0573888
-44.157
9.65007
-0.028877
0.175383
-18.3305
-11.6809
11.2226
4.75126
-48.2964
-27.3997
0.013836
0.0547796
-1.16601
1.61259
0.128542
0.216116
10.152
6.20494
11.2256
-4.43258
10.3592
-30.8068
4.25253
2.12717
-32.603
8.86743
0.188463
5.54389
8.39915
0.23492
10.6274
-5.27087
27.5832
10.3893
-3.10861
0.54755
-74.7052
7.48369
-15.3075
-45.0517
-45.6429
0.127269
0.0404042
-48.1257
-0.0341634
2.28814
-31.837
10.6877
-41.6148
-0.0907246
0.151424
10.5061
-37.3442
11.3262
11.3943
0.407343
0.0918052
0.287914
-0.0156495
0.222989
0.602332
-0.629614
-35.3068
-26.4781
0.152353
12.6996
0.0314255
16.3718
9.68437
11.2896
11.3046
11.3552
11.2816
17.9089
0.978045
11.24
7.96779
-5.9155
-0.0131845
-54.5086
-31.7783
-0.00893613
16.6688
2.85418
0.051355
-54.8564
0.017609
-50.3608
0.189634
-17.1551
-16.8081
0.414896
11.7659
7.78314
24.4439
-0.0227299
0.210684
-0.852732
-21.2018
11.1638
-19.7418
-1.03325
-51.8094
-15.1154
-0.981841
-17.7828
11.2431
0.320422
4.01487
-0.791804
-18.8406
11.1366
9.82461
-18.1922
0.015849
-1.06729
-0.118917
0.147868
27.242
25.7746
13.8403
14.3783
-0.0301434
-0.0774217
0.549669
-0.636789
-4.64328
-0.0271429
0.155475
-0.00418716
0.308173
29.3641
-17.3479
-0.0879622
10.0733
0.201711
0.306151
0.035854
-0.0349397
-5.55724
-28.5169
0.0854712
0.0678925
-0.062052
0.385479
13.2477
0.0609592
-1.47995
0.259685
0.250062
0.28047
16.7549
34.0886
0.399728
-31.3538
-15.3078
-36.359
-31.2816
-0.84411
-13.5049
3.18599
-0.662155
40.9862
-31.6106
52.9929
-15.3961
-0.859178
-24.588
0.159493
55.0839
1.03256
-1.53331
0.608798
0.0709099
-15.061
0.472717
0.398173
0.220405
-31.3563
24.3005
10.5462
10.8195
43.1671
39.5336
-18.1485
-43.295
-32.7772
44.7268
41.8116
10.7017
0.230208
16.1373
0.182348
4.71832
-31.6648
0.391482
3.95338
5.20381
0.246643
-32.2027
-32.1291
0.0448919
4.03763
0.390759
0.223335
5.27075
0.197299
14.3624
-0.0256871
0.288778
30.1373
-0.0110334
0.0552054
0.0524598
0.156483
0.163699
50.019
-21.6391
0.0399321
3.75457
0.346931
14.04
14.4855
-17.6713
0.194131
-31.3643
-19.3021
4.40321
0.623586
22.7409
-42.7138
-0.035609
-0.0685252
-7.78234
0.241176
10.8806
2.15113
-0.000534705
11.393
-34.9812
-20.1474
-43.2861
11.3607
24.9897
0.0795616
-14.0773
15.7175
-18.7393
-0.0730169
17.2444
-37.446
-8.96761
-19.9868
-31.8152
-19.3721
-1.18157
0.000601038
-15.4427
-0.0548711
-20.2148
-30.9053
-0.0225579
-20.898
0.180267
0.282735
-39.067
0.18536
-0.288846
15.2634
14.0311
10.3683
-26.7737
-10.3682
0.346403
-12.7643
45.6842
-2.24583
12.6833
0.442177
-1.8629
0.231131
0.11638
-30.9466
-52.66
-11.5204
-2.58912
-21.7831
-24.601
-31.3659
6.04652
0.0419456
10.9317
11.1308
0.412524
-14.1435
14.8587
21.7137
10.9971
-31.1135
-19.5067
0.926789
-0.100239
0.209431
-0.439539
31.0471
10.7084
-25.6694
-0.0389782
1.84283
10.8157
10.8003
10.6999
10.5181
11.0425
-21.3964
-5.55138
22.0805
26.2721
15.8847
5.48467
-3.00784
33.7926
-1.33246
-9.05756
-2.51355
-18.3736
-14.8823
-18.6523
-2.59119
11.0485
13.8491
10.8465
-0.484216
-34.8304
-33.7116
-43.6944
9.09236
-11.2269
4.15192
-24.3388
-0.277885
-38.5641
-0.349324
-0.625338
-14.6883
6.33669
-0.453068
8.324
0.153078
3.79912
-15.6366
0.406364
-4.42844
-27.0942
-8.56616
-3.46936
15.166
48.4551
-51.212
39.1019
-30.1623
-58.2106
0.158695
0.249724
22.7157
0.100622
49.7108
0.132434
0.109154
-51.1678
13.4917
0.556229
0.285145
10.6184
20.834
9.20912
0.132184
11.7382
-21.5907
8.17515
11.5379
11.7628
11.249
0.145134
-16.3638
-9.367
27.1466
12.8586
0.131254
8.83656
0.247702
0.220107
6.5922
-12.4342
-7.26337
-14.0865
-12.9985
9.31388
-44.2532
0.172906
0.217542
0.149108
-45.1872
-46.026
-31.3343
-31.3868
-1.23405
-2.01298
-41.0789
-32.1366
-7.81454
10.6408
0.0962267
-1.8124
-42.2438
2.24512
-3.99413
0.274665
7.7224
-1.17504
30.8096
-110.855
-18.4572
-34.292
0.333306
52.6149
-51.0354
0.72045
9.12353
0.557507
-34.8274
9.203
-7.9083
16.3372
-30.1097
-0.741664
-31.4926
0.522124
-13.4531
-0.65877
5.40258
-36.8808
-34.489
8.55635
17.54
-15.1997
-46.3005
8.00272
-0.232445
-35.4622
-41.9382
9.8697
7.36251
-62.8573
-51.5254
-44.2856
8.71007
-13.4116
-28.2125
-43.6416
8.09313
22.578
-22.9712
-11.8233
-9.43064
-34.2201
-41.3174
-6.70607
6.84571
10.4849
11.0449
12.4728
8.45485
-6.32013
11.2364
11.192
12.1262
-2.30716
-31.4296
-39.2089
9.37725
40.1904
-22.8575
9.67233
-21.1106
4.03648
8.47593
-12.2517
-4.44495
8.6249
7.68825
-56.7416
11.6144
-36.9307
-51.89
-36.9705
8.20687
-12.9693
10.1531
0.552759
1.19255
-20.6812
-41.6129
-0.794169
-33.782
-20.3922
57.4247
-24.7887
-46.3242
-33.5742
-0.0837716
-0.530967
-43.1583
-1.87725
13.3986
-0.0503889
-45.2989
-42.1879
-0.0180776
-1.22845
-36.6013
-14.6678
-43.3962
43.6698
0.086354
-5.44902
-45.3049
-2.72327
20.7126
-35.5563
13.4065
-54.6545
-19.1991
9.36771
0.199535
0.0513225
-1.15947
0.125235
-1.11553
-2.21434
0.121185
5.57038
33.2057
13.466
23.0573
-20.8512
-11.1675
28.0302
-6.69104
1.91808
-16.5021
11.6412
-68.6377
0.370004
-0.590853
0.444342
-41.3728
0.228695
-56.9463
0.257458
5.6287
4.99642
-52.0153
49.1041
-32.3962
-26.7705
33.0513
-5.38095
10.7016
-12.4424
-27.7223
-31.7012
-28.1539
43.1786
10.5499
-19.8706
-30.929
-8.12618
-7.64576
-40.4841
-29.9993
1.08003
-18.8202
10.4359
10.7085
-26.4919
-45.4635
-3.6485
8.66857
10.5958
-51.439
10.7417
-11.0295
-14.6369
10.7295
10.9608
-25.1915
2.71033
48.5067
-25.1421
2.34241
28.5699
25.8804
8.02876
-86.6576
-40.1993
-19.3595
-118.624
59.625
11.0342
-23.5333
11.033
22.0424
-53.4853
1.4894
-53.8205
-29.2222
-5.9812
19.4516
-11.1706
10.8885
10.9361
13.7556
-24.4798
0.886055
0.0628146
24.6861
0.0534322
-20.1081
12.1813
-15.2368
-3.36693
-28.3081
13.9055
-57.858
-43.2116
4.76691
-39.035
-31.9724
0.051711
46.3706
-39.0337
-7.20094
27.6626
-15.2767
-22.9071
-27.4134
-37.3072
5.64701
-47.9801
-24.5137
4.16525
-2.84803
0.288787
-27.4942
-6.44809
23.4374
-19.5459
-0.168767
21.7033
0.288335
-64.3842
-0.0384947
0.0523079
-9.14242
-27.1364
19.7518
-12.7819
-17.3002
-10.4141
-54.0508
0.00189605
-16.2895
-65.4005
0.34233
-9.56908
55.6856
-9.25261
-33.1326
-49.3652
0.0586173
8.09972
0.0333636
-129.178
-30.9292
-25.8235
-30.5484
18.4275
-7.50262
-1.407
-40.7707
-49.5571
-19.8053
0.225658
10.7706
0.605849
0.348383
0.379464
51.2212
11.1761
10.4742
-10.6991
0.301652
14.284
11.3805
20.4764
10.9226
0.104598
19.329
11.8551
8.60308
-22.3785
0.739093
10.2994
8.13949
-13.2553
10.308
0.263453
0.295778
8.87044
11.3358
11.0585
-51.5722
10.2617
16.5055
0.420189
0.172853
-27.5462
11.9954
11.4493
-49.7706
-47.8794
56.5485
13.1393
-50.7462
22.297
-0.297326
-48.3937
8.7008
-49.6981
-0.01943
-0.0898427
10.8012
17.405
9.03953
0.0133832
0.0843487
0.625304
4.80858
7.12206
0.41294
-21.5321
0.253181
-16.314
56.3302
10.3079
-46.6641
-13.5644
-71.9088
0.30956
9.10583
0.0225879
11.7392
0.0016177
10.3604
0.487472
-43.0709
-28.1626
-40.1306
-7.28113
-16.4023
0.633697
0.37057
-32.7112
0.708389
-53.1797
-4.00836
-47.8753
0.288515
-58.3001
-86.982
-1.45096
-0.00956971
-30.7163
0.167107
-30.2629
10.0499
-0.639854
0.565699
-1.18677
-2.5128
-3.38306
-16.324
-33.1194
-11.0748
10.0849
0.508739
10.1736
0.195103
10.0168
-30.6538
7.93147
-30.5967
-1.31912
0.82507
7.55473
0.2734
7.90322
7.15308
0.0984616
0.284457
10.8687
0.0670954
-6.54966
0.0565209
-0.0660987
-31.4319
-29.878
-4.72225
-0.916102
-26.3532
-0.00357721
0.130381
0.194373
0.218391
0.0437311
0.0439368
10.2155
9.93244
0.368071
0.248979
39.5253
-0.172816
0.137327
0.284229
-49.95
-1.37706
-52.7327
-37.9632
-46.9422
7.65003
0.161518
-1.03822
0.0201911
0.308522
-43.8088
-14.2533
0.295299
0.180823
-1.1364
-1.18416
-30.5356
-1.2451
-0.00173404
-20.0529
0.375869
0.342775
0.0973721
0.253759
0.0463635
0.157827
0.261253
-14.4583
-21.463
0.0526142
10.1254
-6.10885
-12.5532
-11.2929
0.234476
0.334873
-14.5439
-0.267018
-0.0720962
0.333761
0.155568
-13.7087
0.0426713
0.465447
0.300818
0.219511
0.357043
-9.42593
-0.0550057
-44.2014
0.207613
-18.2877
-0.747624
0.0490616
-45.6868
-0.0416235
-1.46177
0.0822532
0.329114
0.410184
-1.37816
48.8989
-1.3599
-30.9519
0.201181
0.0582571
0.513068
0.256176
0.0769585
-1.02879
0.140576
0.245302
0.0464479
-25.9673
-11.8296
-42.2924
8.73441
-18.3452
-1.07506
0.0562134
-0.995254
-36.6286
0.0309862
0.00616288
-0.0415237
-59.9794
-0.0118186
-0.403401
-0.00821811
0.187621
-0.0666634
-149.55
-0.00591554
0.623642
10.2512
-0.00629642
-9.06356
28.9933
23.4206
0.0179143
5.30759
-0.0472128
0.321836
0.240852
0.114042
-58.6905
-48.1565
-0.0328284
0.166556
-44.3135
0.05727
-6.88301
-25.4945
0.0466669
0.35073
3.30243
0.0649792
-14.3357
-0.0495561
-0.808905
17.6414
1.33242
0.0340456
10.236
-29.8956
10.2906
-30.7626
-27.2768
-31.9811
-28.4863
0.339864
10.2252
-21.6522
10.3704
-2.19051
14.6558
-35.7902
-30.0267
10.6797
-11.6358
10.6727
0.134093
0.0935732
-31.3475
0.271347
0.34085
10.4952
10.53
39.0557
41.8294
60.1695
-21.5263
25.9623
10.6974
12.9779
20.7961
10.5564
0.257056
-0.0530902
0.17446
0.17893
-31.3657
-31.2986
0.313117
1.51719
-8.7556
-50.8446
-3.56263
0.123038
-3.20136
-24.5439
-59.762
0.247902
-37.1161
-16.6813
-32.8841
-42.9142
-15.0463
0.23392
0.194691
11.1659
-61.506
0.044046
11.2702
0.156344
0.136589
-48.1649
-48.2823
-50.0115
-1.67638
-30.0034
14.3333
8.02544
-0.133534
-17.3741
-51.8607
-50.8703
-31.6133
57.9856
-31.6791
31.9611
10.1448
-45.5842
10.8273
-64.5128
10.207
-60.437
10.1099
-29.8383
0.0397578
-22.4745
10.7251
10.6509
-0.938315
10.518
10.3997
31.8012
1.40325
10.6276
10.3953
-72.1606
-44.4072
-17.0003
-29.0203
-44.9597
-29.0787
0.289985
12.9077
-39.9399
-33.9268
-39.9847
11.7621
-49.0864
4.15651
-50.7077
-52.0774
-40.1437
-27.364
13.1444
1.52523
7.3865
10.5595
0.548451
-34.9915
-4.79793
-2.21197
0.495449
-0.00693286
0.0790328
0.452831
0.20376
-28.8354
0.246145
0.117177
0.331764
-0.745254
-23.6962
0.490272
-0.0567162
0.0959227
0.47675
-11.0959
-8.49952
0.31414
11.3735
-34.3484
-51.632
-3.99935
-46.436
-13.3065
-2.88224
-28.2011
34.7138
7.09699
6.59545
-11.2038
-0.0275247
-0.0268723
-6.85344
-0.0628484
0.0396282
-2.85554
0.0472079
0.472384
0.998086
9.59088
-7.78793
-0.571406
41.2412
0.0439039
10.6169
0.00286691
-0.0525809
40.8801
-44.6243
22.362
0.0699252
-1.23811
-30.0176
-31.0943
-4.107
-0.21769
9.74046
-15.1243
0.0596584
0.0619978
-15.2785
10.4191
0.0612272
11.5481
52.6437
-0.981505
-1.44468
-22.8818
-4.45261
0.174608
0.114744
-1.71988
10.3955
10.3623
8.48676
10.4737
10.9946
2.65053
1.01752
-8.78881
-51.5262
3.21663
-8.08736
10.423
10.3364
58.0883
1.59895
-0.363487
-1.3224
-21.1843
-40.7146
3.43026
14.1094
-1.46759
27.6179
-7.78167
13.0683
-35.195
45.3808
28.0209
-26.2662
3.46113
2.48944
-22.027
-50.3107
-81.594
-4.19851
-14.9778
-51.0098
-0.225937
-20.4078
-11.7038
-40.6956
-31.5581
1.52939
13.5083
-51.8622
8.48894
-11.4011
-0.439699
8.78022
-2.79102
15.0819
2.41859
12.8906
7.89618
-38.9197
1.97204
55.0738
-22.7683
52.9508
30.0402
-76.9365
11.3775
11.418
-63.3101
-18.5076
-5.93363
-34.2705
-29.3047
-0.0737953
1.63293
1.23984
-34.8678
-6.39682
4.94013
56.1812
-11.8825
10.2099
-9.86666
-23.6417
5.70802
5.93106
-38.0868
-33.292
-30.1382
-31.2785
0.0556154
-19.5099
-0.809205
-20.5053
-11.6532
0.623044
-1.25132
-18.5968
-8.51264
-31.2252
-31.0626
-7.14501
5.34273
-2.13527
-15.7382
-25.7691
7.16228
6.98693
-19.0958
-30.8089
7.81888
-11.7142
-30.6992
-0.771161
-40.3519
-3.48653
-9.63736
-46.5576
-0.59848
50.0939
-15.8823
-1.41154
-1.48107
-2.78536
-51.5363
0.265762
0.363685
-5.31277
0.20473
9.91093
0.254927
-32.4784
9.48541
33.2889
10.0047
9.65279
9.38237
0.237783
-24.3535
-16.4661
-16.592
-49.6251
-4.66784
-40.6552
-16.2509
0.0379204
-55.0745
-0.00343545
0.261287
-2.5452
-12.8298
-56.1342
-32.2491
9.53657
35.969
-20.5342
0.409762
-36.8209
-42.8666
-11.1139
-44.5583
31.8215
10.2183
-13.4478
40.8222
10.257
-71.9188
18.5012
9.21999
46.5497
32.2356
10.3328
10.4193
57.9719
-40.9319
0.378921
51.7108
5.63147
10.3822
-12.7801
10.2717
-34.1339
6.3745
57.4658
10.491
10.6234
35.2058
8.78102
15.6324
-5.61981
-4.94339
13.3044
-29.7477
22.2756
-23.9212
-56.3501
-73.0377
-30.6132
10.718
34.594
12.3139
2.75351
5.80108
9.93417
10.3232
-0.392094
-0.212738
38.7052
-46.3926
11.0179
-31.1117
-0.185568
5.38049
-20.6036
-72.6969
-0.219557
-19.5465
11.8002
3.87937
-0.376701
8.71208
-10.8758
-0.213124
0.433227
-24.5157
0.401803
0.254615
-10.2761
8.95781
0.232873
20.6428
0.287554
-26.3825
25.4481
0.31653
14.2953
34.9004
-30.3307
54.6746
39.3795
-34.2014
-65.814
-30.5433
-29.5275
-30.3638
-30.4287
-34.0395
-25.9413
-36.2908
-30.6288
56.5385
-7.28787
-48.1601
9.57367
-1.76593
-40.6489
-45.5462
-6.13438
-31.5988
-20.1934
-31.0044
-17.3008
39.2362
-49.2229
-36.3587
-30.3093
22.2745
-30.2599
0.138874
-49.1635
21.4561
4.48104
-0.141609
-4.28222
43.4499
7.06596
-19.4893
-10.3156
11.121
-0.292067
-9.76837
-29.5356
-34.5354
-3.64085
-8.57704
17.2932
-32.4728
-11.9934
-0.0775488
-27.0908
44.2678
-4.88149
3.76278
0.0141502
0.604033
-40.1818
8.67936
7.0143
1.50195
-0.122619
3.49636
-4.46782
-5.0442
60.5472
1.26208
-16.6175
-9.3183
0.00539533
-50.8349
-49.982
7.28637
7.4194
6.60185
9.58607
-27.8173
-13.7733
54.1108
-10.2802
9.33831
-18.3846
-6.75649
-7.46403
7.09669
-15.7196
7.05248
-25.0327
-30.8186
-36.3337
29.9955
-15.0226
15.8343
7.29841
-56.271
-71.2863
31.1755
-49.2798
7.81567
-61.6331
31.2231
-5.962
18.0936
-24.3857
-1.62514
0.18108
-8.84231
-16.7937
-41.001
-1.73622
7.94054
-92.1598
11.2181
-31.4665
11.077
-4.19949
8.67295
-1.28328
-3.24878
0.103622
-13.8956
6.20031
-0.424443
13.6493
-1.99513
-46.9646
33.3333
9.58652
39.4436
10.5074
-1.42075
9.53267
11.2942
29.4308
-2.16727
29.3079
-0.134704
-2.17808
-21.2555
0.298724
0.0478447
-16.4818
-10.3969
-24.9613
-7.12011
31.6164
5.76085
25.8607
0.131273
16.2657
13.2317
0.155967
0.182972
0.215494
0.449603
55.6277
0.208002
-11.8139
-32.3347
10.5774
10.9309
13.4538
10.7812
-23.5416
-29.0324
-2.72638
-6.8219
-6.8205
-19.0233
32.3703
0.199722
-61.7528
-13.8534
-37.9245
-2.15742
7.12065
-25.7144
10.6787
10.8269
-22.0441
10.9166
-0.572052
5.56989
-42.454
15.6414
53.0699
-1.8219
-2.56116
32.4654
5.19915
-1.17816
32.6207
6.3423
-19.3096
35.471
-12.1155
37.3552
-44.1521
0.145158
11.2934
-2.55652
-10.8717
-2.29504
0.336024
-3.5395
0.113909
11.3009
-35.5553
2.83403
-0.17703
-34.5507
-1.30936
4.15007
10.7616
10.8842
23.5091
2.29969
-2.64489
-7.72981
-3.61974
-15.1753
10.5575
-0.164941
-22.2633
57.7979
-24.1901
-1.09831
56.4805
10.7868
-49.0546
52.4974
-5.02038
3.56803
34.4202
10.9198
-31.1751
35.903
-31.3083
-6.39849
-31.1295
-16.0273
-33.9017
32.4777
-6.85318
58.5383
0.215805
-31.2434
-31.2978
-53.5087
-47.0818
-37.9621
-54.9128
-39.2356
-33.5011
55.4005
8.20012
8.77841
48.5974
22.4352
-49.3637
5.81582
-51.195
42.7909
0.410204
9.09797
0.0264029
0.28156
0.260272
0.300741
56.7853
0.0790946
0.233271
10.2483
0.363627
0.456972
9.30914
-7.92648
0.289578
-9.89641
0.0889593
5.45413
24.945
-48.6071
-2.1235
0.295507
-8.65796
-2.18177
-39.5943
-25.9707
-24.7175
-3.05849
36.2779
12.1392
-4.49378
-7.18814
7.00803
2.34384
0.319089
10.0456
9.55521
-32.4793
0.427598
16.0243
-5.25893
1.02834
10.2563
-5.72742
6.39812
10.0935
9.85841
-16.1631
9.62505
7.24139
50.2801
23.4957
11.9308
21.1103
9.27537
-3.58369
9.68116
-0.0367252
-5.75508
-0.0388221
3.58758
0.0781224
20.5037
9.20711
-19.8446
21.8506
-0.00309207
8.10407
26.4065
-17.4438
32.1693
-29.5509
-55.1011
-37.928
-1.94306
0.0879912
-32.0521
34.421
-13.8914
-4.4805
7.49675
0.268553
-1.35013
0.039867
7.95705
11.1754
27.3271
7.17822
-0.229554
9.9662
10.0353
0.00323577
-35.5349
33.3309
0.0535787
6.18674
-14.8347
41.082
11.1746
8.63574
-12.76
-50.5494
-48.0021
10.2373
10.169
-5.79111
-9.49712
-12.4234
-33.2653
30.2974
-0.00240662
-1.08193
-2.96865
0.213965
17.7489
-18.1231
0.326415
0.254748
28.6782
0.217797
-13.514
24.9243
-37.9363
-28.4905
0.157828
-14.0747
12.1901
-0.0850827
0.175289
10.8194
7.66385
-2.17898
19.1942
2.2381
-45.4816
0.260771
0.250228
-37.1104
-3.99225
11.9216
0.261446
6.42242
10.4402
58.3556
0.240637
-12.4731
-36.8892
-41.9679
-97.1864
-62.6023
0.247487
14.9703
44.6788
0.0102568
6.01131
8.14965
-40.6171
11.4156
4.6112
-40.1384
11.405
23.4841
-19.1926
7.63678
-41.0688
-51.9347
12.9637
17.2045
-43.3425
13.2645
9.21403
0.825004
12.5178
10.6842
-1.07562
-38.0539
-9.29321
5.79459
12.34
10.3274
11.0753
-0.47289
-0.0557884
33.1702
-0.0100318
-10.1863
-1.64035
34.6911
10.8011
-14.681
2.83805
55.833
-26.3278
-31.5267
-41.8569
1.39082
-7.58642
-58.7359
-21.8298
12.6798
-18.1575
-9.88581
-0.0429354
-12.8026
10.0887
3.20936
1.40854
-0.0256263
0.10366
-22.2839
-7.74913
-13.8324
-0.255379
-1.80487
0.160023
-1.99148
-8.3393
11.3929
-47.077
11.7707
-2.42184
-2.35709
9.77755
9.53189
10.5071
-0.0647778
-2.19598
-14.561
2.1553
-2.06053
-2.40477
-31.4868
2.11492
-9.16354
-40.3638
-32.1468
-28.4315
12.5379
-34.2346
16.7925
-33.04
0.0869033
-31.2314
0.152813
1.12658
-1.92975
-7.40666
0.0239916
2.07816
-3.8885
10.5579
9.6509
12.0651
-7.18194
-7.23692
-47.1969
-30.5855
21.7682
35.7515
-34.5999
-26.4121
-31.2262
-50.08
-30.4299
-11.8936
-30.6163
-0.578929
-0.895296
-49.4803
-52.9843
-6.52209
-2.29267
10.2396
51.1034
-4.79631
-52.5346
-4.60196
3.03157
-5.91625
-2.24306
-28.9858
-1.10694
-0.751202
-0.503431
0.337448
5.17515
-1.56709
0.36706
-43.8968
-44.742
-42.825
20.8124
-36.7452
11.2017
0.326623
12.6201
4.6432
2.47712
19.9149
10.2792
21.1384
-0.355651
1.91713
3.48208
-0.942215
0.18506
-14.9661
7.06452
11.6769
7.09099
40.5775
0.128498
22.2415
-59.432
-7.71949
-49.7353
39.9042
8.70739
7.59559
4.70535
-15.6913
-11.0858
10.9818
-36.141
5.81953
7.74223
-7.23425
16.6915
7.89599
-7.56209
-19.87
-15.0171
11.3052
-2.91604
-61.8074
-1.22528
-44.7168
-30.829
11.1867
-53.5643
-10.6603
31.4676
-2.66434
11.1668
13.5911
15.8429
-8.88062
10.4188
-31.0208
-15.3179
-30.9962
-6.37578
-9.39091
15.4217
-30.4527
-28.8511
-0.698067
-1.23002
14.3942
-30.7751
5.71983
-7.36317
-46.0467
0.0934009
-0.894793
9.85173
-50.8118
-8.0278
-2.86443
-0.47349
-3.36549
9.52949
9.26997
-5.04125
9.59872
-32.5092
9.57183
-52.6589
9.84555
-32.6741
-33.6518
-11.7288
9.02676
-10.6353
-1.55744
9.18641
-4.08141
-1.66379
-10.4976
49.9963
0.0930579
32.4001
-14.0416
0.18321
-5.35842
0.132362
10.7698
9.41324
10.5111
-9.5706
0.129419
10.0662
-3.26852
0.155974
0.347568
-27.0773
-0.355631
-0.00762397
10.8787
-28.5872
-33.274
0.0917945
-8.97726
0.314605
-28.9817
0.209445
0.0992832
-0.723845
0.266317
-0.544509
-0.71599
0.0395432
0.424102
9.49278
-23.6021
-20.156
10.8135
43.4685
14.2277
10.5782
0.0676526
11.2466
36.0141
0.0182853
31.9511
-1.58571
0.0610986
-1.15893
23.9711
0.320756
-0.121486
52.8579
11.3346
26.014
-12.6072
-16.1238
-0.0561787
-4.572
-0.04636
0.244393
0.0873962
0.266095
47.643
0.299545
0.197543
0.146358
10.1792
-41.6276
-27.9733
-6.93541
2.16408
-1.15644
0.222548
12.8689
-30.9254
23.4544
15.0707
1.59253
0.200447
40.7069
-15.9861
38.7382
29.266
10.1865
10.7034
0.174625
-7.23444
-0.349082
-18.2089
-15.9781
10.6984
-48.1239
-0.604863
-0.178102
0.30505
8.99139
0.128636
46.3216
-6.7002
43.4895
0.108878
-53.2464
-10.8679
-16.5434
0.131292
-44.3743
0.259661
27.4013
10.3652
30.576
-0.382771
-20.4356
3.15941
-49.1666
29.0239
10.204
9.88889
-2.98098
-27.5213
10.253
-54.0663
-38.5709
10.2717
32.1437
10.1292
-24.6842
41.2619
6.22966
-10.686
41.2425
36.3507
-0.631156
0.934335
-51.7399
41.2381
8.59392
38.063
-7.71764
-52.0439
27.8943
-5.07554
0.0440198
0.124012
0.109566
-1.21338
12.0564
-32.3881
-2.53521
-37.5097
14.548
36.607
-12.8694
34.7433
0.0594832
-0.0385812
-17.6567
55.7994
-20.5125
45.9804
14.1453
2.48261
22.7948
2.85345
15.1604
-0.00414548
0.0634633
0.00120575
-0.0229084
7.04887
-17.1199
11.6004
-34.053
2.65604
-43.3386
7.72813
-26.6215
43.1733
-4.55985
-3.75716
0.06112
37.0361
0.0163449
20.9869
-3.93362
7.6873
-12.7008
-1.37495
29.9329
33.6578
-18.1804
0.163864
-1.74147
-32.4865
-63.5673
-9.15321
49.6272
24.972
52.7938
56.2802
42.4124
-37.5256
-2.65767
42.3294
-43.9454
-0.000876369
3.77609
0.0308053
-29.953
-14.1535
-3.24744
-0.286267
-10.704
-0.0703581
9.59433
-37.996
39.8626
-47.0799
9.56161
-3.75229
8.21159
-0.540806
-9.15076
-54.1028
-1.55949
-31.6583
-21.0047
9.91128
-53.0335
-44.1762
9.89362
-16.648
-17.3209
21.7326
9.91017
-15.7385
25.2508
-54.4584
-33.3053
-45.4349
38.0233
-33.7947
2.96889
23.6359
2.48564
-57.4963
-48.8586
-1.46089
-2.20274
47.6068
-4.60243
-39.8481
-4.67621
-19.3394
-66.306
-32.1047
-31.3818
1.09889
-31.3574
0.135691
-31.3118
12.8514
-24.4592
47.9982
-30.7781
18.8423
-33.1495
-30.2663
-20.4963
-45.7588
31.4624
29.2738
-31.4562
9.29933
24.6498
15.3045
4.33537
11.989
-4.06833
-32.293
-88.258
-32.1056
14.3096
18.0515
-41.2106
22.3324
-33.1156
-16.9524
4.73064
3.92609
-30.4027
10.9
-32.0348
12.5667
28.9476
30.8909
58.0646
27.7252
-29.4997
-61.2525
41.8341
10.8887
34.9601
-49.3254
-31.4621
49.0947
28.2316
-5.10652
20.2176
23.5698
-43.1266
-33.6489
-45.22
14.4632
9.23957
33.9707
-59.7304
42.3009
26.9128
11.2386
35.1761
-33.1032
1.07724
0.684208
11.182
-14.646
-50.0084
-31.682
42.8613
-14.471
-21.8383
-47.4827
40.5513
44.1608
36.454
-33.7362
-98.753
42.5742
-33.43
-55.8806
44.0187
-2.94287
-11.2888
10.734
-0.773367
-1.19066
-11.4166
41.6406
-30.7874
0.650147
-0.947405
-1.09652
-0.708641
-2.55478
3.13184
-33.4969
-10.1187
-1.27088
-53.5313
-69.7293
-30.3317
-20.967
-2.78736
-18.5175
-29.2689
-42.5631
-1.11922
-36.671
-3.12002
-36.7384
-32.0698
40.7945
17.7211
24.6209
0.0777521
3.81592
-71.9517
-25.6277
-11.5251
-45.9513
0.00311272
-63.0188
-45.3682
-27.2576
-45.4553
-6.50981
14.3159
10.2388
13.7271
9.38526
40.8654
0.00929618
-0.0154311
-0.0318114
13.1715
-10.0273
-48.0312
-57.5039
14.7322
35.674
23.0216
28.1496
-1.56598
-48.331
-7.19779
11.1388
2.43759
-3.16062
17.5591
5.83023
-16.2651
13.1803
-13.2503
-11.1298
-8.63562
15.923
34.5048
-32.2883
51.0424
-31.0063
17.7113
-54.4085
-45.7196
-12.0153
12.4197
32.4231
-11.0746
-31.9678
4.26526
12.9996
-18.8166
-30.7784
15.169
44.9087
57.1119
-29.6474
-4.18217
-56.1698
13.2831
-0.771462
-10.8376
9.39493
5.62688
-16.6796
1.90029
7.02266
-44.656
-11.7726
-30.6158
-14.3752
-31.8773
-0.07579
10.533
-54.0512
-19.6289
-0.0478434
57.6713
10.625
44.1444
8.51584
-28.4911
15.4508
-1.41291
32.0175
53.5557
14.0441
32.2259
0.0656843
-45.7077
10.9505
10.851
-7.08851
5.52515
-39.5262
-5.71821
-11.9422
11.1164
2.27083
-23.4003
3.58295
8.08007
-9.46831
-13.5014
-28.4274
0.034155
12.5913
0.00723312
12.7869
0.0709008
-21.2345
10.9419
-24.3647
10.3077
-28.2734
0.010119
31.6758
-10.1074
33.6849
0.0539323
5.76776
0.124022
0.00955717
-6.03689
6.22313
15.4076
32.1816
27.9533
-33.0876
-51.1629
40.6777
22.7938
19.9892
3.85433
0.0127819
0.0226847
-75.9997
41.5266
17.0997
13.1386
0.0493936
17.1416
0.102734
0.00697217
-23.0169
-26.2955
-39.1329
-34.6839
5.53142
-0.324428
-7.33661
10.7631
40.2657
9.18763
-21.1681
9.06999
-8.53774
-77.0328
-17.3727
0.0720913
2.29737
-11.1549
-9.58318
-37.1901
11.2987
-36.399
21.9486
-77.0298
-31.8887
-29.9645
0.102578
20.1459
1.60232
11.0288
32.6939
11.0891
-13.0451
9.12762
10.15
7.08719
10.9877
-40.99
15.5032
3.06699
40.8734
10.3883
-23.9479
11.1769
11.0927
-31.7032
-78.8155
-29.5623
-31.1629
-31.7467
8.0224
55.8939
-33.6551
-4.79271
10.5046
18.0221
-31.7204
0.221022
-0.0113681
9.17231
-24.0563
-31.1098
-50.7484
29.5004
-3.51414
0.265559
1.3716
-31.0815
26.024
8.02693
-55.4382
-32.3235
-31.5507
57.5523
12.3287
8.85746
1.19328
12.4296
-51.1345
15.2062
9.47485
17.2579
-5.87507
15.3537
21.1585
42.2048
33.9675
8.88318
-19.8226
20.529
-11.231
0.195494
0.259303
29.2026
-32.534
-13.6279
0.181134
53.0306
0.256471
-31.25
28.0794
18.3608
37.0508
-30.7765
-20.8972
-30.6165
29.6802
-14.9717
-34.2663
-6.62491
9.58579
0.135777
12.2667
-0.87181
12.6888
-1.22766
9.70211
-1.31689
-13.8227
0.0238703
32.7926
1.39866
2.45712
-26.3449
7.59063
-0.474699
9.19479
-7.28084
-33.3178
-45.1344
-21.725
2.67792
34.6032
0.14771
56.0901
-31.926
55.9397
50.0626
0.300145
3.05853
5.09892
0.236812
0.128769
-90.5772
9.6464
-24.654
-14.4509
3.0125
-0.884749
-31.6138
5.33281
5.27444
7.77162
4.966
0.260897
-30.956
-6.44266
-0.392087
-28.5947
-0.169951
-1.15653
-0.49231
-0.394191
-10.4444
6.492
-56.1279
-1.12729
-0.502655
-14.0431
-18.0547
20.7485
-20.5351
10.3644
10.2472
-0.0224963
0.0419322
-12.7652
-17.6963
8.33491
0.0110446
-3.77355
9.16743
-0.00210055
54.2429
-0.0465539
-1.5993
0.050953
-0.0425157
-31.0812
-0.0156461
-30.9154
-9.01991
49.9534
2.77319
-5.10791