/*--------------------------------*- C++ -*----------------------------------*\
| =========                 |                                                 |
| \\      /  F ield         | OpenFOAM: The Open Source CFD Toolbox           |
|  \\    /   O peration     | Version:  2506                                  |
|   \\  /    A nd           | Website:  www.openfoam.com                      |
|    \\/     M anipulation  |                                                 |
\*---------------------------------------------------------------------------*/
FoamFile
{
    version     2.0;
    format      ascii;
    arch        "LSB;label=32;scalar=64";
    class       surfaceScalarField;
    location    "0.091626";
    object      phi;
}
// * * * * * * * * * * * * * * * * * * * * * * * * * * * * * * * * * * * * * //

dimensions      [0 3 -1 0 0 0 0];

oriented        oriented;

internalField   nonuniform List<scalar> 
92401
(
0.150379
-0.0994857
-0.00670883
-0.0441847
-0.0645107
0.0614067
0.0412248
-0.0381208
0.0221372
-0.0395831
0.0429265
-0.0254806
0.00660963
-0.013211
0.0130374
-0.00643595
0.00142979
-0.000572902
-0.0060305
0.00517362
0.0193921
0.0096843
-0.0252891
-0.00378731
0.00592817
-0.00480946
0.00031108
0.0322037
-0.0255196
0.012708
0.048079
-0.0386431
0.0324573
-0.0418932
0.000335743
-0.000543884
0.000257466
-4.93252e-05
0.0046839
-0.0414662
0.0385956
0.0243189
0.0243161
-0.0872306
-0.0177061
0.0111981
-5.86287e-05
0.00656662
-0.0343524
-0.0399309
-0.0158106
-0.0213876
0.0598436
-0.0226454
0.0020833
-0.0664994
0.0644161
-0.00253087
-0.00777223
0.00205015
0.00349866
0.00222343
-0.00094797
0.00154387
0.000211229
-0.000807132
-0.00500155
0.010967
-0.000112468
-0.00585302
0.0165339
-0.00576718
-0.00503225
-0.00573447
-0.0406958
0.00832917
0.036944
-0.00457741
-0.0394855
0.011024
-0.0547696
-0.054025
-0.00260766
0.0548034
0.00182925
0.0906795
-0.0892226
0.0219982
-0.0234551
0.050299
0.0601474
-0.0719372
-0.0385091
-0.0325983
0.0511437
-0.0580309
-0.00275558
-0.000990609
0.00401498
-0.000268795
0.0314069
-0.0636317
-0.000373447
0.0609752
-0.0601867
-0.0322464
0.0314579
0.0124733
-0.0172695
0.00137809
0.00341819
-0.0362468
0.106863
0.0618432
-0.132459
-0.0846922
0.107518
0.00897425
-0.0317999
-0.131148
0.0325366
0.0294946
0.0691168
0.0148184
-0.0621458
0.0375233
0.00980406
0.0602782
0.00925124
-0.054711
-0.044126
0.0100924
0.00241729
0.0316164
-0.0504162
-0.041177
0.0654818
0.0261114
-0.0332007
0.0406734
-0.0137036
0.0062308
-0.0204021
-0.103398
0.0665017
0.0572983
-0.0856088
0.0871767
-0.0015679
0.0295164
0.00154644
-0.0692716
0.0382088
-0.00466307
0.0303516
-0.0184384
-0.00725013
0.0268852
-0.0503977
0.0235125
0.000144359
3.04649e-05
-0.00014038
-3.44431e-05
0.00119643
-0.0587085
0.0575121
-0.0684083
0.0428882
0.0621755
-0.0366554
0.0901244
-0.0254212
-0.0128088
-0.0518944
-0.000550762
0.0712497
0.00107976
-0.0717787
-0.047519
0.0733376
0.039591
-0.0654096
0.000567246
0.00109998
-0.000399094
-0.00126813
-0.00199277
-0.00362772
-8.49068e-06
0.00562898
-0.0383183
0.0840368
-0.0462495
0.000530949
0.000317566
-0.000687905
-0.000430616
0.000800955
-0.055232
0.054353
0.000878977
0.0752815
-0.00773285
-0.0187279
-0.0488207
-0.100558
0.0928399
0.00443751
0.00328045
-0.0547707
0.0273685
0.0109668
0.0164355
-0.0026816
-0.0148813
0.00755436
0.0100085
-0.012466
0.0257419
0.0374291
-0.050705
0.00076845
-0.000321909
-0.000128974
7.89496e-05
-0.000109443
0.000803707
-0.000773213
0.000274956
0.000111057
-0.000177555
-0.000208458
0.00413646
-0.00916809
0.00502566
5.97416e-06
0.0679125
0.00506073
-0.0172014
-0.0557719
-0.0149818
-0.00480651
0.0107853
0.00900295
-0.0409771
-0.0528734
-0.0547669
0.148617
0.00362134
-0.0354969
-0.0027137
0.0345892
-0.000235633
0.000444189
0.000312381
-0.000520937
0.00423998
0.00449846
-0.0278457
0.0191072
0.0189106
-0.00639278
-0.00967483
-0.00284302
0.0419143
-0.0765588
-0.0278345
0.062479
-0.0293701
-0.00302008
0.0102449
0.0221454
0.0121892
0.00836982
0.0130044
-0.0335634
-0.000243771
-0.000267561
8.72615e-05
0.00042407
0.0252297
-0.00973265
0.0365656
-0.000269641
0.000201128
-0.000345395
0.000413908
0.0443474
-0.0330417
-0.0681303
0.0568246
0.000276963
-0.000180921
-9.60424e-05
-0.00113592
3.98629e-05
0.00054744
0.000548618
0.000575098
-0.000236651
0.000177923
-0.000516371
0.0225978
-0.0230991
-0.0622557
0.0627569
0.00107174
-0.0126917
0.00291022
0.00870975
0.0430103
0.0585877
0.0185232
-0.120121
-0.106549
0.0217591
0.12094
-0.0361509
-0.00541647
-0.0450109
0.0037499
0.0466775
0.0555996
-0.0309657
0.0266061
-0.05124
0.0275657
-0.00316239
-0.155454
0.13105
0.0095307
0.014788
-0.0286577
0.00433895
0.000685341
-0.000170431
-0.000766685
0.000251775
0.0381287
0.0123011
-0.00129497
-0.0491348
-0.00253653
0.0852133
-0.0867538
0.0040771
-0.0180489
0.0494793
-0.116192
0.0847617
0.0426703
0.00540792
-0.0534947
0.0427889
-0.000118581
-0.00232936
-0.0294979
0.0420408
-0.0102136
0.0708703
0.0170452
-0.0315986
-0.0563169
0.133344
-0.147624
-0.0304156
0.0446949
-0.0151775
-0.0461656
0.0590138
-0.0824419
-0.000791998
0.0832339
0.00106427
-0.0978529
0.163137
-0.066348
-0.00254968
0.00337009
-0.000617937
-0.000202473
0.0899355
-0.149317
0.0303523
0.0290294
0.00155706
-0.000460822
0.00091215
-0.00200839
-0.0872322
0.142882
-0.104219
0.0485686
0.0310523
0.00262753
-0.0418847
0.00820492
0.0859695
-0.0147503
-0.0844834
0.0132643
0.00579069
0.0321036
-0.0530718
0.021279
0.0259806
-0.109882
0.0626228
0.0871228
0.11338
-0.0799743
-0.120529
0.000416676
-0.000287933
-0.000113385
-1.53576e-05
-0.0936169
-0.0284588
0.110597
0.0114783
0.00150138
-0.00575484
0.0159852
-0.0117317
-0.0141571
-0.0343172
0.058861
-0.0103868
-0.00560646
0.0177393
-0.0147932
0.00266033
0.00041495
-0.000680959
-0.000613409
0.000879417
0.0226977
-0.0266595
-0.00164471
-0.00186695
-0.000700557
0.00153517
0.00103233
-0.0576768
0.0604745
-0.00279771
-0.00259459
-0.00642623
-0.00226219
0.011283
-0.0371335
0.0287202
-0.00574372
0.0183405
-0.0472361
-0.0557967
-0.0512993
0.041554
0.0983291
-0.0885838
-0.00766105
-0.00184834
0.00521052
0.00429886
0.046767
0.0111786
0.00211355
-0.0600591
0.000616311
-0.00966946
0.00719968
0.00185347
-0.0405911
-0.0545025
0.0115385
0.0835552
0.0647101
-0.0388775
0.0266248
-0.0524574
-0.00961299
0.0598747
-0.0589108
0.00864912
-0.0591531
-0.0340516
0.00783956
0.0853652
0.016253
0.00481857
-0.0328985
0.0118269
0.0646156
-0.0634957
-0.00111989
0.00187759
0.001785
-0.00157206
-0.00209052
0.0407503
-0.0442873
0.00353702
-0.0547633
-0.040259
0.106017
-0.0109942
0.000827079
-0.00998808
0.00993252
-0.000771516
0.00268692
0.00585077
0.00281524
-0.0113529
0.00162858
0.00691587
-0.00792813
-0.0246648
-0.0578596
-0.00909741
0.0916218
0.0256109
-0.00819186
0.0190227
-0.0364417
-0.084007
0.0925761
-0.101288
0.0927186
0.0760204
-0.0490651
-0.0269553
0.00163352
-0.034674
-0.01014
0.0431805
0.00802982
-0.00560467
-0.00965946
0.00723431
0.0461656
-0.0698962
-0.0619109
0.0856415
0.0740278
-0.0647101
0.0293632
-0.0386809
-0.0136328
-0.00992113
0.0340751
-0.0105212
-0.0581769
-0.0867525
0.0572963
0.0876332
-0.0416156
0.0543404
-0.0110913
0.0977012
-0.0482751
-0.0494261
-0.00487917
0.0156882
-0.00277921
0.000992742
0.000679355
-0.000706209
-0.000965887
0.04734
-0.015796
-0.00524741
-0.0262966
0.00359841
-0.00187654
-0.000434105
-0.00128777
0.00535457
-0.0101725
0.00869867
-0.00388076
0.0724179
-0.042758
0.0262085
-0.0558683
0.00898946
-0.000511797
-0.00683484
-0.00164283
0.00164377
-0.00060158
-0.00104219
-0.0663515
0.065706
0.000645482
0.011804
0.00588064
-0.0965973
0.0789126
-0.0121157
0.0144457
-0.0102751
0.0079451
-0.0733822
0.016708
0.0834613
-0.0267872
0.0187467
-0.0978948
0.0758646
0.00328349
-0.0526862
0.0429484
-0.00842499
0.0181627
0.00859861
-0.00183114
-0.00293721
-0.00383026
8.14923e-05
-0.000661176
0.000579684
0.0282635
0.170913
-0.245666
0.0464889
0.000242472
8.88559e-05
-0.0248113
0.0601313
-0.0524731
0.0171531
1.84334e-05
0.0051605
-0.00445046
-0.000728474
-0.00019025
0.001164
-0.0012104
-0.0707794
0.000566534
0.0702129
-0.0323857
0.113781
-0.0477411
-0.0336545
0.000546257
0.000470807
0.00944723
-0.0104643
0.00039691
0.0927227
-0.0931196
0.00240306
-0.00161877
-0.00123528
0.000450997
0.00137125
0.000700328
-0.000709556
-0.00136203
-0.0366905
-0.00162509
0.0325115
0.0186726
-0.0636501
-0.0723737
-0.0163687
0.00642199
0.0823204
-0.000626111
0.00199737
-0.101661
-0.0414123
0.112591
0.0304816
0.0272278
0.171016
-0.0854625
-0.0578479
-0.0277055
-0.0183738
0.119351
-0.0435624
-0.0574151
0.0397226
0.0299348
0.0386245
-0.108282
0.104776
-0.249154
0.109584
0.0347941
0.00164245
-0.00145572
-0.00138207
0.00119534
-0.0123518
-0.035314
0.0553649
-0.00769908
0.0267073
0.0406325
-0.0268728
-0.040467
-0.0353563
-0.025802
-0.0197628
0.0809211
-0.0533645
-0.0139273
0.05494
0.00121747
-0.0119434
0.00925021
0.00147573
0.0553756
-0.028448
-0.0508475
0.02392
-0.0897513
0.105637
-0.0503278
0.0344416
0.0169996
-0.0234583
0.00677557
-0.000316918
0.0517958
-0.0600586
0.0636384
-0.0574002
-0.00350798
-0.0136829
0.0745911
-0.0052866
-0.0133981
0.00258874
0.016096
0.000332214
0.0594649
-0.0588452
-0.000951936
0.135376
-0.0538339
-0.00241456
-0.0791272
0.0605601
-0.00778903
-0.0495112
-0.00325995
0.0494726
-0.0233333
-0.0645469
0.0384076
-0.0100974
-0.00165774
0.0151893
-0.00343418
0.00542765
-0.00170987
-0.00474589
0.00102812
0.00255062
-0.0442506
0.0409114
0.000788611
-0.000732451
-0.0863571
0.00345619
0.0197699
-0.0128677
-0.0631149
0.0465046
0.0166103
-0.0595532
-0.0170395
0.0109746
0.0656181
-0.102294
-0.000890539
0.105539
-0.00235436
0.0037342
0.0240891
-0.0129345
-0.0148888
-0.0713344
0.149754
-0.0659866
-0.0124328
-0.00473649
0.0134995
0.022335
-0.031098
-0.0527998
0.101011
0.0396039
-0.0878147
0.0294359
0.00114862
-0.0142149
-0.0163696
-0.0364746
0.0381881
0.000837092
-0.0046958
0.00753872
-0.0102601
0.00741718
-0.000238428
-0.00457055
0.0101635
0.0360664
0.0377767
-0.0738431
0.00107463
-0.00189542
1.32251e-05
0.000807571
0.020375
0.00838553
-0.0194394
-0.00932115
0.0226833
0.00917431
-0.000909547
-0.0309481
-0.0528302
-0.00240846
0.00725931
0.0479794
-0.000209746
-0.0440409
-0.000987338
0.000502629
0.00155934
-0.0518382
0.0372958
0.0518133
-0.0372709
-0.0445213
0.0300888
0.0170342
-0.0026017
0.00140824
-0.00374749
-0.0099598
0.0122991
-0.010073
-0.00508929
-0.00278228
0.0179445
-0.0437434
-0.00492119
0.01219
0.0722528
0.0394307
-0.071998
-0.0396854
-0.0461764
-0.00010631
0.0462827
0.0861925
-0.0486817
0.0595894
0.00369328
-0.00766
-0.0373194
0.0412861
0.0358379
0.0113034
-0.00531579
-0.0418255
-0.000458931
0.000342233
0.00101862
-0.000901921
-0.0168798
-0.0449079
0.0617877
-0.000201585
-0.00139327
-0.00415453
0.0308833
-0.0230355
0.00618938
0.027907
-0.0417564
0.0978545
-0.0907003
-0.00215112
-0.00500313
-0.021427
0.10159
-0.0185011
-0.0616619
-0.031661
0.00676743
0.0132799
0.0116136
-0.0390235
0.0358869
0.0136944
-0.0105579
0.0325681
-0.0251267
0.00134353
-0.00878501
0.0193281
0.0734376
-0.124264
0.0314986
0.076291
-0.0752768
-0.0243102
0.023296
-0.143285
0.0019764
0.00375932
0.137549
0.0305013
0.0123604
-0.0411305
-0.00173111
0.0400671
-0.0572641
0.0204036
-0.00320662
0.00216305
-0.00119708
0.000225973
-0.00119195
-0.0146587
-0.00111657
0.0734009
-0.0416421
0.0188068
-0.0505656
-0.0120881
0.0477206
0.000350024
-0.0359825
0.00511515
0.0963765
-0.0935286
-0.00796307
0.0495421
-0.0989964
0.0579235
-0.00846916
-0.0483804
-0.000471542
0.0367638
0.0151098
-0.00325992
0.00869077
-0.0205407
-0.0234254
0.0477888
-0.013307
-0.0110565
-0.0482942
-8.61975e-05
-0.00559544
-0.122877
0.175913
-0.0474396
0.0100622
0.009778
-0.0633852
0.043545
0.0493959
0.00543057
-0.0447642
-0.0132376
0.00690314
-0.00380085
0.0101354
-0.0605366
0.000628323
0.0599082
0.110823
0.0441666
-0.13698
-0.0180098
-0.00956916
0.000323487
-0.00399196
0.0184583
-0.116232
-0.0226883
0.120462
0.0126975
0.066087
-0.0690065
0.00279004
-0.0557021
-0.0104732
0.000528616
0.0019585
-0.0026887
0.0020791
-0.0017823
0.00023182
-0.0509925
0.0262525
0.074088
-0.049348
-0.0019368
0.00101517
0.000961489
-0.0341182
-0.00772825
0.0446365
0.000285083
-0.000263384
0.000357712
-0.000891225
0.000122381
0.000411132
0.000264776
0.00209941
-0.00182411
0.00146503
0.000147413
0.000211663
0.000261077
-4.9228e-05
0.000556601
0.107467
0.124357
-0.0814447
0.000208362
-0.000565494
0.000618209
-0.0528885
0.0527516
0.000136924
-0.0104557
0.0762093
-0.0719831
0.00622943
0.0016398
-0.0197936
0.00537136
0.0127824
-0.0603174
-0.0030268
-0.0172273
0.00402578
0.0473152
-0.0341137
-0.0627742
-0.00349829
0.0662725
-0.00733766
-0.01652
-0.0128012
0.0366589
0.000342976
-0.000393829
-0.000548015
0.000598868
-0.00388956
-0.00736622
0.00913031
0.00212547
0.054985
0.0439049
-0.0175069
0.0483214
0.0897041
-0.038141
-0.0998845
-0.0126418
-0.0441686
-0.0188524
0.0186053
-0.0537147
0.0539619
-0.0112369
0.0283364
-0.00550046
-0.011599
-0.0150769
-0.0134838
0.0133765
0.0151842
0.0963526
-0.0946068
0.0186612
-0.0204071
0.00130252
-0.00443527
-0.000526787
0.00365954
0.00122143
-0.067555
0.0663336
-0.0727042
0.0033982
0.0670419
0.00226406
0.0390229
0.0382735
-0.0772964
0.019088
-0.0599375
0.0282078
0.00192615
-0.00107731
0.000413991
-0.00126283
0.000277261
-8.88846e-05
0.000922334
-0.00111071
-9.23518e-05
0.000446004
-0.00103156
0.000677909
0.064372
0.0567057
-0.0396447
-0.081433
0.0058431
-0.0872626
0.0826217
-0.00120221
-0.0138084
0.000741348
0.02647
-0.0134029
0.0535947
-0.0527245
0.0191472
-0.0200175
-0.000554586
0.00138998
-0.000696687
-0.000138705
0.0201941
0.0478795
-0.0489856
-0.0468765
-0.00164744
0.00105957
0.00144288
-0.000855009
0.0014872
0.0815802
-0.0830674
-0.0498667
-0.0149846
-0.0222478
0.087099
-0.0499445
7.78424e-05
0.0116125
0.0167493
0.0166721
-0.045034
0.000572454
-0.002698
0.000485189
0.00164036
-0.00181961
-0.000423545
0.000595706
-0.106535
-0.00940464
-0.043357
0.159296
-0.00976963
0.00736772
0.136827
-0.134425
-0.0385642
0.0418737
-0.0648726
0.0615631
-0.0806453
0.0801561
0.000489219
0.00121992
-0.0499505
-0.0304914
0.066933
0.0193237
-0.0059666
-0.0802901
0.050566
0.0957882
-0.158618
0.0122637
0.0416644
0.0157122
0.0334583
-0.0908349
0.103848
-0.10835
0.0435245
-0.00373251
0.0135212
-0.0122377
0.00244907
-0.00120101
-0.00020332
-0.00049948
0.00190381
-0.00289558
-0.00567807
0.00174136
0.0068323
0.0608974
-0.00624024
-0.0184921
-0.036165
-0.0567444
0.0282181
0.0285264
-0.0930446
-0.00750962
0.0117762
0.000759163
-0.000573112
-0.00138706
-0.118219
0.0265053
0.00513015
0.0865833
0.00119432
-0.0531527
-0.0102943
0.0622526
0.0457807
0.0286686
-0.101982
0.0275326
0.0385798
-0.0435374
-0.0191451
0.0241027
0.0485709
-0.0602296
0.0502384
0.0323093
-0.0568442
0.0496348
-0.0250998
0.0347154
-0.0360393
0.000324692
0.000999191
0.0162351
-0.142329
0.0914783
0.0346154
0.00139049
-0.0617708
-0.0039284
0.0520059
0.000429819
-0.107206
-0.0339663
-0.00863526
0.00686685
0.0357347
-0.0485077
0.0444163
0.0499985
-0.0459071
-0.0423061
0.0818235
-0.0395174
0.0104928
-0.102362
0.0483316
-0.017074
0.00736684
0.0247587
-0.0150516
-0.0877523
0.0933639
0.0360972
-0.0417088
0.058797
0.0329414
-0.0829553
-0.00878305
-0.0462692
0.142017
0.00425167
-0.0999997
-0.000549523
0.00286087
0.00370432
-0.00601566
0.0537643
-0.0721077
0.0830641
-0.0647207
0.00776154
-0.0390246
-0.00822293
0.039486
-0.0434937
0.0315012
0.103416
-0.0914232
-0.0499878
-0.0264452
0.05288
0.0235531
-0.00953774
-0.000537236
0.00621173
0.00386324
-0.0114554
0.0245554
-0.018305
0.00520497
-0.000238836
0.0748542
-0.0746153
0.0148693
-0.0439126
-0.0194644
0.0480918
-0.0343369
-0.000563305
-0.0131916
0.00212947
-0.0269076
-0.0216671
0.0464452
0.034466
-0.0343924
-7.35889e-05
0.0611722
-0.0417171
0.06432
-0.0837751
-0.0988708
0.0968391
0.0983843
-4.23351e-05
-0.0107613
-0.00178533
0.012589
0.0493353
-0.000284109
0.000112981
0.000322973
-0.000151844
-0.00063203
0.0491349
-0.113151
0.064648
-0.00851024
-0.000734639
0.00502606
0.00421882
0.0268864
0.00996038
-0.0368468
0.00127985
-0.000908497
-0.00888159
-0.029838
-0.0432966
0.0183712
0.0572491
0.000979824
-0.058229
0.0728503
-0.0441376
-0.0511905
0.0224778
0.00173951
-0.025125
-0.0207405
0.0693844
0.0430354
-0.0395695
-0.00800811
0.00924563
0.133347
-0.119495
0.0376549
-0.0515065
-0.0450173
0.0364892
0.0218839
-0.0133558
-0.0529142
0.0524168
0.000497421
-0.0477767
0.0296446
0.0106833
-0.0466034
-0.0108296
0.0467497
-0.00215942
0.161181
-0.161115
0.00209273
0.107652
0.0159362
-0.0160704
0.0507924
0.00858732
-0.0511952
-0.00818449
-0.0145442
0.00473982
0.0107863
-0.00098184
-0.00952871
-0.00546374
0.00468404
0.0103084
0.0661449
-0.0377938
-0.052663
0.024312
0.0295682
-0.0152495
0.0241298
-0.0384484
0.0268319
-0.0938362
0.0897233
-0.022719
-0.00599316
0.000518491
-0.00906957
-0.094344
0.10688
-0.0228048
0.0102685
-0.011479
0.0482198
0.0140438
-0.0507847
-0.00396417
-0.000845488
0.0031762
0.00163346
0.0838579
-0.00455726
0.0510789
-0.13038
2.69901e-05
-0.000660937
-5.91738e-05
0.000693121
-0.0672158
0.0589455
0.0742359
-0.0659656
0.00303702
0.000604564
-0.00207987
-0.00156172
-0.0774642
0.0753251
0.00213911
0.0639564
-0.0603832
-0.00357319
0.0603506
-0.000767566
-0.0595831
-0.0110334
0.12346
-0.000418803
-0.112008
0.00985221
-0.0310352
0.0327955
-0.023728
-8.15871e-05
-0.0562279
-0.0675368
0.0114861
0.0663315
-0.0102808
-0.013372
-0.00214985
3.00168e-05
-0.000338587
3.04594e-05
0.000278111
0.00121711
-9.89871e-05
-0.00023354
-0.000884583
-0.0634804
0.00801989
-0.00159349
0.057054
0.000327642
-0.00551429
0.00200845
0.0031782
0.0123675
-0.0147842
-9.507e-05
0.00251173
0.00827672
-0.00672391
0.0108147
0.0554441
-0.00945486
-0.022535
-0.0234542
0.0362522
-0.00535542
-0.0364393
0.00554249
8.72701e-05
0.0667084
-0.000207886
-0.0665878
0.00758003
-0.070965
0.0191002
0.0442848
-0.0428708
-0.0317899
0.0416303
0.0330304
-0.0362392
0.0225369
-0.0920117
0.105714
-0.00104994
0.0154191
-0.00786878
-0.00650035
0.0489943
-0.0588205
0.0473546
-0.0375284
-0.062688
-0.00684369
-0.00795217
0.00107052
-0.00041599
0.00441639
-0.00507092
-0.012306
-0.00275104
0.00183219
0.0132249
-0.00828791
-0.00948498
0.01094
0.00683292
-0.000150728
-0.0022282
0.00146676
0.000912165
-0.000250407
0.000302977
-5.25701e-05
0.00124306
-0.0748462
-0.0278862
0.101489
-0.000150649
-2.0768e-06
-0.00146738
0.00162011
7.80482e-05
-0.000263864
-6.45913e-05
0.00354614
-0.0663203
-5.21029e-05
-6.16486e-05
0.000416728
0.000576364
0.000214867
-0.000354927
-0.000436304
-0.0280843
0.0628426
0.0787447
-0.113503
-0.00932679
-0.00215818
0.00731881
0.00416616
-0.01471
-0.000396259
0.00577946
-0.00548112
0.00553759
0.0134425
-0.013499
-0.00030121
0.000450268
-0.00020116
-0.0674613
0.0683992
-0.000937898
0.0301758
0.0474569
-0.0601751
-0.0174576
0.0118644
-0.0754919
-0.0215265
0.085154
-0.01373
0.00270329
0.00554558
-0.00451702
-0.00653001
-0.00268297
-0.016542
0.0590423
0.01274
-0.0552404
0.0698482
0.00499573
-0.0547667
-0.0200773
0.000271921
0.000396167
-0.000651666
-1.6422e-05
-6.60017e-05
-0.00015716
-0.00265992
-0.00116153
-0.0014165
0.00523795
0.0650875
-0.0459259
0.0120498
-0.0312114
-0.000851029
-0.00268615
0.00138406
0.00215312
-0.0180382
0.0109415
-0.00245865
0.00955542
0.000887101
-0.101687
0.101788
-0.000988357
0.00320524
0.000845376
-0.0106912
0.0066406
0.0104898
-0.0110411
0.00157047
-0.00101917
0.0098849
0.0041351
-0.0108148
0.036779
0.0562651
-0.0279566
-0.0272799
0.0548046
0.0281953
-0.05572
0.0277504
-0.0550303
-0.00105609
0.00072185
-0.0328664
0.0124732
-0.0100483
0.079218
0.0232317
0.00740109
0.0696589
-0.0541053
0.0976809
-0.113235
0.00472455
0.0924637
-0.0971882
-0.00699678
-0.00735578
0.0137114
0.000641125
-0.0340115
-0.0871232
0.0274422
0.0936926
0.0218255
0.0613684
-0.0244253
-0.0587685
-0.0235278
0.113235
-0.0529284
-0.0418445
0.0448942
0.0517549
-0.0558443
0.055801
4.32893e-05
-0.0391587
0.0366709
0.00248782
0.0397114
-0.0779426
0.0724187
-0.0341876
0.0681686
-0.0847106
-0.0101359
-0.00809365
0.0112327
0.000628246
0.000587527
-0.000425735
-0.000790038
-0.00583831
-0.0426471
-0.00735888
0.00122511
0.00150025
-0.00265568
-6.96863e-05
-0.0574147
0.05188
0.0855359
-0.0800011
0.0373337
-0.0336365
-0.00369719
0.0121544
0.0229413
-0.0147329
-0.0203628
0.00422005
-0.000368357
0.00215828
-0.00600998
-0.0644618
-0.000822889
0.0199759
0.0453088
-0.00295832
0.00664509
0.000533284
0.0389751
-0.109392
0.104742
-0.0343253
0.0460708
0.013324
-0.0593661
-2.86987e-05
-0.00363722
0.00696379
0.00174358
-0.00507015
0.000217552
0.0607076
-0.0609252
0.038377
0.00695909
0.0151726
-0.0605087
0.00436459
-0.0073282
0.00259525
-0.186002
0.0286957
0.164847
-0.00754082
0.0398733
-0.0109361
-0.0289372
-0.00125252
-0.00149855
-0.00119482
0.00394589
-0.0425797
0.0469788
0.125748
-0.130148
-0.00193837
0.000687544
-0.0018841
0.00313493
0.0913704
-0.0020405
-0.0432591
0.00051795
-0.00126913
0.00204261
-0.00129143
-0.0194118
-0.117322
0.0158196
0.120914
0.00370352
0.0525013
-0.00406556
-0.0521393
0.0484166
-0.0696137
0.0601539
-0.0389567
0.0319165
-0.036556
0.0487158
-0.0440763
0.00829069
-0.00143505
0.00552945
-0.0123851
0.00123707
-0.0443343
0.0533445
-0.0536996
-0.0362009
0.096965
0.0176254
-0.0241056
-0.0904847
0.0463854
0.0192039
-0.132709
0.06712
-0.00196068
-0.00859369
0.00628637
0.004268
0.0277688
-0.049819
-0.00323884
0.028783
-0.0265338
0.00737415
-0.00588467
-1.68576e-05
-0.00147262
-0.086637
0.00261661
0.000688847
0.0697449
-0.148005
0.0775708
-0.0281206
-0.087652
0.040566
0.0752067
-0.0730798
0.0203096
0.0032969
0.0494733
-0.0430503
0.0290206
0.0102424
-0.0825621
0.0956068
-0.0130447
-0.0208342
-0.00940219
0.117623
-0.0873868
-0.00367408
-0.00377996
0.0061246
0.00132943
-0.0258033
0.0591851
0.040646
-0.0721681
0.0280305
-0.000830844
-0.000389808
-0.00103342
0.00225408
0.0465095
-0.048927
0.0544234
-0.0374905
-0.00721211
-0.0447344
-0.123332
0.0475912
0.0757407
-0.0429205
-0.0325216
0.0276655
0.0030251
-0.0022253
0.000907552
-0.00170736
0.00297513
-0.000480611
0.000530588
-0.0864522
0.00366428
0.0827879
0.0610338
0.01196
-0.121414
0.0484205
-0.0714166
0.000726592
0.07069
0.00125325
-0.00166138
0.00879887
-0.00839073
0.0488495
0.156563
-0.226573
0.0211607
0.00192234
-0.00232284
0.00133194
-0.000931441
-0.0916444
0.0649491
0.026525
0.000170408
-0.000224303
-2.55887e-05
0.00177642
-0.00152653
-0.000657986
0.00833494
-0.00850117
0.000824217
0.00753976
0.00788402
-0.0147241
-0.000699695
0.0407114
0.0123991
0.00305458
-0.00280016
0.00166792
-0.0986216
0.105596
0.00672259
-0.0136971
0.0126705
-0.0681083
-0.0238043
0.0792421
0.0018275
-0.00421153
0.087451
-0.085067
-0.0359934
-0.0335563
0.0812782
-0.0117286
-0.0407418
0.0245375
0.0405952
-0.0243909
0.053702
0.0206585
-0.0721361
-0.00222434
-0.00110508
0.000171175
0.00131654
-0.000382639
-0.123558
-0.0432281
0.0398709
0.126915
0.0482506
-0.0375673
-0.0319241
-0.0376829
-0.0311086
0.100716
-0.00180785
0.00423569
0.00050524
-0.00293308
-0.0310268
-0.0808258
0.028883
0.0829696
-0.0296603
-0.0283942
0.0205641
-0.000682408
-0.00335074
-0.00163754
0.00301802
-0.00382028
0.0024398
-0.00571339
0.00561948
0.0253092
-0.0774954
-0.0856483
0.137834
-0.000485198
-8.85099e-05
0.000276215
0.000297493
0.0571227
-0.0601691
0.0479974
-0.044951
-0.0149063
0.0451625
-0.00803593
-0.0222202
0.0869931
-0.0865072
-0.0187202
0.0182343
0.0266359
0.0219135
-0.0633845
0.0148351
-0.127382
0.0739398
0.0183665
0.0350756
-0.00534784
0.00332031
9.83731e-05
0.00192915
-0.00843334
0.00987082
-0.000184224
-0.0134455
-0.00372264
0.0178825
-0.000714354
-0.0604019
-0.00398407
0.0130017
0.0513843
-0.00767768
0.103331
-0.00500575
-0.0906475
0.00875539
-0.0475978
0.0809868
-0.0421444
-0.00139382
0.00414696
-0.0014238
-0.00132935
-0.0152753
0.000304411
-0.00200335
0.0169742
-0.106949
0.00705033
0.0128123
0.087086
-5.84954e-05
-0.000271116
0.000478459
-0.000148847
0.0371953
0.0080986
0.0269589
-0.00511757
0.0463943
0.052903
-0.0941797
-0.000223498
0.000337329
-0.000172326
-0.000493344
0.00218967
-0.00150615
-0.000190167
0.0171243
0.111427
-0.0478093
-0.0807415
-0.000233392
-3.77241e-05
0.000108699
-0.000342091
0.0618633
0.0170916
-0.0923532
0.0133983
-0.15717
0.0860141
0.0772052
-0.00604917
-0.0181737
0.000197151
-0.0514966
0.0694732
0.0248617
-0.0144891
0.0167389
-0.0271115
-0.0664629
-0.0230889
0.0895518
-0.0779014
0.0387015
0.0391999
-0.00167732
-0.000417658
0.0008426
0.00125238
-0.0379926
0.0411561
0.00780239
-0.0109658
0.046514
-0.0545395
0.00802554
-0.0602906
0.0335369
0.0450457
-0.0182921
0.00452861
-0.00287986
-0.00148167
-0.000167071
-0.00326927
-0.00243618
0.000357612
-0.0422101
-0.0417969
0.0472686
0.0142351
0.00253568
-0.0640393
0.00158797
0.000130073
-0.00138803
-0.000330016
0.00370715
0.00676156
0.00222982
-0.0126985
0.00718652
0.0230751
-0.0412496
0.010988
-0.0190658
-0.0154047
-0.00916498
0.0436354
-0.0755898
-0.0114994
0.0310367
0.0560525
-0.00185513
0.0152141
-0.00828101
-0.005078
-0.0529661
0.0006546
0.0332457
-0.00021443
0.025356
-0.135676
0.126381
-0.0160611
0.0285756
-0.0344693
-0.0517831
-0.0271149
0.0548653
-0.000617192
0.041385
0.00385034
-0.0446182
-0.0551245
-0.0599577
0.115082
-0.0032641
-0.00106917
-0.00173513
0.0060684
0.00314845
-0.00480607
0.00172719
-6.95663e-05
0.0370956
-0.00637489
-0.0282166
-0.00250414
-0.00325797
-0.00235825
0.00235212
0.00351772
-0.0107716
0.0659117
-0.0586579
0.0763587
-0.000363747
0.0270373
0.00984459
-0.00685995
-0.0300219
0.0585047
-0.000761659
-0.0577431
-0.0528881
0.113842
-0.0284227
0.0596882
0.0200891
-0.0513547
-0.0173302
-0.0251256
0.0181193
0.0243365
0.00306681
0.0037621
0.000866039
-0.00769494
-0.0342087
-0.0379602
0.099326
-0.0271571
0.045844
-0.0370703
-0.000746686
-0.00802702
-0.0474928
0.11718
-0.0531971
-0.0164902
-0.00128349
0.00154669
-5.56404e-05
-0.000207554
-0.000531309
0.021352
-0.0048511
-0.0159696
0.00308951
0.00392105
0.000273926
-0.00728448
-0.00030166
-4.11753e-05
4.38892e-05
0.000298946
4.20281e-05
-2.74777e-05
-0.00031621
-0.00913696
0.0229834
0.0702268
-0.0840732
0.0810591
-0.0833422
0.0022831
0.000281838
-0.000259126
-2.27112e-05
-0.0126832
0.000967
0.00230914
-0.00131218
-0.00196396
-0.00739744
-0.00691922
0.00494368
0.00937298
-0.0557558
0.0273332
0.000317093
0.000193904
-0.000778188
0.000267191
0.0334723
0.0552642
-0.035285
-0.0534516
0.0118573
0.159683
-0.180005
0.00846452
0.0582868
0.0632951
-0.0618937
0.00179742
-0.0136346
-0.00193381
0.013771
-0.0333978
-0.030114
0.0635118
0.0311242
-0.0645219
-0.0544849
-0.045176
-0.0656862
0.165347
0.0495839
-0.0553829
0.00579897
-0.0729088
0.135112
-0.0716576
0.032948
-0.0299524
0.0861766
-0.00340835
-0.0691083
-0.01366
0.0694743
-0.069593
0.0117148
-0.0115962
0.000149466
-0.00622799
0.00711621
-0.00103769
0.00027197
-0.0042354
0.00669328
-0.00272985
-0.000248967
0.000240757
0.000627082
-0.000618872
0.0221654
0.0234873
-0.0337625
-0.0118902
-0.00542724
-0.00483961
0.00618
0.00408685
-0.0109022
0.0320017
-0.0425966
0.0214972
0.00113769
-0.00854382
0.0106591
-0.003253
0.0484707
-0.00414254
-0.0443282
0.0380471
0.0357514
-0.12657
0.052772
-0.0979042
0.0599807
0.0759706
0.0329847
-0.0997647
-0.0469236
0.107873
-0.0370612
-0.0238881
0.001613
0.00926878
-0.012467
0.00158523
0.0270218
-0.00223354
-0.0247883
-0.0305217
0.0435789
-0.00389586
0.0203433
-0.0315243
0.000916299
-0.000205019
0.0011109
-0.00182218
0.0117369
-0.0382707
-0.000340656
0.000146445
0.000244317
-5.0107e-05
0.00279205
-0.000442045
0.00110676
-0.00345677
-0.00072975
-0.00263436
-0.0780336
-0.0128166
0.00160047
-0.0118788
0.0230949
0.0202746
-0.0907656
0.0207648
0.0497262
-0.00339866
0.0582918
-0.0819472
0.027054
0.000558096
-0.000329451
0.00019002
-0.000418664
0.0790758
0.0125556
0.00226406
-0.0938955
-0.000211004
-0.000722866
0.000912012
2.18581e-05
0.0050124
-0.00089951
-0.0689605
0.0648476
0.00693704
-0.00121123
-0.00512597
-0.000599845
0.00659263
0.0046074
-0.00372095
-0.00747907
-0.110402
0.0964946
-0.0876432
0.10155
-0.054064
0.108996
-0.0549319
0.00229487
-0.0438095
0.00859684
0.0329178
0.0037352
-0.00351995
0.000688297
-0.00090354
0.0491997
-0.00260965
0.00113053
-0.12968
0.00248869
0.0743033
-0.0345205
0.000203275
0.00228278
0.0327319
-0.0274172
-0.00759751
0.078181
-0.0307712
0.0342071
0.00427501
-0.00516401
0.000100103
0.000788891
0.0345795
0.0241179
-0.0763961
0.0176987
1.34876e-05
0.000115619
-0.000181169
5.20623e-05
-0.000471438
0.00159206
0.00547201
5.90243e-05
-0.0081629
0.00661698
0.00582094
0.0746299
0.0407463
-0.0370569
-0.0783193
-0.131026
0.14274
-0.00965616
-0.00205772
0.0315151
-0.0327825
0.00126735
-0.0372143
0.000284024
0.000420718
-0.00325879
-0.00232593
0.0146359
0.206829
-0.158952
-0.062513
0.0292359
-0.0608791
-0.0180502
0.0496935
-0.00313479
0.03896
-0.000880333
-0.08527
0.0471903
-0.0231562
0.0100599
-0.037934
0.0476613
0.0461669
-0.0558942
-0.0669575
0.0899319
-0.152675
0.1297
-0.000207395
6.1215e-05
-0.00145105
0.00159723
0.000196658
0.00228846
-0.000612142
-0.00187298
0.0431564
-0.0142887
0.038083
-0.0669508
-0.00356226
0.000361126
0.00342875
-0.000227614
-0.0118252
0.010601
-0.0367097
0.0122153
-0.0461471
0.005957
-0.00330749
0.0186542
-0.0213037
-0.139368
0.0193885
0.131025
-0.0110458
0.0314218
-0.0218585
-0.0114839
0.00192057
0.0343523
-0.0529845
0.00680693
0.00428012
0.0077881
0.0525073
-0.0645755
0.0247411
-0.0071867
-0.025164
0.00760965
-0.0797173
-0.00813978
0.0144749
0.00124311
-0.00110774
6.12853e-05
-0.000567823
0.00311398
0.00252374
-0.0050699
0.0183869
-0.0321433
0.0384975
0.0179696
-0.143342
-0.0230062
0.148379
-0.114256
-0.0149259
0.0266851
0.102496
0.0570163
-0.0342767
0.027926
-0.0506657
0.113113
-0.00615103
0.00301984
-0.109982
-0.017019
-0.0370697
-0.00429857
-0.0164915
0.00841878
0.0123713
-0.0012794
0.000440163
-3.90182e-05
0.000878258
0.0155322
-0.0783625
0.0628303
0.108566
-0.00699682
-0.112603
-0.0263107
0.0556158
-0.0463241
0.0393629
-0.122196
0.0152649
0.0675677
-0.00400439
-0.0121602
-0.0268913
0.043056
0.00369786
0.0508918
0.0866003
-0.136063
-0.00142924
0.0492574
-0.0830088
0.0891395
-0.0553881
-0.095928
0.0960863
-0.00750336
0.00734506
0.0031424
0.00427347
-0.0956325
0.0882166
-0.00176947
0.00361737
0.00611788
-0.00796578
0.000248269
-0.000956816
-0.000295777
0.00100432
0.0891191
0.000507528
-0.0170708
-0.0725558
-0.000635485
0.000660984
1.5604e-05
-4.11033e-05
0.000635142
0.0032354
-0.0022322
-0.00163834
-0.00181529
-0.000673388
-0.0011734
0.00366208