/*--------------------------------*- C++ -*----------------------------------*\
| =========                 |                                                 |
| \\      /  F ield         | OpenFOAM: The Open Source CFD Toolbox           |
|  \\    /   O peration     | Version:  2506                                  |
|   \\  /    A nd           | Website:  www.openfoam.com                      |
|    \\/     M anipulation  |                                                 |
\*---------------------------------------------------------------------------*/
FoamFile
{
    version     2.0;
    format      ascii;
    arch        "LSB;label=32;scalar=64";
    class       volVectorField;
    location    "0.091626";
    object      U;
}
// * * * * * * * * * * * * * * * * * * * * * * * * * * * * * * * * * * * * * //

dimensions      [0 1 -1 0 0 0 0];

internalField   nonuniform List<vector> 
47425
(
(10.4027 0.247923 0.000565049)
(10.2163 -0.30152 -0.00400019)
(9.98119 0.00942957 -0.00517195)
(11.6514 -0.534322 -0.251917)
(12.7716 0.381614 0.585423)
(10.0203 0.00412523 -0.000688813)
(12.689 0.214394 0.590136)
(10.0086 0.00325093 -0.00124253)
(10.0047 0.00866767 0.00586498)
(0.48981 2.82164 -2.60465)
(9.98063 0.00682817 -0.00389829)
(9.99101 0.0732658 -0.0093893)
(12.4762 0.363323 0.151391)
(9.98639 0.00656812 -0.0072786)
(11.2636 -0.0842325 -0.166681)
(10.0684 -0.215816 0.00519792)
(10.0036 0.00259633 -0.0026356)
(8.80109 -0.527636 -1.53171)
(8.65849 1.30124 -5.15578)
(13.7325 -0.571424 -1.20164)
(10.9699 -0.685925 -0.633323)
(9.78887 -0.0394871 -0.0148335)
(9.95978 0.00877275 -0.00547502)
(9.93165 0.0244403 0.0176684)
(9.89856 -0.0812117 -0.00170883)
(10.0225 0.0674683 0.0207094)
(10.0066 0.0105055 -0.00282611)
(11.4888 -0.471838 -8.9452)
(10.0131 0.00641077 -0.00184674)
(9.99853 0.0220131 0.0119824)
(9.65797 0.767014 0.00262051)
(10.0442 0.0829178 -0.00160536)
(10.0007 0.00597214 0.00583336)
(9.98093 0.0201886 0.010717)
(10.0142 0.00242315 0.0103608)
(9.97454 0.00428189 0.00323459)
(9.71938 -0.0377045 -0.0886993)
(10.0011 0.016608 0.00810191)
(10.5512 0.474444 -0.0324933)
(10.1813 0.0817099 0.0154147)
(9.89358 0.289315 -0.028996)
(8.66545 -0.033222 -0.203596)
(5.47575 -2.50557 0.603347)
(9.9834 0.0132793 0.00536233)
(0.22062 -1.85808 -0.403867)
(9.97506 0.137913 -0.0166352)
(9.94056 -0.0014177 -0.0121259)
(9.99475 0.0294418 0.00519055)
(10.1811 -0.12114 -0.000421639)
(10.0712 -0.021953 -0.0112768)
(2.13959 -0.721478 -5.84535)
(9.0899 1.51421 1.23058)
(10.0551 -0.00801112 0.00538887)
(5.47783 -3.981 0.866043)
(10.0488 0.0855561 -0.0027566)
(10.1959 0.0190271 -0.00394662)
(10.3853 -0.220601 0.0251478)
(9.99108 -0.00550738 0.0222843)
(11.9057 1.31828 1.48677)
(9.99519 0.0153136 0.0056962)
(4.6215 -3.89897 0.405692)
(5.4877 -0.854429 1.95363)
(1.79624 -1.41801 -0.326486)
(9.00607 -1.18764 -0.0961431)
(10.0076 0.0106385 -0.00649326)
(10.8379 -0.410689 -0.0430298)
(9.98578 -0.0112299 -0.00644447)
(10.9986 0.419577 0.688421)
(6.40201 -2.76528 1.38974)
(8.96 0.576565 0.288385)
(10.8477 -0.723699 0.118517)
(10.0732 0.0338682 -0.00647456)
(11.055 -0.214964 -0.0451544)
(10.8509 0.335071 -0.656144)
(2.47346 0.611822 -0.424676)
(9.99887 -0.00387389 0.0010109)
(1.81749 -1.21105 0.202918)
(9.95987 -0.00779408 0.00711598)
(4.32702 -1.3584 0.892397)
(12.0535 -0.150381 1.34654)
(3.05368 0.35082 -0.356186)
(10.2175 0.352427 -0.0012523)
(9.17431 0.142766 -0.358324)
(10.0132 0.0136889 -0.0069168)
(9.17994 -0.0138642 -0.0854852)
(10.4017 -0.0661777 0.0188144)
(10.9625 -0.0753513 -0.053684)
(10.2558 0.168853 0.0101549)
(11.0459 -0.41111 -1.54336)
(11.0703 -0.810411 1.7802)
(9.76018 0.442961 -0.0521405)
(10.8009 -0.00243935 -0.0358826)
(10.0422 -0.010527 0.0013193)
(10.224 -0.055691 0.0127243)
(10.1763 -0.0483713 0.0197791)
(10.1746 -0.0119916 -0.00379892)
(10.0411 0.000673429 -0.00384982)
(10.5455 -0.320046 -0.0185219)
(10.3164 -0.0595181 0.00262573)
(10.0467 0.0174174 0.0154181)
(10.0197 0.038343 0.00296594)
(8.68915 0.154378 -4.14786)
(10.305 0.185791 -0.0105848)
(5.30928 1.94213 -0.842528)
(10.3143 0.169644 -0.0247865)
(10.9027 -0.733285 -0.0635308)
(10.2592 0.378591 0.0855679)
(10.2932 -0.0943998 -0.00692763)
(8.17236 -0.177861 -0.502562)
(9.96684 0.0897688 -0.00688179)
(-0.123303 -0.333395 -0.590227)
(9.99293 -0.0791631 -0.00697126)
(10.7907 -0.941863 -0.0727468)
(10.4526 -0.0177761 -0.0320868)
(11.157 -0.402671 -0.00502217)
(1.78319 -4.13019 -5.9483)
(11.1483 -0.350214 -0.00991867)
(4.0444 0.0523046 -4.36895)
(10.3731 0.173594 0.00557328)
(11.3577 0.418118 0.351552)
(10.5409 -0.0589004 -0.0257174)
(10.0002 0.00364534 0.00546453)
(9.99653 0.0524768 -0.0045871)
(11.9168 0.808503 -0.812651)
(10.041 -0.0332202 -0.00401576)
(11.1096 -0.763925 -0.0384831)
(10.3766 -0.105029 -0.00330897)
(10.0072 0.00362235 -0.00678292)
(9.98043 0.0219399 0.0107302)
(10.0244 0.0301535 0.000563762)
(9.18797 -0.287734 0.273339)
(10.8436 0.254121 -0.0633554)
(4.31785 0.0598675 0.508744)
(10.4413 -0.577279 0.0256459)
(9.6892 0.276451 -0.411256)
(12.2283 -0.54373 -0.971603)
(10.8407 0.960076 0.231091)
(11.1352 -0.840756 0.0840933)
(10.1545 -0.0739774 -0.00515421)
(11.1929 -0.116922 -0.0709416)
(9.98132 0.00595642 0.00185012)
(11.7692 0.31281 0.259827)
(10.5226 0.0400863 -0.0266894)
(10.7786 -1.21523 -0.0276785)
(10.1557 0.234415 -0.017604)
(10.0047 0.00521046 0.00557895)
(12.654 0.313784 0.413161)
(10.0107 -0.0305606 0.00732428)
(10.4677 0.022126 -0.0107876)
(9.97667 -0.0171604 0.00613922)
(10.6665 -1.20731 -0.179849)
(2.90134 -0.406918 -6.80275)
(10.0071 0.0149699 -0.00985723)
(5.51088 0.129872 -11.3341)
(8.93685 -1.17998 -0.772704)
(10.0004 0.125492 0.0208473)
(11.0477 0.528832 -1.73364)
(7.27997 -3.91752 -2.67281)
(10.2261 -0.0701295 0.0123145)
(9.97303 0.0103595 -0.00320494)
(11.3967 -0.200961 -0.0262811)
(10.0318 0.095269 0.021388)
(10.0357 0.0169697 -0.00389885)
(10.1658 0.320412 -0.0315924)
(11.8288 0.243695 -0.652498)
(-1.20329 -1.57588 -2.02425)
(10.016 -0.0298997 -0.00179954)
(3.00416 0.467275 -0.431986)
(9.91309 -0.00453162 0.0183811)
(12.0702 0.788836 -4.36523)
(3.81259 0.28493 -0.638519)
(9.96694 -0.00571708 0.00212969)
(10.0013 0.0243262 -0.00331049)
(9.423 -0.991995 -0.678883)
(10.399 -0.0293238 0.0169818)
(9.2428 -3.0604 -1.45332)
(2.75139 0.970314 -7.65984)
(10.0116 0.010216 -0.00220347)
(10.0343 -0.00112884 0.00437808)
(10.0566 -0.00102953 0.00621449)
(2.59984 0.432282 -10.9689)
(10.0983 -0.198758 0.0368606)
(10.0284 0.00176809 0.0035131)
(10.0334 0.00467672 0.0129025)
(10.0407 -0.00166019 0.00488451)
(10.027 0.0237688 0.00525468)
(10.2149 0.0836371 0.00896643)
(5.63874 -0.535599 -0.669011)
(9.81709 0.00792086 -0.00696883)
(10.2456 0.233245 0.0926498)
(10.0004 -0.00999251 -0.00271283)
(9.98501 0.00264705 -0.00223426)
(12.1996 -0.873011 -0.589942)
(9.99719 0.00187487 0.00412733)
(10.025 0.00099877 0.0158633)
(11.2645 0.0708251 -0.0635819)
(10.0017 0.00111249 0.00759089)
(10.0553 -0.0257047 0.018349)
(11.4323 0.163713 -0.0696441)
(10.4576 -0.271678 0.0693443)
(9.99504 0.0140791 0.00219718)
(10.5431 -0.0520683 0.00380242)
(8.60588 0.504156 -0.450991)
(11.2691 -0.096062 -0.0530324)
(10.3145 -1.48454 -1.01995)
(10.7077 -0.0124606 -0.0398956)
(10.0029 -0.0124111 0.00689899)
(11.2229 0.00533387 -0.0563823)
(9.99482 0.0865632 -0.01398)
(10.0029 0.013364 -0.00268138)
(10.4659 -0.176379 -0.00715534)
(11.2614 0.150734 -0.011056)
(10.0069 0.0239968 -0.000181182)
(9.9667 -0.0482125 0.0158516)
(10.8202 -0.0517158 -0.00246393)
(11.3874 0.279207 -0.159124)
(10.863 0.0401168 -0.0639558)
(11.3409 0.264174 1.56285)
(8.66119 -1.29305 -0.699224)
(9.9449 -0.044517 0.0102644)
(11.8541 -0.525834 1.2492)
(11.3663 0.216118 0.166754)
(9.77483 -0.637497 -1.16288)
(10.9557 0.209978 -0.0371441)
(10.6777 -0.00429898 -0.0242732)
(11.9752 -0.749589 1.15154)
(10.0305 -0.00713066 0.00686716)
(11.2982 0.306191 -0.0569787)
(11.5986 0.153003 -0.0274596)
(12.0576 -0.248955 -0.332267)
(10.8533 0.0380863 -0.0573958)
(9.98179 0.00975586 -0.00412031)
(10.6696 -0.0742893 -0.00848217)
(10.0005 -0.00437223 -0.000597157)
(9.80262 -0.00780425 -0.00960409)
(9.98676 0.26222 0.00860529)
(11.8149 -0.143188 1.37982)
(9.96354 0.0229574 0.00490461)
(12.164 -0.0399221 1.21838)
(9.79135 0.000847128 -0.0402767)
(9.88059 -0.0144687 -0.0141729)
(10.0069 0.00680018 0.00852726)
(10.0938 -0.0345546 -0.00697007)
(11.6688 0.896679 0.0680054)
(10.3879 0.493134 -0.00951232)
(10.0078 -0.00303776 0.0120029)
(10.4927 -0.0783402 -0.0210419)
(10.0107 -0.000657775 0.00276011)
(10.0063 -0.0279891 0.0139945)
(9.94506 -0.00192948 -0.00802264)
(9.98009 0.114995 0.0363554)
(12.0606 -0.458904 1.35588)
(9.97309 0.0110323 0.00452699)
(10.0033 0.00413726 0.00562732)
(9.91838 0.0127509 0.000581815)
(10.0437 3.14418e-05 -0.00483214)
(9.85202 0.0635326 -0.0302017)
(9.74588 0.0173871 0.0128978)
(10.481 -0.740972 0.12304)
(10.0099 -6.33989e-05 -0.00669752)
(9.74232 0.0252993 0.0114754)
(9.9994 0.0257567 -0.000664404)
(10.2047 0.0504508 -0.00892198)
(10.1122 0.0107875 0.00255569)
(12.1191 0.0404623 0.758637)
(10.67 -0.354027 -0.149892)
(10.0406 -0.000605719 0.000566187)
(12.1877 0.0745109 0.582832)
(10.0154 0.000571654 0.00529933)
(10.1959 0.0965817 -0.00254981)
(10.1755 0.0502707 -0.00356954)
(12.2669 0.108061 1.01222)
(11.7088 0.0782344 1.25225)
(10.2149 -0.162729 -0.0168629)
(12.1446 -0.191222 1.37255)
(10.0439 0.00294803 -0.00660914)
(12.2135 -0.032183 1.20631)
(6.56333 3.33159 2.10754)
(11.6963 -0.0446885 1.32646)
(5.92515 1.29544 -5.28528)
(4.06962 -4.09482 0.292111)
(10.3717 0.204264 0.00676012)
(2.87253 -3.65803 -0.447028)
(9.88043 -0.0112848 0.00900767)
(10.0133 -0.0110999 0.018792)
(11.3983 -0.168352 -0.013837)
(9.90483 -0.00743429 0.0104922)
(9.93085 0.00790699 -0.00461186)
(9.84804 -0.273638 -0.0270063)
(11.1745 -0.45142 -0.169337)
(1.38885 1.71925 -3.71319)
(9.19927 0.841682 -0.0277119)
(10.0028 -0.00175235 -0.00229204)
(10.0172 -0.00351825 -0.0143068)
(9.9834 0.00757627 -0.000771944)
(10.1533 0.384409 0.413122)
(11.5842 0.957201 0.233247)
(10.2115 -0.719165 0.0893307)
(9.99149 -0.131799 -0.00398983)
(12.0336 -0.178046 -0.0259938)
(10.2248 0.170847 0.0461741)
(10.1009 0.0512031 0.000399844)
(9.95915 -0.0218808 0.00585584)
(10.0128 0.00318069 -0.00619877)
(9.82959 4.16184 -0.607517)
(5.45857 1.77407 -0.681535)
(1.50309 1.2147 -6.40527)
(10.0572 -0.0146093 0.00153553)
(10.1169 -0.0417136 0.00934763)
(10.0428 -0.636763 -0.0750889)
(10.1784 -0.505301 -0.156677)
(1.25403 -0.827987 -5.85029)
(9.96768 0.00110803 -0.0104727)
(9.93928 0.00309006 -0.00851362)
(10.7514 2.08552 0.442875)
(10.3536 -0.14958 0.0236276)
(9.84688 0.0123845 -0.00741766)
(9.80869 0.0122704 -0.000493905)
(9.89725 0.00126259 -0.00311498)
(12.1243 2.71071 -1.13952)
(11.242 1.79525 0.366332)
(10.0697 0.195372 -0.00878796)
(10.0989 0.125264 -0.00801035)
(10.0284 -0.0134101 0.0081849)
(10.3878 -0.0398117 0.00279882)
(10.0532 -0.003812 0.00622233)
(10.0613 0.228543 -0.00381211)
(10.2054 0.05973 0.0204361)
(10.0527 -0.0192251 -0.00162035)
(9.97871 -0.018188 -0.00126882)
(11.639 -0.0609609 0.221466)
(8.33356 0.660167 -0.561249)
(10.6281 -0.733106 -1.40166)
(10.0099 0.0132309 0.000552484)
(9.96519 -0.00714813 0.00716328)
(10.0554 -0.00150363 0.000996735)
(8.61327 0.972827 -0.595434)
(9.97894 0.104287 -0.00368748)
(10.024 0.0226841 -0.00563122)
(10.0258 -0.0627307 -0.00454275)
(10.0338 0.263948 -0.0482499)
(10.0287 0.288406 -0.0511029)
(10.1992 0.14288 0.0229444)
(9.94068 0.266813 -0.0403804)
(10.0474 -0.0171953 -0.0069284)
(10.0512 -0.00117587 0.00559387)
(9.9831 -0.00701373 0.0218482)
(9.66556 0.453305 -0.212893)
(9.94835 0.00114933 -0.00243373)
(9.93588 -0.0114355 0.0041509)
(10.0199 0.237415 -0.0400137)
(10.4296 -0.47738 -0.102483)
(10.0486 0.25925 -0.0257267)
(9.96517 0.204537 -0.0219957)
(10.0226 0.196818 -0.0298585)
(11.1681 -1.4536 -0.307531)
(9.94375 0.00393699 -0.00629433)
(9.20106 0.236905 0.0424901)
(9.98056 0.156596 -0.0118132)
(9.99529 0.0236163 -0.00772852)
(9.50528 0.312347 1.9016)
(11.5571 0.189804 -0.465564)
(10.1565 -0.0506435 0.00823429)
(9.92291 0.00351479 -0.00253618)
(10.3711 -0.444237 -0.0103499)
(10.9273 0.379262 -0.137361)
(9.77104 0.00431631 -0.00834681)
(10.0104 -0.00627858 -0.00852668)
(9.97229 -0.132529 -0.000815123)
(10.2298 0.774471 -0.163529)
(9.80819 0.0018375 -0.00705489)
(-0.479097 -2.49855 -0.606764)
(10.8429 -0.105924 0.0106433)
(10.022 1.0125 -0.144989)
(9.97934 -0.00179095 0.00733705)
(10.0166 0.893933 -0.119561)
(10.9266 0.553924 -0.171761)
(10.0099 -0.000390051 0.00151123)
(10.0035 0.00575886 0.00453963)
(9.75099 -0.0354926 -0.070768)
(10.0109 0.00323276 0.00500262)
(10.0392 0.906621 -0.17177)
(10.1344 -0.140464 0.0167791)
(10.0051 0.0234739 0.00727246)
(9.99938 -0.0592382 -0.00489091)
(10.0017 0.0181104 0.00613069)
(9.95725 -0.0130168 0.00562842)
(10.229 0.181086 -0.00934477)
(9.99945 0.00594584 0.00775241)
(9.97317 0.0121249 0.00758293)
(10.5757 0.964312 -0.379737)
(10.3541 1.17173 -0.437744)
(9.96729 -0.00942213 -0.00230297)
(10.5247 -0.559999 -0.000909931)
(9.97914 -0.00572535 0.00602115)
(10.4982 0.904323 -0.336999)
(9.95581 -0.0722196 0.000615162)
(9.98846 -0.000866167 -0.00131609)
(12.2037 0.744697 -0.423257)
(10.062 0.00881963 -0.00942359)
(10.6917 0.116273 1.06086)
(10.0843 -0.00523882 -0.000210285)
(9.2759 1.56394 -2.02642)
(9.92402 0.0060599 -0.00733703)
(10.7795 0.156694 0.000878852)
(9.92623 0.00278848 -0.0160184)
(10.0344 0.0123789 0.00583861)
(9.80663 0.00749411 -0.00505255)
(10.0454 -7.02954e-05 0.000115493)
(9.9768 -0.00346058 -0.0199608)
(10.3533 1.05031 -0.343612)
(0.866417 -1.68652 0.585892)
(2.04965 -0.75734 -2.59317)
(10.1179 0.10361 0.0105542)
(10.3702 1.57452 -0.997033)
(10.7895 0.793236 -0.366001)
(10.8949 0.749058 -0.352914)
(9.97517 -0.00984934 0.0111272)
(9.99651 0.00174057 0.00934554)
(9.95795 0.0262396 0.0100297)
(9.83718 0.00701272 0.0111362)
(9.94425 -0.0175473 -0.00186639)
(10.2411 -0.303908 0.0124347)
(10.914 0.689871 -0.245751)
(9.9402 -0.0149235 0.00275667)
(10.0468 0.00872579 0.00585108)
(11.6927 -1.03706 -0.0317898)
(11.6649 0.562214 -0.274212)
(11.2841 0.641686 -0.21805)
(8.05779 -1.33606 -5.20892)
(-0.0117548 3.16924 0.464874)
(10.8008 -0.314408 -0.0136386)
(7.39929 -0.984224 -5.74803)
(-0.0654119 3.04923 0.635882)
(9.8855 -0.2943 -0.0404823)
(-0.125746 3.0455 0.600993)
(9.43303 -0.273577 0.845664)
(9.99487 -0.0838537 0.0215465)
(11.158 0.702828 -0.387375)
(11.099 0.760871 -0.414073)
(11.4089 0.661432 -0.382583)
(-0.810329 2.16962 0.874548)
(10.3406 0.153001 0.00318233)
(10.0224 0.0606676 0.00324554)
(10.01 -0.0275012 -0.00375114)
(11.4827 0.696486 -0.500625)
(11.3457 0.741635 -0.564837)
(10.1632 0.0277549 0.0263373)
(10.21 0.157963 0.0416718)
(9.34911 2.84638 1.48207)
(-0.676701 2.22448 0.875337)
(13.028 -0.576555 -3.23534)
(10.006 -0.0138801 0.00836804)
(8.82684 -0.759735 -3.37209)
(10.5893 0.729602 1.2167)
(10.0198 -0.11388 0.0123768)
(11.0523 0.532134 -0.0846878)
(12.2687 0.25456 0.171935)
(11.0275 0.443902 -0.0743074)
(9.99427 -0.0174993 0.0048228)
(9.9984 -0.00458081 0.00727906)
(9.98285 -0.00628611 0.0010053)
(10.4651 0.446824 -0.0245365)
(9.99919 0.00191035 -0.000477218)
(9.97126 -0.0110252 0.00597312)
(10.1464 0.0782492 -0.00985537)
(9.93914 0.00577041 -0.0171853)
(11.2403 0.318354 -0.0973763)
(10.0043 -0.0375571 -0.0141271)
(9.96262 0.0117513 -0.00436104)
(9.99565 -0.019275 0.00263437)
(10.0047 -0.00694458 0.00943496)
(9.96329 -0.003259 0.00399154)
(10.3831 0.359111 -0.0155324)
(10.0874 0.050297 -0.00720927)
(10.1577 0.0224047 0.0387487)
(11.1433 0.319768 -0.0862359)
(8.02167 3.06642 1.11521)
(9.9722 -0.00575894 -0.00201762)
(12.0673 1.56254 -1.62789)
(9.99704 -0.00877685 -0.0026688)
(11.0724 0.0876695 -0.0412545)
(7.82865 -0.266363 2.29976)
(9.75776 1.48559 -0.68107)
(10.0236 0.0494362 0.00397907)
(9.82543 1.57018 -0.759231)
(10.0081 0.0251784 0.00720745)
(10.0309 -0.0160584 -0.00861543)
(10.0928 1.35547 -0.985983)
(9.99794 -0.00628076 0.0234086)
(10.8686 -0.260709 0.00219219)
(9.95722 1.24893 -0.702716)
(10.3977 -0.093883 0.0123439)
(10.6439 0.0906012 -0.290185)
(8.24374 0.382526 -4.20219)
(10.1303 -0.0640198 0.0141809)
(9.58464 1.95034 -0.715219)
(10.0493 -0.0226278 -0.0050701)
(9.01224 2.07501 -1.13693)
(10.2085 -0.193058 0.0432588)
(10.0216 -0.00510184 0.0060409)
(9.943 0.0289316 0.0233009)
(9.9908 0.00716508 -0.0145663)
(10.6465 1.13499 0.827255)
(9.95636 0.0033242 -0.0226329)
(9.9959 0.00324281 -0.0169958)
(10.0051 -0.0426265 0.0097979)
(9.87118 0.186523 0.00515685)
(11.1248 0.788103 -0.0505165)
(10.014 0.00434531 0.00396123)
(9.99383 0.000206612 -0.000398465)
(8.62536 0.338244 -0.660665)
(10.0135 -0.00395147 -0.0131541)
(9.7657 0.186219 -0.105832)
(10.1515 -0.250278 0.0622494)
(10.0995 0.0570091 -0.00761822)
(10.0408 -0.00644152 -0.000992598)
(9.94623 0.00848717 0.00900991)
(10.0877 0.0302774 -0.0142233)
(10.3812 1.39536 -1.14898)
(10.0035 0.00984814 0.00691121)
(9.98891 0.0046531 0.00289737)
(3.0191 -0.623114 -5.87874)
(9.95987 -0.0103495 0.012732)
(9.98126 -0.0141497 0.00549205)
(9.96997 0.134897 -0.0106755)
(10.004 0.0111558 0.00704781)
(12.6261 1.50122 -1.05534)
(12.7427 1.22071 -0.84642)
(9.9609 -0.00531732 -0.00261124)
(9.8453 -0.155564 -0.0425294)
(9.9091 0.0488437 0.028254)
(11.8526 0.192373 1.20412)
(10.0503 0.0604578 0.000195286)
(12.7916 1.2741 -0.886734)
(9.99942 0.0057753 -0.00297318)
(-1.95597 -0.291122 1.06836)
(8.15018 -0.528905 -0.765018)
(9.11327 -0.876608 1.74537)
(10.0007 0.00537249 0.0196678)
(12.7158 1.23025 -0.83637)
(10.0652 -0.00315972 0.00391499)
(10.2661 0.139765 0.0365928)
(9.96794 0.00275827 -0.0117444)
(8.99061 0.244548 -0.148419)
(10.0528 -0.00465212 0.00243051)
(10.012 0.0321007 -0.00416487)
(5.74701 -1.49374 -1.03634)
(9.98297 0.00114412 0.000629086)
(9.91364 0.00415531 0.0031669)
(10.0268 0.00558405 0.0233563)
(12.487 1.67015 -0.946281)
(10.079 0.0371008 0.00154434)
(9.99107 -0.0160636 0.0103355)
(12.3419 1.56834 -0.96408)
(12.2983 1.10713 -0.472966)
(9.96055 -0.0129951 0.0122397)
(10.0664 -0.0104636 -0.00453007)
(-0.120022 1.73327 0.353443)
(10.0383 0.00589093 -0.00805197)
(10.8779 -0.426589 0.0755533)
(10.0179 -0.00340111 -0.00780004)
(10.03 0.00532005 0.018388)
(10.0537 -0.0279752 -0.00323137)
(11.9238 1.20806 -0.498406)
(11.7044 0.346333 1.38387)
(9.17391 0.741043 0.741008)
(9.54704 0.176914 -0.0127551)
(10.1032 -0.125324 0.0229149)
(10.0415 0.00489068 0.00359326)
(12.5325 -0.589947 -0.48465)
(9.30696 0.244208 -0.475504)
(9.69449 0.0728139 -0.19629)
(-0.0451161 1.63621 0.241787)
(9.98833 0.00395443 -0.00328881)
(10.0466 -0.00750864 -0.0132191)
(-0.204749 1.55053 0.333202)
(12.125 1.69969 -1.3551)
(9.90977 0.0926272 -0.0190359)
(0.00659606 1.72321 0.260573)
(0.0138985 1.74276 0.336384)
(10.0196 -0.00069185 -0.00247847)
(9.99761 0.0149034 0.0015857)
(10.0202 -0.00828048 -0.00421981)
(9.59777 -0.336726 -0.017848)
(9.99788 0.0024626 -0.006612)
(9.95332 -0.0156549 0.00357729)
(9.74257 -0.475111 -0.582957)
(10.0624 0.284276 -0.00313313)
(9.94145 0.00277825 0.00677573)
(10.0276 0.0195948 -0.0040145)
(12.5068 1.54679 -0.485158)
(11.8257 1.46582 -0.495838)
(9.96926 0.00953872 -0.000365975)
(10.5257 0.38779 -0.0345716)
(-2.97892 -1.95559 -0.0297309)
(-2.34713 -3.12171 1.58058)
(10.9532 0.445207 -0.129026)
(9.93129 -0.00747968 -0.00455117)
(10.3489 -0.240273 0.264975)
(11.0561 -0.0956306 -0.8151)
(9.86672 -0.0110658 0.000335419)
(9.86359 -0.0162476 0.0112457)
(10.0506 -0.0383702 -0.00343534)
(10.3265 0.152454 0.0161733)
(9.97937 -0.0128136 0.0069795)
(11.0555 0.356101 0.307378)
(10.0006 0.00328276 0.000606661)
(13.2056 0.824747 -0.800368)
(10.3507 1.57818 -1.24961)
(10.8163 0.432852 -0.0849916)
(13.2173 1.00548 -1.14186)
(10.0614 0.0377057 0.00531925)
(10.0052 -0.00583846 0.0104168)
(10.3414 0.805925 0.131507)
(10.1519 -0.092257 0.0310416)
(10.0199 -0.0059058 0.0114382)
(10.0039 0.00718573 -0.00292274)
(11.3039 0.296092 -0.631186)
(7.93122 -0.785806 -1.53671)
(10.0169 -0.00324957 -0.00668538)
(11.1162 0.12445 -0.0366292)
(9.973 0.401756 -0.0658952)
(10.8318 -5.20934 -2.73031)
(10.3805 -0.90534 0.848312)
(12.1083 0.0560004 0.897361)
(6.62264 0.0346115 0.223763)
(6.39184 0.0172178 0.0666964)
(10.053 0.00997585 0.00679896)
(10.1399 0.388425 -0.127389)
(4.29505 -0.0684565 -0.187161)
(9.95394 0.00944483 -0.00330869)
(10.014 -1.75951 -3.63227)
(8.07407 -0.370025 1.09215)
(9.98443 0.0017353 -0.00210043)
(9.9941 0.397433 0.205429)
(10.0273 0.0126924 -0.0126347)
(10.0374 0.00632712 0.0145945)
(10.0163 0.00239087 -0.000500668)
(13.397 0.671591 -0.316214)
(9.97603 0.00965206 -0.00410982)
(9.98476 0.0037461 -0.00162894)
(10.0608 -0.0407777 -0.0150364)
(9.79501 0.00401508 -0.00743833)
(10.0748 -0.0187983 0.021333)
(9.96268 0.00796971 -0.00908859)
(10.054 0.0242816 -7.55362e-05)
(9.81499 -0.0826002 0.0120436)
(10.9245 1.22451 0.685111)
(8.96242 -1.16324 -2.18272)
(12.0826 3.80516 2.06828)
(10.7726 0.614999 0.0171656)
(9.56414 1.50212 1.25466)
(9.97519 -0.00571339 0.00495356)
(9.25406 -1.00062 0.0567874)
(9.97237 0.0118178 -0.00120705)
(10.0005 0.00222604 -0.0110841)
(10.0028 0.00320343 -0.00885822)
(9.99975 0.000994622 -0.00782506)
(9.98403 0.0172561 -0.00640723)
(9.20129 0.456779 -0.927352)
(11.0398 0.817491 0.200886)
(9.98682 0.012657 -0.00581096)
(10.2305 -0.587416 0.0624963)
(11.112 1.67917 2.00671)
(9.96658 -0.00588192 -0.00102418)
(1.25797 0.722677 0.0826127)
(13.3052 -1.0262 -3.20007)
(9.94691 -0.0189053 0.00591549)
(9.31927 -0.549217 -0.00110303)
(10.483 0.0243297 0.0273842)
(10.0402 -0.00619274 -0.00559256)
(2.0264 1.2154 0.248238)
(9.98832 -0.0193965 1.14205e-05)
(4.71442 -1.1649 -0.537975)
(9.96875 -0.00798005 0.00263436)
(12.1077 0.0340968 1.08834)
(12.2618 0.437465 -0.117042)
(9.94732 -0.024064 0.00522427)
(9.89582 -0.00372998 -0.000783913)
(10.1991 0.643535 0.0440553)
(8.65724 -0.626532 -2.35915)
(9.9249 0.0135073 -0.00322554)
(10.0393 -0.0192421 0.000707004)
(10.4511 -0.014865 -0.0190179)
(12.7353 -0.0544614 0.440797)
(10.0008 0.00360647 0.00175947)
(12.5262 0.355804 0.141065)
(10.5904 -0.0114557 -0.0345226)
(-0.28042 0.12378 -0.986038)
(12.2174 0.357124 -0.00409728)
(10.5214 -0.0217283 -0.0267121)
(12.363 0.354465 0.0927827)
(10.0007 -0.00370023 -0.00346174)
(10.1392 -0.192721 0.0118371)
(10.5338 0.453545 0.0199161)
(10.5774 -0.0571942 -0.0345561)
(12.5268 0.438331 -0.0386492)
(9.99973 -0.0225049 0.000256364)
(10.0572 -0.24371 -0.0251052)
(12.3795 0.427855 -0.0618321)
(9.95425 -0.0285306 0.00391224)
(10.6111 -0.0514117 -0.0324108)
(9.98256 -0.0190589 -0.00552494)
(10.0583 -0.0189557 0.0165819)
(6.88255 0.424608 -5.20963)
(6.71029 -0.08576 -5.80481)
(9.67227 0.0794392 0.345461)
(8.84391 0.448349 -4.26455)
(9.99578 -0.0163242 -0.00511879)
(9.94551 -0.0201949 -0.00996467)
(10.8864 0.682053 -0.287956)
(10.6104 -0.17892 0.00104851)
(8.0961 0.0888543 1.48624)
(10.0126 -0.0127354 -0.00670194)
(10.1087 0.0777349 -0.0042773)
(9.99713 -0.00619626 -0.0022772)
(10.031 0.100866 0.0275045)
(5.28461 0.26702 -6.44884)
(3.91036 -1.7294 1.67495)
(9.98619 -0.00968834 -0.00221231)
(10.0176 0.0394256 -0.00635561)
(10.0515 -0.110513 0.00507069)
(9.85672 -0.0874441 0.00903591)
(10.3115 -0.184358 0.04748)
(9.96819 -0.0102046 -0.00318641)
(11.4111 0.0514965 -0.0578854)
(11.7062 -1.14496 0.83668)
(10.2077 0.0364877 0.0322037)
(10.0419 0.00258735 0.00438527)
(9.99686 -0.00675038 -0.00119699)
(10.0011 0.0898775 0.016636)
(9.69552 0.194016 0.0258655)
(10.0033 -0.00179176 -0.006954)
(10.8745 -0.127599 -0.0483799)
(9.95564 0.00606316 0.00434981)
(10.0198 0.0309442 -0.00508752)
(10.1218 0.102516 0.0268582)
(9.26383 -0.875713 -1.32194)
(5.15352 0.73752 -4.86433)
(10.0629 -0.101396 0.00882589)
(-0.132616 -1.73154 0.19446)
(9.77311 -2.37474 0.485679)
(13.3069 -1.19891 -1.25311)
(-0.135987 -1.69026 0.166228)
(10.5473 0.0491485 -0.0195047)
(6.25792 -0.319169 2.19583)
(10.6181 -0.513408 -2.68117)
(10.8523 -1.71887 0.327343)
(5.66265 0.337762 -3.86504)
(-0.12555 1.62563 0.561483)
(1.49553 0.63731 -3.65872)
(11.9324 -0.0997655 0.663038)
(10.8829 -0.00998776 -0.0559451)
(11.8103 0.154174 0.942783)
(9.92384 0.00469105 -0.00294347)
(3.713 -0.338813 -0.39191)
(10.8515 0.0820315 -0.361504)
(10.7823 -0.0156956 -0.0316842)
(9.96277 -0.068288 0.0631685)
(10.003 0.00894646 -0.0135304)
(11.9095 0.195261 1.1933)
(9.9224 0.159758 0.0184343)
(10.2381 -0.0470794 0.0193763)
(9.97895 0.0246999 0.00251311)
(-0.35891 1.01596 0.0855159)
(8.09237 0.341018 -2.57014)
(10.0154 -0.00817405 0.00811236)
(9.98463 -0.0047515 0.0044573)
(5.02529 0.322902 -2.49336)
(5.91302 0.177299 -3.15881)
(10.5005 -1.69862 -0.951081)
(-1.58468 -2.40192 -1.25651)
(5.72 0.15057 1.73607)
(4.0492 0.040937 -3.96792)
(3.76882 -0.0140166 -4.81976)
(10.0057 -0.00415328 0.00983316)
(9.8116 0.00393371 0.00114969)
(9.47104 -0.0275353 0.0194421)
(10.0229 -0.012121 -0.00422927)
(10.4155 0.0437217 -0.0103176)
(-0.217343 1.69962 0.332939)
(11.0001 -0.0140356 -0.275842)
(10.4703 0.0349314 -0.0101843)
(10.3343 0.0319863 -0.00406623)
(10.0515 -0.00426694 0.00698359)
(-0.203085 1.52512 0.72156)
(-0.3913 1.55184 0.699531)
(10.0627 0.0106982 -0.00930031)
(10.4115 -0.0023599 -0.0204385)
(9.93196 0.0359367 -0.00437493)
(10.0524 -0.0240232 -0.00479556)
(10.3594 0.0119656 -0.0055847)
(10.049 -0.0249097 -0.00986597)
(9.67323 -0.0137967 -0.0725119)
(10.0013 0.00336215 -0.0141722)
(9.97698 -0.0266194 -0.0021186)
(6.98517 -0.770554 -3.22683)
(10.0475 -0.00100721 0.00462497)
(10.0572 -0.00575029 -0.00213801)
(10.0099 0.00219786 -0.00582465)
(9.83863 0.00607531 -0.00760912)
(9.8587 0.00619977 0.00325485)
(4.25701 -0.62328 -2.53098)
(12.6835 -1.2448 -0.896228)
(10.0468 -0.00478975 0.000964278)
(10.8796 0.467729 -0.217366)
(10.0128 0.0295883 -0.00503129)
(9.67194 -0.325863 0.0951302)
(9.62524 -0.410337 0.147288)
(12.4353 -0.0420914 -0.0870278)
(9.83353 0.00464627 -0.00475701)
(-0.439212 -1.06437 0.832454)
(12.5313 -0.202373 -0.180969)
(10.5084 0.161752 -0.0188773)
(10.8599 0.441202 -0.0709681)
(8.08816 0.375859 -3.50956)
(10.2313 3.14127 1.67529)
(9.99255 0.00873675 0.00616912)
(9.98797 0.00974446 -0.000276321)
(11.3992 1.72466 2.13673)
(10.0086 -0.105873 -0.0103396)
(9.9991 0.0339217 0.00535883)
(10.7549 0.798972 0.333994)
(9.9705 0.00592 -5.41712e-05)
(9.98344 -0.00256699 0.00186966)
(-2.61108 0.818168 1.23859)
(12.5281 0.921743 -0.324704)
(10.1357 3.62427 -0.530634)
(10.0021 0.000801096 0.00508454)
(7.71463 0.638484 -2.7235)
(10.0109 0.0031037 0.0129335)
(12.1219 0.30596 -0.274903)
(9.47765 -0.387133 0.23269)
(12.5205 -0.0847739 -0.101898)
(9.93632 0.00283374 -0.00157376)
(9.28563 -0.415448 0.188254)
(-0.99424 -0.656427 0.621495)
(11.3667 1.84935 2.62494)
(12.6434 -0.468275 -0.95508)
(-1.05762 0.947631 0.499858)
(12.5101 0.334278 0.136624)
(10.7304 0.173288 -0.00245598)
(9.95934 0.00953621 0.00537237)
(12.2567 -0.445843 -0.279187)
(10.0039 0.00151398 0.00568991)
(12.6983 -0.095615 -0.102998)
(-0.0420836 -1.41949 0.544361)
(10.0035 0.00242831 0.00488806)
(12.8584 0.147435 -1.44396)
(9.9084 -0.00684457 -0.00501504)
(9.90578 -0.0198943 -0.00176493)
(11.012 -1.19862 -0.763367)
(9.95482 -0.0186145 -0.0124723)
(10.3857 0.133606 -0.0161763)
(7.97421 -5.74795 -0.0675531)
(9.51026 0.454714 0.0216329)
(10.0256 -0.24267 -0.0218188)
(12.8852 -0.573113 -0.151251)
(10.7422 1.64712 0.890468)
(10.0642 -0.0342272 0.0069506)
(11.6958 -2.70964 -1.16388)
(5.25588 -0.902401 -0.234624)
(10.795 0.0461452 -0.0120114)
(9.61826 -0.729295 -0.919403)
(10.0897 0.159676 0.041704)
(10.7089 0.263167 0.000930893)
(10.0115 -0.0195435 -0.0151138)
(10.0649 -0.0268944 0.0100212)
(-1.37429 1.15181 0.317017)
(0.677689 -4.28014 1.92236)
(11.9741 -0.897171 0.28481)
(9.99881 -1.14909 -0.9008)
(12.409 -0.528257 -0.492194)
(0.821299 4.8166 0.533744)
(-1.59896 -0.177951 -1.19807)
(9.05811 -3.59751 4.1841)
(10.0739 -0.0205449 0.0183395)
(10.0023 0.0124267 -0.0100197)
(9.98854 0.0137691 -0.00436156)
(9.87762 -0.0248056 0.00348)
(0.300396 1.33572 0.75972)
(9.59589 -0.535434 0.162289)
(8.93108 -0.646739 0.996806)
(9.98688 0.0211315 -0.00997213)
(-0.208297 -1.42065 0.0504892)
(12.6101 -0.0677107 -0.17779)
(10.937 -0.13128 -0.240843)
(10.2288 0.0421221 0.0072332)
(10.0355 -0.0176007 -0.0140323)
(10.2384 0.0432756 0.0156161)
(6.20809 -1.87368 -3.32848)
(10.0048 -0.00297353 -0.00688568)
(2.78561 3.52361 -1.33053)
(10.0203 0.00518481 0.00147592)
(10.347 -0.64881 -3.16059)
(9.9882 -0.00376011 -0.00293165)
(9.99895 -0.00627109 -0.00614342)
(10.0093 -0.0102681 -0.00725533)
(10.0139 -0.00958782 -0.01052)
(9.98811 -0.0115295 0.00327471)
(12.5305 1.66763 0.658022)
(11.4926 0.362948 0.68724)
(8.87412 1.48335 2.31308)
(6.87636 4.01566 2.28344)
(9.30261 1.23115 0.39613)
(10.4316 0.588935 -0.101018)
(11.1303 1.34737 -0.0163799)
(6.63939 -0.453725 -2.99292)
(10.7835 -0.146694 0.00683617)
(12.1376 -0.475653 0.0948597)
(10.8598 -0.720071 -0.072567)
(12.4114 0.0858472 -0.0660305)
(8.38362 -0.250547 4.38071)
(6.17459 -1.15345 2.37106)
(10.8093 -0.410423 0.174605)
(9.99928 -0.00928605 0.00485265)
(9.55938 0.97618 -0.372268)
(10.0044 -0.00590138 0.00997988)
(10.3284 -0.0237252 -0.00835911)
(12.5258 -2.41932 3.16443)
(12.5619 -0.381244 0.665682)
(-0.763141 3.54135 -0.479896)
(10.1062 -0.973978 0.18398)
(11.9476 -1.01804 -0.66474)
(10.5476 -1.06453 -1.21886)
(10.1108 -0.423019 0.905591)
(10.3725 -0.0535514 -2.69475e-05)
(-3.50426 -2.28798 0.817547)
(10.1704 -0.0141668 0.00827385)
(10.2515 -0.0198496 0.00115575)
(11.2443 -0.181216 1.43179)
(9.78554 -0.132947 4.61467)
(10.4089 -0.0571652 0.0049165)
(10.3058 0.577239 -0.450018)
(9.9687 0.000977906 -0.00124111)
(10.4855 -1.46447 0.554347)
(11.5403 -0.145557 1.49445)
(9.94982 -0.0297155 0.00591635)
(11.1687 -0.444719 -3.15181)
(9.48607 2.10991 -1.80948)
(11.7751 0.462858 1.27637)
(11.1139 0.240593 -0.206608)
(9.48147 0.108271 0.255678)
(3.10344 0.958152 -3.85179)
(0.21707 3.32136 2.75051)
(5.20907 3.18704 0.607184)
(13.3269 -0.863895 -3.03867)
(3.90796 -0.7918 -0.418728)
(9.74383 -0.00771835 0.00824711)
(9.88982 -0.0426331 -0.00459778)
(8.21747 1.72571 2.61457)
(9.9398 -0.00350495 0.00247301)
(4.52898 -0.835246 -0.314085)
(9.80633 -0.0112277 0.0019438)
(9.77279 -0.0107622 0.00184977)
(-0.112097 -2.0768 1.0818)
(9.47257 -1.33206 0.809885)
(10.8962 -0.676847 0.0836936)
(9.9707 -0.000376618 0.00399312)
(10.0014 0.0188235 0.000155476)
(8.33778 0.422536 -2.89191)