/*--------------------------------*- C++ -*----------------------------------*\
| =========                 |                                                 |
| \\      /  F ield         | OpenFOAM: The Open Source CFD Toolbox           |
|  \\    /   O peration     | Version:  2506                                  |
|   \\  /    A nd           | Website:  www.openfoam.com                      |
|    \\/     M anipulation  |                                                 |
\*---------------------------------------------------------------------------*/
FoamFile
{
    version     2.0;
    format      ascii;
    arch        "LSB;label=32;scalar=64";
    class       volScalarField;
    location    "0.0321319";
    object      omega;
}
// * * * * * * * * * * * * * * * * * * * * * * * * * * * * * * * * * * * * * //

dimensions      [0 0 -1 0 0 0 0];

internalField   nonuniform List<scalar> 
3919
(
70.5077
72.1021
103.802
141.436
78.2802
67.4186
107.798
64.2838
46.3191
77.028
69.8443
56.3423
64.4531
53.081
68.1332
97.8952
49.1654
50.0848
56.4062
62.5111
50.8399
81.1923
46.9677
50.2023
46.701
75.7103
46.7902
50.2621
107.517
88.5592
68.4818
52.9096
46.8776
59.5109
47.7821
48.1651
149.478
69.0848
49.1094
74.0932
67.3132
52.241
48.9404
74.1044
167.103
117.652
181.874
84.0179
55.6437
46.6695
46.2904
75.8356
45.8684
66.2533
92.0418
46.2633
123.653
128.53
47.3059
61.1548
127.133
80.3553
107.622
90.9796
56.2101
66.2104
47.4192
90.2238
59.1067
46.4258
48.9687
87.7458
119.958
106.586
125.265
91.6759
47.7232
46.3117
52.3037
71.74
76.1991
46.6095
47.7496
51.6883
49.5298
51.9095
57.9117
81.3506
87.641
79.5218
93.4253
134.216
133.889
45.9544
84.8888
85.0984
82.8405
65.6312
91.7609
48.8633
47.7782
73.4818
106.213
48.8621
147.372
47.6878
96.5729
80.671
76.9841
78.2143
90.9322
68.9059
70.1902
49.6327
50.241
50.8098
51.6435
55.0422
78.0456
81.12
64.5272
67.1747
46.3575
110.948
47.2244
51.7927
46.5782
67.9988
113.672
60.0889
48.4858
75.5382
130.679
46.4294
54.4706
58.9843
72.9507
61.8304
69.0691
79.8684
58.0912
46.1732
72.3301
45.9915
50.5637
61.9976
153.203
47.3919
48.3716
58.1053
70.7751
47.2475
53.5304
53.421
50.6659
46.9935
46.9061
73.2351
46.3817
71.595
52.3728
92.4873
132.77
51.3211
93.7765
124.62
128.553
77.8855
65.75
46.2326
174.72
57.8384
50.0015
47.427
120.817
64.9456
82.3841
51.1413
82.6142
87.5186
192.809
90.1556
46.8701
70.878
86.3322
71.309
88.679
53.9657
75.2732
79.9016
64.372
66.5559
116.406
58.8102
80.6696
47.1177
98.4
48.2196
93.326
141.06
47.1484
79.1916
49.3355
70.9215
90.7139
47.2204
45.7603
121.001
69.9372
85.6219
121.529
48.5113
46.8532
46.1473
92.4112
46.4274
46.2597
72.7535
73.8657
50.2433
46.6418
60.3995
70.7817
69.2906
46.1281
48.8493
81.153
74.1646
85.6822
66.0733
124.36
54.1554
130.722
73.4744
70.897
67.423
54.2421
53.1913
72.6782
69.2373
193.572
94.6733
87.2888
186.904
190.545
72.0286
97.9017
126.716
164.563
97.3148
105.637
186.986
126.379
109.567
109.37
115.973
94.7576
74.1449
80.9062
110.319
66.7343
83.5035
126.646
124.828
86.5603
152.953
87.4534
183.426
78.3947
82.2413
56.7275
112.112
110.58
147.117
77.5185
77.529
46.3005
155.125
80.5338
90.4639
89.1705
60.63
123.527
55.8515
104.81
55.9496
46.6572
106.307
82.5915
186.239
46.2175
72.7669
72.353
47.8057
82.9748
156.677
53.3612
65.5585
49.905
174.731
71.1404
73.1124
67.6906
72.5374
48.4232
81.9373
158.705
101.961
52.2727
71.727
91.4601
92.6136
68.3045
117.406
86.1631
65.1564
84.5697
171.779
53.4563
68.4728
78.3897
48.0829
77.966
72.2635
70.7883
82.6463
59.2897
63.8632
90.6932
50.5783
60.1382
46.6708
50.0981
84.6395
49.8305
47.7327
184.759
91.9925
80.3865
65.1198
91.3692
86.3174
68.0891
128.121
68.4435
47.1041
93.9471
97.7916
58.4903
64.8946
141.954
64.3093
46.6898
62.2754
75.1539
88.8016
76.8654
105.17
93.9427
46.8307
47.7202
61.8524
67.4452
55.0468
46.3595
47.4511
45.7763
94.5682
50.6925
46.2214
54.9202
82.308
46.1281
70.1124
96.4574
79.3919
49.4294
48.7966
51.3638
80.3863
91.099
158.473
92.6349
88.1416
97.527
54.9216
104.108
85.0849
67.3321
91.7472
77.5533
115.473
68.9875
189.442
92.1327
89.5196
166.522
125.999
168.513
46.903
56.3717
87.9519
104.16
46.1894
70.9402
69.3488
60.8265
107.385
104.535
130.325
86.4715
68.2065
80.5943
64.1934
129.39
81.8717
100.958
92.2482
130.954
49.0238
66.5401
127.896
51.2419
129.196
125.355
78.4362
46.9099
49.5444
85.9423
79.5896
55.0635
72.4821
60.9544
76.247
59.732
118.847
95.4616
115.002
90.4075
207.289
203.866
103.096
117.538
108.99
127.234
94.5293
94.7588
98.0709
68.5256
83.4283
66.1338
111.666
74.205
64.7303
154.669
126.018
49.5735
87.5615
85.1046
81.6871
98.3734
169.653
171.088
101.4
129.32
110.979
47.8786
59.6866
48.6426
49.8076
49.2525
52.3056
95.151
151.07
69.5749
92.0411
103.131
148.938
136.322
49.755
102.946
59.6382
90.3489
46.9577
88.2968
89.3104
72.281
81.1907
95.4945
91.4095
46.4834
59.893
90.0337
130.795
81.5035
77.2116
63.6388
127.785
60.8957
93.0123
67.8151
74.6375
59.5985
150.481
66.7433
71.5246
73.2181
94.0952
134.75
75.1645
82.1099
86.1836
79.868
68.1377
61.3577
54.5605
120.055
59.6776
71.2803
131.512
63.3746
90.612
74.2914
49.9963
76.1858
57.4089
72.3138
92.2821
98.2881
82.0387
140.67
114.254
112.869
49.5877
47.4065
58.0302
94.7608
77.0747
231.674
118.024
235.671
95.8852
115.559
71.1912
53.1691
91.4575
72.8956
80.7702
86.3464
56.9533
118.354
56.7949
78.2335
114.788
119.433
184.163
131.467
118.682
125.606
109.722
108.479
73.451
48.0702
48.5668
90.7224
62.3495
47.5737
91.9191
148.808
95.0647
47.0714
53.8513
76.4897
70.705
177.83
83.6967
86.5021
79.3697
58.892
71.3367
45.4741
46.5833
103.267
68.8076
94.4228
56.7791
81.7956
58.7883
93.3115
73.1954
86.9
75.9975
102.21
106.179
106.401
101.682
103.022
100.334
100.747
51.567
62.9498
82.6591
48.1535
51.6736
46.4609
57.1369
50.0324
103.393
76.3282
75.3408
50.8275
90.3061
48.1459
68.598
48.7131
83.1434
73.5067
58.0033
46.8711
47.5714
97.9645
74.1747
93.1036
63.2034
73.1181
57.2932
51.7395
46.4563
77.9306
142.841
47.8988
59.3334
88.5551
65.2062
58.7349
85.7937
131.897
115.256
96.9143
170.513
46.3657
69.2091
70.3823
49.9462
46.25
193.155
58.8747
79.869
69.1856
45.7169
46.36
55.4662
109.244
47.1909
53.5861
47.7437
46.4401
49.132
46.2399
95.3556
76.2006
109.969
48.5506
56.7951
97.452
50.2478
74.5288
92.8277
67.8677
84.399
46.2915
62.9691
49.2035
45.899
51.1558
46.0517
61.2016
49.8396
47.9273
65.6994
113.793
53.9071
103.713
59.0792
47.4059
80.4263
96.0264
73.2508
51.2733
48.5484
99.7467
50.1218
47.0026
82.5483
147.994
65.7947
45.6222
47.2312
75.4735
100.034
92.9377
46.4863
51.9656
46.9857
100.307
128.037
107.263
96.4916
84.7242
96.9063
111.408
70.1004
51.8078
71.1862
60.8248
47.4014
109.935
48.9441
47.3473
50.8541
48.719
48.2672
76.1529
48.1214
46.4464
80.8707
73.125
88.7364
83.0774
140.282
89.9752
78.5584
149.155
72.2878
45.9968
48.0556
46.5519
86.4502
55.4061
104.494
71.8581
84.0113
82.0873
68.9333
55.643
60.2618
52.7384
106.607
56.9203
57.1661
48.3788
103.666
52.34
45.9653
57.8341
59.6983
112.393
46.6962
67.1845
54.6077
128.299
46.1227
89.6134
123.077
70.1617
145.15
48.166
65.6
76.6368
102.563
63.3741
49.9373
51.4431
50.9701
102.341
46.9839
85.075
51.6103
75.3923
65.1014
53.4292
69.2556
59.7989
95.9719
60.9053
82.5645
89.2622
46.8668
83.9355
177.467
92.3256
78.4102
49.135
62.7341
49.702
49.7245
46.5693
60.291
75.4269
61.0927
94.7317
49.523
45.6612
57.2068
47.0528
92.2432
53.7023
87.8666
88.55
50.9037
63.0214
49.8224
90.6409
81.811
59.2713
46.5526
114.9
46.2538
104.545
56.3381
61.4431
53.6455
69.0537
92.1192
48.0743
47.7495
93.6408
55.2284
48.6362
49.6012
53.9919
46.9459
107.163
47.9002
70.691
51.4218
101.316
46.1558
62.341
79.2989
48.0939
51.3105
51.6939
87.654
131.527
52.7422
66.4956
45.7271
46.5967
151.282
65.4483
46.2494
64.5989
50.0562
48.8315
88.0942
87.3368
125.089
71.9341
59.9051
59.1491
123.978
54.0066
101.627
69.1552
60.6503
66.1531
78.8029
94.5072
85.8568
49.712
47.0158
47.6637
46.2999
50.059
47.0016
46.3856
59.4544
47.3918
77.7729
85.2562
131.824
75.0066
47.6662
101.083
50.9932
46.6013
51.8934
76.5695
85.8861
77.2309
49.8754
46.9672
47.093
94.8405
56.3876
83.0937
106.314
60.7955
50.2037
81.5912
136.058
90.357
70.8249
86.8848
46.7421
51.9202
86.3242
67.7812
46.5514
82.404
51.3807
48.9886
79.6255
86.4904
104.564
50.2712
62.8132
49.4652
48.7776
127.925
69.7757
88.0198
121.663
52.4114
88.2018
45.4917
81.8019
48.7254
95.7503
46.8762
81.0408
80.0708
71.6697
46.6031
46.5087
46.1788
46.3024
46.7645
47
73.4819
88.2708
48.6444
47.6313
76.5706
158.956
88.7701
174.555
46.2674
52.206
94.1878
56.0266
48.9048
180.403
48.328
51.2495
50.0926
46.9966
86.4735
69.4542
80.5924
76.7083
101.077
82.2209
48.7163
47.1745
46.5642
65.6225
54.6946
51.9021
51.7713
118.919
91.6489
61.0174
46.3034
45.8445
62.4453
46.3574
46.5468
59.2989
86.9955
63.4446
63.8752
47.7011
49.8185
93.94
90.0065
113.196
129.288
50.5882
97.1431
71.783
101.913
53.1551
48.5838
59.4076
49.7035
66.5991
52.4008
50.3688
58.4916
47.6473
57.1452
65.6224
81.4728
55.5513
46.333
47.2734
49.8532
63.7004
46.5202
68.0024
69.7175
81.3042
60.7012
91.0917
47.21
48.4298
48.1091
49.2014
48.2425
47.2011
50.1833
49.8601
47.5097
48.4268
49.3267
47.399
95.8466
84.2677
67.3663
71.601
93.6986
46.9181
49.3941
98.9453
49.7825
65.4706
96.6511
77.5827
65.192
68.9997
47.047
64.2512
48.2832
47.1073
102.046
55.1931
99.2522
72.9221
60.4135
46.2805
68.4328
48.4224
85.7117
69.2166
52.4466
46.2564
84.0044
46.3119
45.9558
85.3969
48.3898
49.8756
55.4781
73.0909
46.9786
68.0812
93.7214
49.4581
84.8024
104.33
103.329
67.6991
48.8152
51.3912
55.0865
46.9222
49.0322
91.3357
92.3331
66.5593
66.9706
67.8654
81.2205
104.464
69.5632
46.385
55.9814
57.1986
67.6641
47.0144
66.155
87.4768
52.0966
91.4133
60.9513
81.187
66.4922
71.941
102.051
65.4771
72.26
69.1827
58.5061
60.7546
56.7933
49.3341
53.5378
129.627
65.2943
48.9376
46.9235
49.5758
47.4772
54.7507
54.9028
79.3344
71.0742
47.079
48.0437
144.251
64.3925
48.6078
68.6446
59.5555
56.2497
46.3674
52.1146
136.974
98.8355
84.3099
48.6624
48.6821
66.9573
49.9605
46.2561
74.7597
54.7673
66.1244
49.2371
91.9537
47.3013
47.3077
87.0743
85.8066
46.313
70.6958
51.08
78.8189
48.5836
170.876
49.8534
54.7085
49.0149
49.4239
93.5847
59.8251
47.7153
46.3231
46.9568
46.012
49.4739
73.8808
86.198
60.7793
99.6003
46.9325
47.452
124.357
73.9947
48.6477
46.0441
50.0223
51.5435
52.0281
50.0595
73.427
46.3266
60.0044
46.9566
48.8754
61.5051
87.3063
67.8188
48.2215
69.4577
46.2778
62.527
68.266
46.2755
47.5208
71.9505
93.753
60.1307
47.7596
48.2302
162.498
46.6273
46.5019
64.828
180.525
60.4863
73.3831
52.5797
46.112
46.9227
71.8517
46.5895
47.1601
47.2607
52.4646
77.6405
46.3166
72.4402
80.207
67.6422
46.5114
46.752
46.0736
59.1032
62.8575
49.0391
57.1011
99.7291
126.117
52.4828
46.4996
63.902
88.3149
46.7503
46.6586
47.9232
49.1495
46.2883
49.6205
46.0355
56.961
80.2222
73.0625
50.403
48.6847
46.9364
47.4031
48.0776
46.557
48.6223
46.053
89.2017
47.5149
46.0349
102.091
75.5916
90.8943
51.0579
107.498
51.5845
78.9992
61.1077
91.0181
95.6937
51.0451
63.8266
59.3169
186.038
46.6887
47.6927
47.8433
46.5416
48.1828
50.657
47.4934
47.5389
47.2625
92.8739
100.337
115.06
45.6211
61.6547
91.9091
47.9085
67.6317
48.9063
46.3337
47.1633
46.4992
45.9044
189.896
60.6188
54.3752
46.5342
47.4375
73.6606
48.2632
80.5123
87.2995
45.9625
51.0644
94.0211
70.8601
47.9686
47.5038
45.843
51.4959
48.7002
46.1495
105.468
107.329
47.1324
46.8658
77.3854
83.6285
75.6988
48.5827
47.8057
71.4445
53.6255
57.2658
48.8462
49.0171
72.1182
66.3519
46.7739
47.181
57.328
75.3855
107.135
49.2937
86.3363
62.3187
85.3269
57.5546
48.0764
53.5932
60.7675
106.967
46.9033
101.077
47.0597
47.9661
47.9837
109.514
68.0376
84.2511
48.4392
48.0989
48.6177
47.4091
48.1743
48.2876
69.6219
47.9279
48.7161
47.7404
47.5788
49.0511
46.8163
76.0838
76.0611
159.885
49.4652
49.3468
91.7507
49.7562
76.6664
81.5907
107.661
70.5024
59.0278
48.4697
52.6371
60.713
46.3304
50.5429
49.7764
46.9767
100.43
71.4922
75.745
65.7971
49.9543
51.4156
50.4722
48.2432
50.7223
47.4878
48.1371
49.7528
65.7346
49.5717
51.3192
47.6661
70.9024
53.6218
54.3741
46.7389
83.065
49.255
49.1561
50.9441
47.0297
87.3629
46.3625
49.736
53.3609
46.4642
46.7563
49.8419
46.3722
83.0873
102.911
54.3327
46.1516
51.1674
47.2968
49.7997
48.1649
46.5793
45.6858
47.3942
48.8424
46.9899
105.115
77.0865
53.6449
46.1285
48.7586
46.6702
83.1941
49.1536
90.2509
111.483
46.068
45.4776
45.9517
45.746
46.8901
80.2569
47.1437
55.3189
78.9129
77.6446
54.5622
49.8051
47.0863
64.9121
47.5549
95.4725
107.041
116.482
46.2677
49.4571
62.2607
71.7656
68.6642
53.0431
68.2054
66.2211
46.5042
100.156
77.7714
115.876
107.139
87.2538
46.5404
83.6327
197.444
70.7687
49.7198
69.172
83.9991
91.1566
62.1722
49.608
46.6101
47.0903
113.891
65.7849
53.2822
47.5127
46.2117
91.9074
48.527
80.4227
83.3659
72.0684
113.258
51.0147
64.5274
47.325
101.998
90.006
65.6164
47.2256
80.5782
46.425
70.9484
64.4727
74.1588
52.342
49.728
76.6162
95.2897
106.716
99.7737
47.2029
71.3035
100.086
102.905
72.2695
70.4329
50.4187
74.6933
46.2933
47.2497
61.6831
46.3127
46.139
46.5854
74.5986
46.4786
52.3665
74.9005
65.1289
52.0914
60.3238
88.9847
73.5254
115.348
46.3153
46.7962
47.1312
46.7849
47.2357
46.7656
89.505
191.343
46.506
49.1003
50.4575
96.0894
46.5449
47.3828
80.7047
47.9289
63.4308
56.3039
48.935
49.9041
75.0225
47.2164
50.1562
47.1805
58.3566
53.1621
47.675
47.1283
58.828
91.1735
47.0331
50.7504
156.744
61.2119
46.3363
140.405
96.7922
49.5559
74.7543
55.4263
138.223
71.1084
48.2211
46.9176
48.8498
47.5055
107.315
53.5382
47.3038
72.625
49.2476
70.9354
62.722
51.6236
47.1966
83.5796
112.28
87.4794
46.7173
60.0706
75.433
71.1515
47.1907
46.2055
49.1664
46.1976
92.9517
62.8122
108.732
112.824
47.1591
46.0385
46.4925
46.0741
49.371
72.8231
50.8979
131.577
54.2255
125.195
47.1929
46.457
47.8361
46.4261
93.0239
67.1591
46.8697
50.1899
47.1023
47.506
110.293
103.753
87.1142
50.0853
47.594
52.1768
90.4059
47.2914
46.8211
46.7044
93.3717
64.2012
50.9763
50.6118
49.6776
49.7083
47.3397
49.5619
112.803
103.525
63.3062
101.531
68.0833
74.7098
89.4573
72.0747
71.1752
46.2257
99.7926
49.4379
46.0743
98.6613
101.28
102.699
52.704
51.8348
112.18
97.2329
113.272
98.8575
87.2583
47.2631
98.7838
95.7418
68.9364
48.4779
102.144
98.3684
106.995
49.6298
47.6075
78.9805
79.2195
46.5515
47.5639
45.9113
46.4986
59.6059
47.1295
46.2875
79.0582
88.8538
69.1731
65.868
59.3403
79.9112
93.8688
62.2043
69.4181
139.714
81.9158
83.5015
56.0439
75.962
71.5447
71.2265
144.113
62.4324
143.66
108.103
85.5869
117.397
90.0992
78.9074
85.195
85.9667
86.5945
80.4652
58.3085
94.7181
96.1306
66.5431
77.905
84.416
73.4822
116.179
65.1847
127.253
97.711
61.9334
106.591
53.4414
92.3728
78.9173
61.4137
59.5931
95.4749
93.6626
66.0211
51.8958
96.6508
78.6586
69.3506
102.68
96.0951
109.383
123.514
118.473
56.2165
96.8844
53.1622
126.473
65.754
98.8735
91.586
91.6553
124.493
85.214
77.225
99.7133
126.375
61.1146
56.0986
55.0957
67.059
101.564
93.0985
67.0165
91.5145
47.0925
46.158
52.8334
95.0417
51.0327
73.0816
59.776
69.8402
50.175
207.752
94.8015
93.2227
61.2041
102.355
69.9624
99.9996
48.7199
59.3958
119.915
46.1291
46.1536
46.3252
45.6528
45.8246
48.0737
45.7011
49.0261
48.0046
48.3556
45.9783
61.8366
67.4491
89.1135
46.3263
47.4978
51.4085
50.1801
94.557
99.724
100.826
62.6228
53.5434
67.1719
68.9347
45.6621
47.0425
47.9559
87.217
48.5017
79.1492
71.9509
83.054
112.161
46.2874
59.0704
57.8925
47.3499
62.8472
46.4395
48.4141
46.6889
47.183
47.8185
64.0759
69.5884
46.7444
46.7858
63.8861
63.5376
58.1572
46.7672
48.0156
46.8405
46.5652
47.5151
46.3705
46.9243
46.4817
48.6813
65.4791
46.7625
64.4731
48.646
55.4395
46.4775
52.7066
66.6574
46.513
46.7905
46.6294
46.3346
51.2812
73.8819
46.3079
46.6128
48.6552
48.0135
53.9408
85.5145
50.3864
52.1473
53.6214
58.4454
84.1112
82.6686
68.6347
91.982
92.0527
102.525
46.8264
104.12
86.0111
81.2138
115.537
48.8566
47.7006
113.721
49.2883
118.565
66.8028
98.4823
52.4356
80.3369
95.8627
49.62
81.6031
102.496
75.6076
98.9026
58.8718
49.5244
51.822
74.5634
46.8586
76.1175
47.5402
79.1514
47.1589
99.4112
68.273
73.5164
73.7172
46.8662
91.4171
87.201
103.452
88.4892
46.6948
50.6307
45.934
87.5223
70.9092
73.5737
45.7177
102.034
48.5979
46.5387
61.7436
102.466
47.062
61.0273
46.1507
110.123
49.1557
49.3223
46.6549
66.0002
46.9879
96.138
103.779
92.6394
66.9731
104.364
141.63
46.3798
45.9553
61.4253
60.5651
50.1062
63.3613
79.3819
100.055
118.847
57.8523
46.2743
98.8195
91.1787
46.2899
46.5566
95.5018
86.0951
46.7265
46.6321
48.2056
48.0608
77.9309
48.7198
46.5999
47.4713
48.7142
46.709
60.1009
65.0065
46.2938
47.0136
46.8107
46.2051
64.8205
63.2781
100.43
101.554
55.4913
103.55
55.244
72.7222
102.823
46.7398
113.063
49.2582
90.1447
52.2486
60.4531
46.9191
98.6432
96.813
49.1351
90.2153
144.683
101.801
49.2237
111.26
76.3273
63.3728
135.114
119.393
179.492
132.153
80.1054
45.9939
63.7573
164.074
168.415
161.515
167.118
84.8606
46.7225
103.185
77.6271
102.002
84.174
72.5228
49.4195
55.1292
87.7929
82.9469
176.285
48.1153
46.9964
86.0128
81.2411
87.6844
59.2503
70.0023
69.1377
88.5601
69.9621
47.3467
47.1282
50.0975
86.7633
57.7975
53.8643
95.7724
46.5976
70.707
103.166
87.7081
46.8643
91.3792
78.7904
79.4311
47.2279
51.1269
72.5131
86.573
87.3959
46.3359
65.1454
51.5732
47.6443
81.9776
48.3008
142.199
102.711
50.7957
101.527
65.9186
101.917
67.9269
68.5164
48.2868
46.9371
69.674
68.3838
68.2332
47.4662
123.905
95.2208
80.8735
77.3444
49.5523
97.0639
52.9952
46.6889
67.7913
70.0186
61.956
47.0232
69.7692
56.6388
74.1838
46.4228
51.9639
51.4309
81.4812
133.722
94.9315
74.7221
117.915
79.5399
90.5295
93.755
69.9407
60.9203
102.914
48.2353
46.7284
150.479
90.0417
169.125
48.218
47.0583
49.6883
49.9482
50.0891
47.3777
79.7474
52.8316
55.2734
79.0171
94.9023
101.626
79.4412
56.7027
48.7424
64.4763
63.3605
46.7609
84.6343
47.4456
51.006
51.0506
46.1477
46.5814
163.917
92.5582
106.816
141.141
178.992
52.8708
75.5484
155.89
48.9053
47.509
51.7271
56.2477
47.8833
48.093
50.9988
96.1874
65.1901
127.338
46.3307
47.1081
49.674
49.9112
45.8706
46.4088
46.8569
195.645
73.8686
124.663
48.3482
82.9654
188.891
99.5384
118.592
117.999
66.8655
114.415
118.808
49.3926
50.4885
53.6981
113.263
50.2502
46.8542
46.9783
46.5708
45.8172
47.737
46.053
104.521
84.8916
70.6902
103.9
52.0015
80.401
68.7535
153.62
73.3609
46.8295
47.1377
88.6711
70.9426
71.2334
46.4505
103.844
48.984
71.6215
66.3183
50.6941
158.781
84.9457
46.3099
66.2903
49.3836
84.4044
87.8534
88.7935
65.897
52.7327
46.9329
83.5634
81.6211
84.9208
45.8123
95.5814
53.7881
47.6544
63.0203
60.8723
81.5825
53.9872
48.5396
104.799
66.8622
49.59
53.3195
50.6815
110.782
81.5836
47.4053
47.2234
52.7829
63.3135
62.6695
46.1389
47.8817
123.069
72.2011
98.4937
47.7561
67.6704
74.0086
47.3723
129.963
48.0628
48.3876
46.9869
50.9762
48.9518
46.908
63.525
120.983
108.125
83.5575
47.8513
46.0358
46.9787
51.3442
58.7027
46.7985
147.188
46.9942
118.481
67.112
83.7515
54.5121
58.161
50.0277
57.8448
57.3678
75.7175
62.9486
45.6021
123.259
150.477
95.8945
46.479
47.2879
52.8219
46.7658
50.6316
46.9673
48.3884
97.6075
55.9374
46.7341
59.1567
48.9384
53.1074
74.9818
88.385
48.537
46.3657
72.5419
48.6038
47.9155
47.9409
48.1716
47.5323
58.5985
49.618
106.069
77.8772
76.1997
65.886
46.6683
46.8976
47.2858
46.9606
73.212
142.857
47.3331
118.108
53.5536
53.4527
84.4962
134.011
84.0125
66.6513
48.0964
46.5165
82.9797
51.3262
55.8158
50.1111
89.8383
72.7458
112.052
50.192
46.7739
133.382
62.5194
46.2434
53.7599
77.885
47.1037
46.499
46.1872
57.3232
51.0596
46.45
50.5613
62.9353
51.0238
73.8467
143.26
145.684
47.261
105.578
53.7523
88.3667
49.0386
45.9911
52.7746
51.1783
46.2975
46.8975
52.7206
62.6708
49.1846
91.5008
69.5955
47.4596
60.5423
46.2769
46.1363
84.1861
46.5425
117.057
46.959
47.0722
60.187
84.8759
45.8962
46.0201
50.5053
50.1112
49.6286
87.6937
116.453
46.5501
102.812
47.0244
88.3545
53.8587
50.4593
62.0272
47.0714
48.0438
46.9381
51.5482
46.1087
97.7633
84.3227
53.9254
75.5231
46.9218
84.154
47.7787
45.9599
49.3842
46.5868
63.995
49.3819
48.4807
46.984
46.6108
53.1954
88.4769
102.16
45.9615
50.2241
47.7079
56.0737
101.448
48.678
46.1279
54.6557
49.8306
46.8846
46.3632
85.283
46.7642
53.0478
53.1977
100.835
82.3472
102.136
47.5858
84.7518
49.9049
88.0657
91.3483
115.335
90.5959
94.0339
71.1387
76.1538
50.593
46.6061
54.1485
89.1775
67.9922
68.3041
83.6513
46.4711
87.5228
85.8949
75.9427
79.1765
122.961
86.9949
47.1358
48.1114
47.1517
47.6254
52.226
46.8942
47.8935
99.4272
101.388
108.8
48.1721
87.2928
118.418
94.2222
104.025
74.581
90.6368
46.5594
47.717
47.386
46.9194
50.1746
47.5895
60.2208
46.2355
78.2242
47.5011
162.137
164.883
63.9077
127.938
94.6794
77.4559
51.6945
47.3994
59.0017
146.385
86.8515
52.5721
88.9222
67.9374
66.8825
86.3909
89.924
93.5345
92.3489
65.2345
50.6756
74.5136
88.7826
87.4379
95.9221
72.6072
61.1628
49.5693
49.4707
49.0992
47.3822
55.5356
87.7276
49.1526
67.1409
53.1013
70.249
50.264
57.6555
58.4973
61.6387
86.5707
84.2449
53.7589
76.7068
64.7255
73.8597
73.6925
51.3609
50.8267
89.6438
46.8042
48.7002
56.4105
122.069
54.5489
91.5379
70.7445
55.7631
66.0992
62.6894
96.692
48.2841
71.8677
66.0952
108.768
104.058
76.1725
45.8982
97.3045
91.2196
46.3393
82.5754
83.5323
62.9563
75.8078
69.8089
69.6006
76.0164
73.0188
89.2116
104.964
71.765
46.5878
87.3733
142.229
46.8142
92.1345
73.9742
46.4857
66.7278
71.4722
49.2262
69.6259
60.3898
70.4686
49.5786
47.2089
86.6846
47.4122
112.092
61.9663
76.0751
46.4902
83.3316
50.5383
51.3201
88.2826
63.8879
63.7403
48.3973
46.5632
98.8362
62.8015
103.783
48.915
55.1361
48.3552
55.125
100.49
50.1254
47.2328
52.6236
61.8033
63.791
135.093
47.4543
60.8125
50.085
47.048
85.6086
143.766
151.926
76.1623
76.1711
46.1616
113.41
66.3544
158.774
45.6941
46.0574
46.2068
52.0613
45.4781
46.5975
97.6299
48.4262
61.0652
47.4951
72.9214
48.9014
78.4225
106.134
68.9415
48.9371
86.0298
69.794
74.9973
82.5664
48.4915
71.8557
47.2926
72.2593
47.5027
111.964
77.2332
47.6816
50.0642
50.719
47.3698
76.9405
47.6731
62.3551
47.3771
66.1131
69.7507
102.136
71.2077
58.8609
46.727
75.3037
48.4412
67.1727
61.4648
83.0043
91.5489
50.7337
47.3326
46.5161
105.381
79.5465
89.5554
46.0213
46.3993
50.3973
48.0336
90.4451
52.5769
46.7344
47.299
55.7894
85.7416
65.167
49.4615
49.1455
55.6393
49.8836
51.4145
47.3477
46.9554
46.8654
47.3156
46.4836
65.9427
75.0955
94.8293
80.8562
105.771
64.8919
56.1754
74.6593
64.2569
64.9133
63.4487
61.944
47.7855
48.5916
45.9551
97.6295
56.8429
51.1337
97.6035
46.6988
46.4724
49.2548
46.8712
69.4596
45.6215
47.626
51.4404
111.674
45.9409
52.7236
101.171
46.3519
47.0223
95.2062
96.273
75.0353
78.4505
93.4106
48.7764
52.6504
52.5073
73.207
58.6794
48.7908
47.8371
130.454
75.3306
83.2148
106.896
47.3489
47.2365
47.7702
48.2469
48.1999
48.0521
119.524
56.148
46.8927
68.7108
71.1946
78.0684
46.3574
46.0601
47.6252
46.0635
114.616
46.9879
46.5782
49.1036
69.3622
71.0442
48.1832
47.3255
114.393
49.1583
61.2294
52.2221
74.7189
47.8826
77.4686
108.048
94.6974
77.0904
59.8436
59.0276
64.2154
62.9192
49.691
46.9652
47.5988
89.0578
57.271
46.4768
58.7345
47.4679
46.8019
84.3324
133.365
48.8227
51.3121
48.4384
48.0951
51.2057
85.1404
47.4626
46.9374
48.86
70.101
47.1452
87.5442
84.0766
74.9742
89.3302
58.7298
47.0217
49.6163
46.9219
50.8836
47.1354
49.0973
60.8349
47.7177
81.6422
79.7205
75.1191
48.3707
47.7429
65.162
131.159
63.3053
77.4232
93.0209
72.6236
47.06
67.415
50.8957
46.4784
47.1156
72.2144
81.6221
47.5467
47.3319
92.362
71.3249
46.773
67.322
46.1195
68.349
64.43
46.8333
51.8111
45.5908
95.1504
51.031
48.1526
77.4258
91.937
45.6236
45.5455
46.7867
46.4754
52.8811
78.9444
47.0802
63.0559
97.9057
111.17
74.1498
46.5106
79.4468
96.2204
46.7106
78.3766
47.3291
60.6579
69.6073
85.3683
68.4977
75.4312
46.1434
61.8831
73.458
46.4251
48.3389
51.233
48.1183
47.0671
112.613
46.569
59.0012
65.3942
69.9914
52.2193
50.263
97.2147
47.6929
50.6873
86.8272
64.863
93.0582
81.521
51.3566
59.9884
73.1278
94.4871
99.4064
85.7056
62.8775
85.7395
191.728
79.7058
72.6969
81.922
84.2144
48.5872
49.5357
108.579
79.1561
52.0088
84.3879
46.4545
50.0689
90.0311
47.1287
47.5396
73.212
70.9402
90.6003
74.5063
154.54
80.4746
115.163
112.866
111.54
105.226
210.511
47.5246
47.0753
113.737
96.3166
48.3759
51.2978
51.2683
86.5418
68.0072
67.5914
103.895
137.293
78.295
84.9014
52.9873
49.6371
85.9041
182.912
83.456
179.191
69.794
77.9489
96.199
88.2606
91.002
48.9194
104.588
47.249
47.5587
91.1706
69.6787
90.076
47.4917
60.2624
60.1738
90.4949
48.2753
59.3486
47.2603
46.4152
47.0664
88.0044
89.6607
66.4866
69.8716
81.6284
78.5618
71.643
70.5484
85.154
78.3022
47.8823
66.1575
70.8778
93.328
77.8969
84.8946
72.7397
45.7362
46.4218
46.1172
50.1152
46.9146
50.7181
65.4491
45.9056
50.7353
97.8239
119.721
48.6058
53.1692
95.3813
51.395
53.5161
60.4804
46.5413
136.762
72.4566
89.923
105.085
140.841
46.564
85.7487
103.303
48.3785
84.2889
49.7657
72.3323
49.9556
69.2487
84.9275
49.0832
81.08
56.0083
49.8635
96.7311
113.219
67.2599
48.679
74.5971
117.062
75.5452
92.0184
46.0764
89.0046
80.4412
46.992
72.8272
49.4317
94.1731
54.3367
85.4749
55.3282
45.9129
64.8455
78.9429
48.9557
61.057
51.2875
60.7958
84.3372
66.1293
100.006
51.3568
74.9917
46.9603
93.7132
77.0123
49.9498
67.0697
89.3584
91.2058
56.2555
125.813
63.3185
83.8714
49.0648
50.1476
50.2006
46.2279
57.9381
68.5731
57.3211
49.2965
106.313
46.1222
47.8352
73.2026
46.6212
48.0231
148.078
49.4527
165.379
91.6827
128.279
73.8915
65.6211
83.1399
46.2572
85.5859
46.4336
123.582
46.5015
73.7877
127.384
108.164
64.1711
75.428
48.0059
75.6312
149.942
46.1618
68.6375
81.6565
50.8253
115.061
48.0402
52.4585
90.6872
94.2576
74.8663
93.9836
66.3561
95.4512
46.6576
46.3905
77.2906
64.5558
47.0474
47.2835
71.5155
48.4182
47.4169
48.9396
49.3979
50.571
52.7657
49.3691
55.6873
82.8765
100.036
83.8124
79.8109
101.677
65.3229
75.2032
46.9875
48.0587
49.9986
48.2666
46.8673
48.5369
48.0511
47.9528
48.8744
48.9293
79.9576
117.243
48.0019
66.2318
65.8555
94.9815
73.244
80.2776
61.0613
86.9826
82.0111
52.6488
80.1118
48.7595
161.107
52.5085
47.1758
48.1931
75.1854
47.5529
65.2995
64.7629
66.6081
82.4936
46.9916
49.6423
47.727
49.3737
46.7316
49.9746
46.8397
80.3959
71.6611
74.1337
49.2744
49.0722
50.7377
48.4123
47.0024
46.7068
48.248
47.0422
47.6812
49.4885
54.6052
46.3827
46.5096
46.3052
55.6325
53.1705
149.334
67.7779
71.3762
75.232
45.9798
46.0827
51.8831
46.8442
79.8217
48.2836
70.6711
70.5179
78.2306
46.6703
77.6287
89.4808
121.653
117.086
47.0735
47.4209
69.2523
57.1329
66.6048
76.9224
100.363
46.3067
129.469
46.813
46.9927
52.3544
70.6854
50.6187
45.7445
45.9978
58.5634
69.5293
46.7192
46.0378
127.001
76.2192
45.8833
189.689
61.4713
128.68
63.1182
48.9612
47.105
60.0981
54.3672
66.734
82.1704
56.3284
58.0096
48.8643
107.106
118.757
93.5682
47.0089
68.1285
48.2549
118.543
87.0289
47.202
46.5427
83.323
86.1249
47.447
99.0017
73.6805
47.992
72.7164
46.4855
46.7848
59.5426
46.5008
46.1031
49.4843
48.2459
50.0217
46.8288
46.7501
51.2067
49.4108
47.7784
82.7247
178.296
51.2499
46.6699
112.135
52.8903
79.9066
71.5565
46.1846
49.4069
73.2044
117.7
91.0276
49.8952
80.654
106.031
120.527
62.4492
144.697
66.4232
94.4407
47.0488
114.435
75.3081
86.226
94.4918
68.7116
92.784
97.7055
77.6018
67.1756
57.2091
83.2814
80.4692
72.2856
114.724
124.035
101.82
71.9372
69.5554
138.936
81.8409
81.2376
79.3629
110.89
83.1943
47.3155
74.8805
69.3882
45.961
66.4519
62.0485
50.2914
108.057
81.1469
112.563
85.6838
69.0571
86.3311
106.845
48.1118
55.6233
98.0435
66.827
82.9242
46.5016
63.8417
46.6485
54.0607
76.1391
79.9859
87.7361
83.7286
66.7001
70.8575
106.951
61.2462
72.8113
77.2029
82.9981
45.7048
96.4541
169.854
167.697
76.4421
83.324
70.9633
100.736
74.1782
123.123
83.9176
62.4793
54.6221
54.9798
77.2071
81.3143
116.36
117.733
91.6837
196.792
148.484
85.9673
107.516
67.6143
75.1398
85.6371
98.0621
109.493
91.6396
75.0818
103.25
153.417
170.301
119.046
170.808
72.109
105.38
117.192
51.8924
119.482
67.3122
76.1362
102.376
47.3696
47.2222
51.6844
49.755
46.7117
46.2535
47.0522
46.573
85.6357
46.7784
47.1797
46.8955
47.5
110.551
111.498
54.8765
46.411
46.3705
48.8107
46.8768
47.681
52.2881
48.0295
46.5719
51.5007
119.199
49.4263
47.1695
71.527
50.9057
53.2814
46.5935
46.0847
50.3223
85.7655
67.9132
46.4134
92.0087
47.8473
46.3084
48.4085
46.3939
48.2614
65.4607
49.4669
71.5885
47.2165
58.2538
46.517
52.9907
46.3284
93.097
46.9824
46.5678
59.9354
56.7653
46.5611
80.7217
51.5603
45.9968
47.1364
73.2522
47.6176
48.1191
48.0765
47.9454
47.341
47.4233
53.1786
46.9549
47.357
48.3273
85.8741
51.4016
46.6162
46.8609
46.8135
48.3223
47.6244
47.4432
47.462
54.72
61.1999
51.6124
50.5524
50.2123
49.2101
48.9162
48.0005
54.6229
46.6688
48.3978
77.2987
51.5025
111.595
50.1372
47.6811
46.7679
51.7616
51.2263
47.1677
50.9663
47.1102
62.2116
47.4269
52.2117
108.672
49.8281
47.7098
46.8789
47.8951
106.598
71.8958
49.4198
48.1335
131.048
47.8956
98.2092
106.294
77.2997
46.659
46.5665
46.7101
47.4899
46.6935
58.7505
62.0878
46.649
78.5972
65.195
57.4432
45.9385
48.0161
46.8556
51.3151
94.7682
47.0803
46.5732
49.8597
73.9768
112.129
50.5174
50.9707
48.8572
63.9361
68.403
93.3597
46.4551
63.0286
45.9522
46.2053
103.642
46.7103
48.0492
73.2225
107.56
49.7858
105.19
46.8788
51.7578
76.9583
50.0131
65.1657
61.0879
70.4743
62.4495
48.8147
47.2756
58.8738
105.746
49.1747
85.5239
80.756
89.3895
81.3935
64.3672
47.5293
47.6669
74.5841
60.4343
59.0371
48.3618
49.3693
69.8468
51.2115
46.5896
47.9695
102.047
47.5105
47.2591
47.7085
50.8786
76.0254
47.5453
47.9032
78.8504
55.5629
51.8222
45.551
71.0718
48.493
47.0477
45.9325
47.7277
101.021
56.4733
59.3505
86.1224
47.1673
103.858
89.238
76.2639
100.2
92.7301
94.9102
96.1647
61.8106
50.9291
48.6247
57.207
57.2999
172.612
48.5303
81.2555
70.4673
83.9952
96.0172
108.075
83.1182
71.4581
110.948
94.9393
88.7469
67.9122
137.974
51.8399
87.8397
67.4796
80.6704
66.5615
107.228
62.0294
127.838
65.4011
54.024
54.2612
106.112
101.132
100.546
135.538
90.7556
66.8949
52.2098
93.0392
91.8886
91.9873
66.6939
79.5754
86.5369
46.7489
46.671
46.6674
67.6364
46.7481
53.4922
50.4714
47.4997
114.103
45.7776
52.3441
47.1299
100.023
61.1791
84.1441
96.4644
74.303
89.206
46.9809
49.6986
76.6479
46.8759
46.9695
68.7818
51.9
75.2682
79.1235
55.0207
63.7754
166.971
167.69
72.8999
152.99
79.5745
51.4759
67.3138
88.2846
90.2862