/*--------------------------------*- C++ -*----------------------------------*\
| =========                 |                                                 |
| \\      /  F ield         | OpenFOAM: The Open Source CFD Toolbox           |
|  \\    /   O peration     | Version:  2506                                  |
|   \\  /    A nd           | Website:  www.openfoam.com                      |
|    \\/     M anipulation  |                                                 |
\*---------------------------------------------------------------------------*/
FoamFile
{
    version     2.0;
    format      ascii;
    arch        "LSB;label=32;scalar=64";
    class       volScalarField;
    location    "0.0625936";
    object      nut;
}
// * * * * * * * * * * * * * * * * * * * * * * * * * * * * * * * * * * * * * //

dimensions      [0 2 -1 0 0 0 0];

internalField   nonuniform List<scalar> 
3972
(
0.0037538
0.00303081
0.00686217
0.00620831
0.000345761
0.00290591
0.00319246
0.00301359
0.0033695
0.00126619
0.00242552
0.0034035
0.00406681
0.00626132
0.00659481
0.00709591
0.00682678
0.0026187
0.00634732
0.005393
0.000915331
0.0020269
0.00336647
0.00656324
0.000303161
0.00610896
0.00642326
0.00507836
0.00186728
0.00654966
0.00108677
0.000548102
0.00648035
0.00143444
0.00673272
0.00676219
0.00227531
0.00521901
0.00536227
0.00236323
0.00510118
0.00732516
0.00210761
0.00280055
0.00522903
0.00570322
0.00536158
0.00232982
0.00306272
0.00544385
0.00520433
0.00371879
0.00221827
0.00404084
0.00155843
0.00548999
0.0029001
0.00313597
0.00285288
0.00213282
0.00350784
0.00303981
0.00579942
0.00301976
0.00549959
0.00238556
0.000985725
0.00302406
0.00263874
0.00302856
0.00286239
0.0029979
0.00171518
0.0068499
0.00147892
0.00701834
0.00184774
0.00326084
0.00497448
0.000825441
0.0017956
0.00520109
0.00721698
0.00463123
0.00366464
0.00425197
0.00502968
0.00172733
0.0035357
0.00365752
0.00111955
0.00240854
0.00145225
0.00124199
0.00591416
0.00674844
0.00686795
0.00581489
0.00484335
0.00654401
0.00674234
0.00704176
0.00583435
0.0063625
0.0032736
0.00405863
0.00250411
0.00609237
0.00186586
0.00694187
0.00158813
0.00702655
0.00715471
0.000897317
0.002557
0.00459421
0.00663954
0.00300663
0.00311871
0.0014113
0.000759322
0.00296999
0.00352652
0.00426353
0.00552916
0.00100118
0.00294711
0.00120756
0.00107806
0.000950274
0.00132288
0.00181573
0.00113294
0.000633789
0.00366631
0.00363151
0.00295347
0.00308463
0.00289659
0.00402764
0.00127524
0.0068486
0.00174833
0.00125384
0.00281249
0.00545644
0.0020991
0.00692984
0.00299778
0.00116149
0.0050619
0.0035927
0.0065744
0.00448448
0.00248403
0.00341563
0.00549455
0.00162381
0.00194881
0.000832838
0.00726964
0.00712985
0.00413995
0.00348845
0.00595962
0.00112925
0.00420699
0.00262111
0.00331118
0.00171876
0.00150862
0.0058
0.00707679
0.00714352
0.00654147
0.00638501
0.00493868
0.0071559
0.00706225
0.00712515
0.00483061
0.00318072
0.00381727
0.0020501
0.00683799
0.00687558
0.00632998
0.00554876
0.00655265
0.000177699
0.00667805
0.00685869
0.00112608
0.00684728
0.00608368
0.00664142
0.00701138
0.00421371
0.00331471
0.00542219
0.00642617
0.0035789
0.0025224
0.00507377
0.00682738
0.00436397
0.00647754
0.00233099
0.00277108
0.00350279
0.00261147
0.00445854
0.00138863
0.0013683
0.00629392
0.004264
0.00174472
0.00456501
0.00290295
0.00455124
0.00630595
0.00128154
0.00364513
0.00610623
0.000707607
0.00605118
0.000256612
0.0019305
0.000355654
0.00109785
0.000324398
0.000962744
0.000763456
0.000691752
0.00367963
0.0061235
0.00341359
0.00704217
0.00191552
0.0020355
0.00200913
0.00122328
0.000788276
0.00168407
0.00297799
0.00677849
0.00360203
0.00676626
0.00730344
0.00228803
0.00619237
0.000246491
0.00112562
0.00238923
0.00711122
0.00268554
0.000641963
0.00145637
0.00660981
0.00312474
0.00132036
0.00291204
0.00395285
0.00718147
0.000661501
0.00167095
0.00707187
0.000941101
0.00216229
0.00696708
0.00313994
0.00150938
0.000770012
0.000950292
0.00118851
0.000834331
0.00491152
0.00277516
0.00722771
0.00704562
0.00359026
0.00127181
0.00653043
0.000636783
0.000420921
0.000297698
0.00657868
0.00423105
0.00743969
0.00514601
0.00715607
0.0041832
0.00221599
0.0061581
0.000610998
0.000845415
0.00495444
0.000738872
0.00344413
0.000253758
0.00665895
0.00530507
0.00288864
0.00280983
0.00343575
0.0031466
0.00234185
0.00242469
0.0043445
0.00324186
0.00230233
0.00552668
0.000720276
0.00330247
0.000632822
0.00596269
0.00656076
0.00693475
0.00423046
0.00527725
0.000737412
0.000342283
0.00307665
0.00701473
0.00722981
0.00288137
0.00617008
0.00585327
0.0074242
0.00274325
0.00543736
0.000773052
0.00139215
0.00713718
0.0070612
0.00285084
0.00623219
0.00168579
0.00689274
0.00289803
0.00118949
0.00710088
0.00104142
0.00672301
0.00573803
0.00697955
0.00328091
0.00240793
0.00561611
0.00337424
0.00589528
0.00285228
0.00434518
0.00502591
0.000362512
0.000811773
0.000572318
0.00436031
0.00369351
0.00686607
0.0071575
0.00707266
0.00713173
0.00170223
0.00593925
0.00641371
0.00400206
0.00471365
0.00466658
0.00597616
0.00718565
0.00603731
0.00644543
0.0072463
0.00341862
0.00527559
0.00570109
0.0035028
0.00397617
0.00302073
0.00652127
0.00333529
0.00674609
0.00128176
0.00558054
0.00121548
0.00587324
0.00100129
0.00433441
0.00419815
0.00145983
0.00711624
0.00170521
0.0074848
0.00184983
0.00378095
0.000273298
0.000418739
0.00651865
0.00646707
0.00117565
0.00570693
0.00725006
0.00407129
0.00122061
0.00709594
0.00353555
0.00109684
0.0061618
0.00445391
0.00704844
0.00190889
0.00534197
0.00624436
0.00348092
0.000318736
0.00542477
0.00710121
0.00748463
0.00641126
0.00627527
0.00280186
0.00653732
0.00668583
0.00440562
0.00665789
0.0027791
0.00725377
0.00136754
0.00428706
0.00706371
0.00381283
0.00380038
0.00601627
0.00616988
0.00239403
0.0025286
0.00357231
0.00598041
0.00401126
0.00619466
0.00323933
0.00602972
0.00556123
0.00670395
0.00726533
0.00414266
0.00635235
0.0045218
0.00602868
0.00668565
0.00190294
0.00211563
0.00192145
0.0065395
0.00326455
0.000503623
0.00044039
0.00124094
0.00300688
0.00122455
0.00156797
0.00581763
0.00254418
0.00218328
0.00126744
0.00705047
0.00566963
0.00694297
0.00367438
0.00347824
0.00371077
0.00184043
0.00219709
0.00692437
0.00111481
0.00200363
0.000740846
0.00438813
0.00343162
0.00228571
0.00213471
0.00236175
0.00235508
0.00250606
0.00620073
0.00522585
0.00214112
0.00500518
0.00491475
0.00363783
0.00392641
0.000747448
0.00174288
0.0012526
0.000825689
0.00223417
0.00454935
0.0032079
0.00489741
0.00485817
0.00191536
0.0062244
0.00239557
0.00386237
0.00164964
0.00537453
0.00639777
0.00586382
0.00342504
0.00175367
0.00375439
0.00175237
0.00159848
0.00369934
0.00397935
0.00629602
0.0069812
0.000605756
0.00063868
0.000685081
0.00178038
0.00351627
0.00175049
0.000433998
0.00686446
0.00366239
0.00117916
0.00148849
0.00681831
0.00174776
0.0014331
0.00728437
0.00175559
0.00183384
0.00322017
0.00491118
0.0048139
0.00512969
0.00448937
0.00479289
0.00258449
0.00239444
0.00264693
0.00642863
0.0067899
0.000822419
0.00295722
0.00454215
0.0066422
0.00701459
0.00698566
0.00295124
0.00236678
0.00687923
0.00697767
0.00708209
0.00238266
0.00632188
0.00689473
0.00459123
0.00390804
0.00669656
0.0018279
0.00735552
0.00198173
0.00206523
0.0011885
0.00420601
0.000370699
0.00658555
0.0072359
0.000437847
0.00560004
0.00618198
0.0069168
0.00440878
0.00422714
0.00472743
0.00636061
0.00724025
0.00726395
0.00520564
0.00406315
0.00614574
0.00570447
0.00724461
0.00717646
0.00706143
0.00544919
0.00146055
0.00244797
0.00102289
0.00139328
0.000969476
0.00140596
0.00546733
0.00516465
0.00731031
0.00683378
0.00545587
0.00322643
0.00506189
0.00470276
0.000393818
0.000678596
0.000518141
0.00461599
0.000238256
0.00580695
0.00744101
0.00724245
0.0018809
0.00630665
0.00277557
0.00368951
0.00421036
0.00655702
0.00626329
0.0066022
0.00612258
0.000610142
0.000619636
0.00105953
0.000595289
0.00566902
0.00296423
0.00703151
0.00703104
0.0065991
0.00548796
0.00706629
0.00545424
0.00309062
0.00301539
0.00131068
0.0019317
0.00711858
0.00719039
0.00713371
0.00717559
0.00131341
0.00152467
0.00612795
0.00679675
0.00106322
0.000998946
0.00129871
0.000843975
0.000628058
0.00126703
0.00289214
0.00126687
0.00117891
0.00243686
0.00339269
0.00533042
0.00397741
0.00242874
0.00109726
0.00063923
0.000556599
0.00699405
0.000614382
0.00511425
0.00315271
0.0033406
0.00465189
0.00232668
0.00285276
0.00628374
0.00704578
0.00701667
0.00706802
0.00672317
0.00700487
0.00698269
0.00268262
0.00358219
0.00219289
0.00179386
0.00145438
0.00366449
0.00206732
0.00253228
0.00481586
0.00585274
0.00474967
0.00724796
0.00306432
0.00302246
0.00128211
0.00365122
0.00646574
0.00666759
0.00182844
0.00671434
0.00394479
0.00658789
0.00492276
0.00630439
0.00211524
0.00674877
0.00447726
0.00493112
0.00143777
0.00269424
0.00671521
0.00590038
0.0050227
0.00750011
0.00696828
0.00373257
0.0038742
0.000509716
0.00504637
0.00465789
0.00438676
0.00369488
0.00496103
0.00308517
0.00642558
0.00302511
0.00722123
0.00519748
0.00709429
0.00180393
0.00240131
0.00432053
0.00477914
0.00654735
0.00676178
0.00587648
0.00551298
0.00456292
0.00447044
0.00656545
0.0057603
0.00624865
0.00607502
0.00454588
0.0066288
0.00729261
0.00715925
0.00287571
0.00113811
0.00610034
0.00710705
0.00650326
0.00671547
0.00640888
0.00515981
0.0059111
0.00371171
0.000967431
0.00527421
0.00433213
0.00197228
0.000892212
0.00167196
0.000599137
0.00118018
0.00404232
0.00316779
0.00740347
0.00223891
0.00300228
0.00684342
0.00704659
0.00281158
0.00565026
0.00734712
0.00675221
0.00393829
0.00480735
0.00351374
0.00383283
0.00330315
0.00318284
0.000757803
0.00519637
0.00331664
0.00696311
0.00598782
0.00213648
0.00201906
0.00391627
0.00222279
0.00637189
0.00633155
0.00609738
0.00116457
0.00375518
0.00584175
0.00633494
0.00690452
0.00620235
0.000821607
0.00437105
0.00515248
0.00588126
0.00406342
0.00302219
0.00561636
0.00540433
0.005415
0.000401565
0.00135548
0.00129824
0.00710353
0.00666418
0.00249374
0.00562207
0.00567188
0.0069546
0.0064945
0.00698724
0.00701824
0.00615357
0.00189167
0.00587945
0.00574541
0.00675862
0.0063588
0.00220034
0.00701073
0.0039715
0.00154226
0.00276058
0.00362582
0.00390343
0.00343911
0.00660846
0.00696558
0.00611269
0.00253333
0.00202728
0.00638944
0.00219168
0.00104355
0.000976726
0.000210278
0.0069174
0.00699774
0.00639971
0.00640676
0.00446852
0.000134777
0.00515893
0.00252706
0.00193905
0.00119402
0.00267037
0.00521305
0.00325085
0.00391908
0.00660217
0.000576938
0.000781252
0.000279221
0.0072724
0.00707372
0.00648731
0.00444735
0.00257983
0.00424571
0.00503806
0.00621752
0.00214193
0.00146719
0.00703518
0.00226856
0.00739829
0.00075487
0.000990201
0.00516009
0.000414847
0.00587301
0.00445622
0.00657236
0.00471923
0.00157544
0.00289737
0.00414862
0.00301211
0.00191942
0.000715384
0.00664518
0.00502059
0.00456282
0.0031993
0.00472852
0.00299792
0.00439955
0.00459722
0.00232611
0.000458054
0.00112662
0.000296855
0.00263301
0.00217131
0.00470139
0.00468961
0.00503674
0.0048902
0.00557263
0.00505457
0.00640197
0.0048686
0.0032143
0.00684569
0.00630187
0.00168742
0.00532665
0.00583039
0.00623167
0.00679601
0.00289413
0.00560741
0.00728498
0.00326487
0.00647503
0.00574487
0.00301532
0.00449448
0.00652967
0.00547442
0.00713798
0.00638967
0.000501052
0.00154963
0.00612067
0.00728078
0.00375703
0.00383199
0.00460643
0.00471996
0.00676674
0.00311433
0.00480327
0.0067222
0.00406245
0.0072249
0.0026524
0.000966423
0.00058502
0.000934748
0.00686702
0.00505202
0.00319606
0.00640668
0.0066435
0.00298108
0.00479815
0.00618769
0.00285329
0.00305451
0.00134511
0.0020716
0.00320313
0.0013938
0.00354339
0.00600387
0.00408633
0.00331884
0.00712276
0.00186087
0.00315967
0.00756571
0.000535217
0.00233567
0.00100409
0.00486096
0.00234561
0.000253365
0.00171059
0.0013272
0.00670978
0.000360676
0.00516418
0.00682883
0.00065783
0.000970413
0.00452071
0.00617562
0.00475662
0.00186733
0.00242141
0.00416444
0.00727041
0.00432175
0.000344555
0.00149108
0.000231324
0.000358447
0.00077002
0.00200046
0.000224887
0.00327084
0.00146162
0.000355334
0.00462988
0.00645759
0.00173494
0.00327611
0.0017809
0.00412391
0.00357589
0.000363118
0.000269093
0.00382828
0.00625481
0.00086472
0.00136198
0.00566972
0.00684552
0.00713615
0.00131041
0.000958266
0.00681764
0.000159223
0.000357346
0.000665381
0.000350001
0.00530789
0.00153773
0.00385504
0.00387182
0.00378145
0.00299681
0.00285909
0.00311009
0.00610308
0.00734358
0.00722079
0.00627166
0.00342668
0.0069275
0.00489623
0.0036241
0.00582643
0.00355359
0.00720128
0.00425775
0.00740328
0.00510584
0.00742223
0.00697815
0.00273485
0.00340691
0.00539621
0.00518677
0.00750494
0.00406244
0.00644384
0.0070071
0.00685262
0.00550809
0.00746698
0.00695152
0.00327792
0.00415044
0.00629682
0.00742441
0.00280997
0.00264286
0.0051704
0.00701383
0.00404024
0.00328735
0.00270384
0.00231536
0.00577937
0.0055546
0.00538331
0.00735341
0.00407906
0.0075228
0.00733694
0.00716839
0.00478896
0.00134649
0.00605265
0.00611818
0.00362659
0.00467172
0.00723522
0.00651587
0.00112962
0.0041004
0.00235712
0.00124985
0.00655919
0.00638199
0.00254115
0.00447537
0.00167686
0.00356518
0.00494958
0.00452807
0.00175501
0.006267
0.00500813
0.00302187
0.000135867
0.000587269
0.00662355
0.00323284
0.00325852
0.00617019
0.0035857
0.0046775
0.00160419
0.00691705
0.000608682
0.0024095
0.00200386
0.00213391
0.0029693
0.00192721
0.00258821
0.00293011
0.00732099
0.00561226
0.0073908
0.00714986
0.00717273
0.00709211
0.0072534
0.00725979
0.00726031
0.00716934
0.00632999
0.00102279
0.00602305
0.000427998
0.00034893
0.00116636
0.00729244
0.00406288
0.000353447
0.0058844
0.00360678
0.00567668
0.00728235
0.0064682
0.0061819
0.00177117
0.00650245
0.000621674
0.00688254
0.0019736
0.0068708
0.00140995
0.00525931
0.00144179
0.00417161
0.0011024
0.00370832
0.00717343
0.00562126
0.00700852
0.00525345
0.00622621
0.00120482
0.00395548
0.000249417
0.00489859
0.00660238
0.0029201
0.00704996
0.00134416
0.0071937
0.00572844
0.000905891
0.00717359
0.00189579
0.000612813
0.000234643
0.00180364
0.00141528
0.00210395
0.00525865
0.0032795
0.00134099
0.00498807
0.00224284
0.00694228
0.00391328
0.00322306
0.00678637
0.00616919
0.00699256
0.00129634
0.00210206
0.000175247
0.0014454
0.000850745
0.00732822
0.00154751
0.00104652
0.00147684
0.00640467
0.00694629
0.00340348
0.000556685
0.00266924
0.00683538
0.000274876
0.00413556
0.000193483
0.000456071
0.0065188
0.00695468
0.00237134
0.00460715
0.00144786
0.000733993
0.00288184
0.00316711
0.00195947
0.00318007
0.00739606
0.00723144
0.00343532
0.00568299
0.00523771
0.00728441
0.00508765
0.00524378
0.00352877
0.00679309
0.00681738
0.00608757
0.00628625
0.00666264
0.00599688
0.00606125
0.00609065
0.00509775
0.00636135
0.00543109
0.00141151
0.00569921
0.00432339
0.00647086
0.00619397
0.00679868
0.00703501
0.00308732
0.0054303
0.00652796
0.00721498
0.00698983
0.00669593
0.00711311
0.00714977
0.00715207
0.00716262
0.00672479
0.00681503
0.0071128
0.00714904
0.00537847
0.00714852
0.00661489
0.00719666
0.00372803
0.00326256
0.00455851
0.00370569
0.00353999
0.00397247
0.00311494
0.00325013
0.00163014
0.0024819
0.00743424
0.000644248
0.00253701
0.00468706
0.00220835
0.00532386
0.00733457
0.00119877
0.00192674
0.000864225
0.00641625
0.00663234
0.00368853
0.00276722
0.00625921
0.006393
0.00594053
0.00481836
0.00513483
0.00540493
0.00547002
0.00573792
0.00581262
0.00324173
0.00340599
0.00313511
0.00512044
0.00529934
0.00523609
0.00706894
0.00481701
0.00655644
0.00703086
0.00450356
0.00489593
0.00708999
0.00347474
0.00732286
0.00721092
0.00427606
0.00043683
0.0067292
0.00469783
0.00377556
0.00272909
0.00555312
0.00324592
0.00509276
0.00470284
0.00691898
0.00566976
0.00287923
0.00641447
0.0045619
0.00412169
0.00610222
0.00696749
0.0069843
0.00654434
0.00706157
0.00700723
0.00165043
0.0005494
0.000734667
0.00135291
0.00104831
0.00110076
0.00336069
0.00365615
0.00660087
0.00129289
0.00537889
0.00070153
0.0006617
0.00403085
0.00561658
0.00328603
0.00395844
0.0059009
0.00587514
0.00602357
0.00705642
0.00632585
0.00627975
0.00411836
0.00567164
0.00623968
0.00296637
0.00717506
0.00705938
0.00458727
0.00630485
0.0068085
0.0025165
0.00363782
0.00393803
0.00338322
0.00611049
0.00340321
0.00350683
0.00362527
0.00534815
0.00522827
0.00198035
0.00287176
0.00731178
0.00418455
0.00670431
0.00733331
0.00678302
0.00166336
0.00728035
0.00225729
0.00658994
0.000419335
0.00148271
0.00676084
0.000204341
0.00016699
0.00617936
0.000902494
0.00143134
0.00685464
0.00082282
0.00147156
0.000373614
0.000384101
0.000300791
0.00241484
0.000560033
0.000654466
0.000214097
0.00496964
0.000565217
0.00447611
0.00336418
0.0031977
0.00553701
0.00450641
0.00383871
0.00377658
0.00258315
0.000401381
0.000616638
0.00341663
0.00449631
0.000673977
0.000347008
0.000382969
0.00424831
0.00571048
0.00551554
0.00626355
0.00603767
0.00331617
0.00700897
0.00673172
0.00687327
0.00714843
0.00724251
0.0054013
0.00648693
0.000292951
0.00368023
0.00105528
0.000860723
0.00102646
0.00342133
0.00491014
0.00554114
0.00621344
0.00585111
0.00709527
0.00393165
0.00705357
0.00633504
0.00362152
0.00526363
0.0072776
0.00713798
0.00498027
0.00663655
0.00432451
0.00697033
0.00330027
0.00666134
0.00533676
0.00438711
0.00694833
0.00580356
0.0056703
0.00617811
0.0019725
0.00105338
0.00237356
0.00212505
0.000728533
0.00171539
0.00507968
0.00536131
0.00750304
0.00150864
0.00492923
0.00621247
0.00748199
0.00438633
0.00423665
0.00578652
0.00444376
0.00418851
0.00700519
0.00651967
0.00735056
0.000192023
0.00651861
0.00701821
0.00640672
0.00581873
0.00408891
0.00521181
0.00237259
0.00716536
0.00448536
0.000954524
0.00681353
0.00499561
0.00695753
0.000840606
0.00223347
0.00255818
0.000807812
0.000755682
0.00184207
0.00180072
0.00276808
0.00170593
0.00135149
0.00114544
0.00720389
0.00242119
0.00690807
0.00499885
0.000149088
0.00664644
0.00276993
0.00257409
0.00294461
0.00274177
0.00409653
0.00405862
0.00410204
0.00280959
0.00322679
0.00345419
0.00466777
0.00441264
0.00301255
0.00627272
0.00707223
0.00493899
0.00443628
0.00313369
0.00273322
0.00727492
0.00722073
0.00611784
0.00641192
0.00413108
0.00411128
0.0070664
0.00589959
0.00602619
0.00556536
0.00548634
0.00613747
0.00359118
0.00406662
0.0047852
0.00468718
0.00677264
0.00429934
0.00609279
0.00608305
0.0041507
0.00658038
0.00577846
0.000827553
0.00457804
0.00036132
0.000668901
0.00203624
0.00534651
0.00628535
0.00574022
0.00441224
0.00679364
0.00551361
0.00347687
0.000474767
0.00292158
0.00205529
0.000986372
0.00360154
0.0035939
0.000719101
0.000940097
0.00068954
0.00216098
0.000313156
0.000655973
0.000898971
0.000767834
0.000745252
0.00733557
0.00387005
0.00674397
0.00392944
0.00426829
0.00325925
0.00638785
0.00301712
0.00306159
0.001503
0.00148143
0.00516341
0.00598193
0.00235154
0.00398793
0.00508885
0.00286203
0.00110118
0.00328228
0.00176001
0.000963353
0.00559595
0.00481706
0.00288452
0.00439071
0.00349761
0.00709907
0.00639209
0.00274757
0.00368324
0.00563456
0.00337194
0.00634795
0.00681864
0.00670167
0.00361476
0.0030211
0.00731882
0.000274419
0.00140143
0.007476
0.00446482
0.000242198
0.00221636
0.00110955
0.00701398
0.00296066
0.00313375
0.00681149
0.00239101
0.000817078
0.00511519
0.00494529
0.00438247
0.0073513
0.00461264
0.00292506
0.00147837
0.00161209
0.00333969
0.00698724
0.00726942
0.0059566
0.00655947
0.00542551
0.00566583
0.00318598
0.0033081
0.00657369
0.00667608
0.00438491
0.000957037
0.00137419
0.00043203
0.00378127
0.0011496
0.00049786
0.000929351
0.00149627
0.00675838
0.00578569
0.00435777
0.00707922
0.00715086
0.00499548
0.00409418
0.00192582
0.00133437
0.00120797
0.00290774
0.00697893
0.00143234
0.00210649
0.00518338
0.00245025
0.00254886
0.00325231
0.00337073
0.00153871
0.00327458
0.00209412
0.00326009
0.00312879
0.00321124
0.00339676
0.0026823
0.00312046
0.00737186
0.00500019
0.00598926
0.00702922
0.00703497
0.00732343
0.00494734
0.00669278
0.00422774
0.00264014
0.00559757
0.0027148
0.00738922
0.00480224
0.00649721
0.00195689
0.00685467
0.00720262
0.00698471
0.0023492
0.00410624
0.00372699
0.00456661
0.00598958
0.00168184
0.0021064
0.00222818
0.00251111
0.00132004
0.00332575
0.00458283
0.00497973
0.00473787
0.002027
0.00113762
0.00480681
0.00241506
0.00410631
0.00315842
0.00697768
0.00731467
0.00619507
0.00580304
0.00633704
0.00630157
0.00644005
0.00702771
0.00437777
0.00735857
0.00323039
0.00325742
0.004592
0.00471131
0.00120995
0.00465323
0.0056161
0.00730389
0.00661868
0.00385078
0.00444232
0.00305234
0.00286751
0.00618193
0.00631142
0.00387674
0.00688644
0.00720358
0.00718564
0.00588759
0.00274876
0.00432113
0.00429529
0.00631939
0.00544963
0.00728683
0.00508167
0.00638805
0.00643773
0.00458329
0.00517501
0.00404352
0.00678979
0.00699922
0.00322073
0.00534182
0.00518491
0.00684668
0.00571748
0.00676208
0.00659406
0.00461399
0.00692167
0.00672958
0.00502363
0.00328907
0.00422202
0.00673178
0.00434861
0.00711566
0.00301784
0.00230091
0.00710738
0.00253791
0.00159137
0.00750059
0.00659795
0.00673919
0.00531673
0.00610995
0.00619561
0.00159392
0.00151761
0.000427474
0.00402221
0.00141044
0.00113632
0.00398981
0.00359143
0.000323192
0.000515328
0.00151263
0.00395957
0.00413133
0.00209347
0.00655881
0.00670119
0.00516589
0.00552241
0.00328892
0.00717819
0.00200172
0.0046552
0.00228582
0.00271358
0.00198011
0.00297967
0.00147266
0.00212404
0.0021508
0.0072435
0.00590311
0.00373781
0.00154054
0.00127552
0.00142348
0.00159171
0.00231898
0.00181523
0.00721843
0.000341147
0.00467889
0.00482849
0.00478145
0.00669304
0.00425245
0.000528735
0.00103498
0.00146686
0.00729206
0.00678856
0.00314679
0.00309151
0.00356023
0.00385941
0.0027197
0.00170521
0.00676641
0.00113881
0.00062122
0.00672348
0.00510968
0.00546828
0.00148621
0.00731895
0.00758658
0.00369167
0.00366339
0.00638573
0.00669908
0.0058694
0.00510379
0.00429976
0.00368459
0.00705183
0.00534292
0.00606741
0.00670025
0.00712795
0.00683351
0.00673292
0.00376743
0.00519816
0.00525758
0.00301206
0.00727412
0.00723705
0.00368434
0.00430583
0.00293259
0.00327199
0.00449835
0.0022469
0.00533505
0.00370201
0.00630914
0.00525177
0.00593659
0.00529037
0.00104139
0.00698308
0.00652992
0.00698349
0.00477074
0.00371837
0.00284747
0.00415404
0.00293282
0.005722
0.00614614
0.00297474
0.00508322
0.00243158
0.00407133
0.00360127
0.00642076
0.00539559
0.00512428
0.000881926
0.000813177
0.0022322
0.000165688
0.000701457
0.000691811
0.00715172
0.00692725
0.00687669
0.000795436
0.00713851
0.00671554
0.00505488
0.00610315
0.00673659
0.00165683
0.00230044
0.00323223
0.00250497
0.00234364
0.00171453
0.00254532
0.00118665
0.000447267
0.000411158
0.00251053
0.000847771
0.00190013
0.000996539
0.00119476
0.00113748
0.00167238
0.000271426
0.000790098
0.000256368
0.000497692
0.000649746
0.000270453
0.00104014
0.00121941
0.000989265
0.000191527
0.000922675
0.000271646
0.00498699
0.00464887
0.00718616
0.00713188
0.00710404
0.0059837
0.00537042
0.00639865
0.00360799
0.00241007
0.00175578
0.00380063
0.00725218
0.00341273
0.00224445
0.00188504
0.00705323
0.00703888
0.00699019
0.00711035
0.00528066
0.00719279
0.00709225
0.00303874
0.0071065
0.00707961
0.00678172
0.0071224
0.00232284
0.00107819
0.00364094
0.00446747
0.00328547
0.00535789
0.00699266
0.00277931
0.00428298
0.00568292
0.00594722
0.0033141
0.00696589
0.00527017
0.00680671
0.00604883
0.0069932
0.00537034
0.0069175
0.00529646
0.00481279
0.00575517
0.00318349
0.00739257
0.00615306
0.00691608
0.00349312
0.00435175
0.00606925
0.00727068
0.00718813
0.00588212
0.00570343
0.00576502
0.0052085
0.0022975
0.00388634
0.00484135
0.00105721
0.00094872
0.00156582
0.00262615
0.00710922
0.00563867
0.00650915
0.00403399
0.0058402
0.00160131
0.00581883
0.00717926
0.00722814
0.00440307
0.00680181
0.00226022
0.00599617
0.00533646
0.00681099
0.00696365
0.00667448
0.00572335
0.00700863
0.00458917
0.00700299
0.00305102
0.00400241
0.00624901
0.00691859
0.00463677
0.00489377
0.00668742
0.00721015
0.00570396
0.00552332
0.00717488
0.00423278
0.00438742
0.00441761
0.00396669
0.00301938
0.00384429
0.00717544
0.00271241
0.00700557
0.00534267
0.00350937
0.00679776
0.00259243
0.00684676
0.00726241
0.00736917
0.00667149
0.00718688
0.00618853
0.00288148
0.0054036
0.00600677
0.00728786
0.00217867
0.00127987
0.007458
0.00296831
0.00510531
0.0069627
0.00622295
0.00385464
0.00401633
0.00692479
0.00571946
0.0072022
0.00671367
0.00476423
0.00182308
0.00379781
0.00579794
0.00539577
0.00538728
0.00152016
0.00170053
0.00720658
0.00191645
0.0070836
0.00709129
0.000726127
0.0066209
0.00745299
0.00610609
0.00726304
0.00701725
0.00635833
0.00393711
0.0022246
0.000974429
0.000720458
0.000303947
0.000872626
0.00634559
0.00717716
0.00708189
0.00543036
0.00608624
0.00368508
0.00158721
0.00598405
0.00101544
0.000580782
0.000657802
0.00709792
0.00509254
0.000324907
0.000701046
0.00504449
0.000608731
0.00501767
0.00516583
0.00642942
0.000329724
0.000372944
0.00068449
0.00715578
0.00606103
0.000414971
0.000620016
0.00719713
0.00717859
0.0028992
0.00209478
0.00170391
0.00667048
0.00348555
0.00483109
0.00530373
0.00461924
0.00472027
0.000647299
0.00737138
0.00233148
0.00322743
0.00620399
0.00693613
0.00684005
0.00664453
0.00696296
0.00624529
0.00362679
0.00648261
0.00296798
0.00467649
0.00576619
0.00583123
0.00690378
0.00258704
0.00537941
0.0043007
0.00469765
0.00370673
0.0010362
0.00689459
0.00136935
0.00150563
0.00247571
0.0061254
0.00539223
0.00536149
0.000161728
0.00677985
0.0010069
0.00527581
0.0052744
0.00375066
0.00431545
0.00702648
0.00590808
0.00489539
0.00597931
0.00264615
0.00528627
0.00385269
0.0049824
0.00476294
0.00147436
0.00323312
0.00402294
0.0035903
0.00716821
0.00642618
0.00680439
0.00603302
0.00099189
0.000877496
0.00481615
0.00537928
0.00422841
0.00141035
0.0041247
0.00441467
0.00433764
0.0064185
0.003844
0.00192517
0.00362038
0.00146711
0.000967901
0.00623438
0.00419261
0.00574756
0.00104399
0.00249122
0.00442875
0.00304983
0.000962891
0.00578599
0.00216744
0.00526736
0.00745178
0.00693547
0.00524913
0.00200137
0.00175292
0.00711275
0.00729564
0.00509829
0.00738326
0.00606056
0.00535559
0.00731286
0.00716588
0.00417446
0.00607293
0.00535695
0.00220105
0.00548859
0.00392191
0.00689708
0.00576333
0.00665957
0.00618763
0.0072719
0.00738042
0.00712246
0.00732255
0.0072694
0.00707407
0.0064861
0.00756357
0.00733851
0.00612553
0.0071236
0.00716698
0.0036778
0.000347558
0.00680032
0.00703423
0.00546848
0.00668036
0.00722366
0.000401433
0.00566154
0.000622816
0.00722363
0.00704173
0.00463963
0.00502813
0.00531644
0.00104843
0.00118103
0.00441939
0.00470441
0.00232666
0.00738935
0.00669008
0.00341493
0.00457929
0.00318381
0.00631717
0.00438415
0.00355213
0.00390564
0.00314656
0.00401522
0.00734259
0.00676058
0.0066533
0.00678294
0.00703287
0.00703327
0.00732022
0.00558381
0.0069117
0.00720936
0.00311892
0.00708519
0.00686447
0.00730376
0.00688711
0.00405461
0.00214182
0.00491169
0.00258136
0.00499892
0.00343764
0.0024131
0.00656478
0.00727853
0.00235109
0.00487432
0.00516747
0.00260112
0.00635459
0.00154062
0.00554755
0.00549623
0.00535084
0.00622172
0.00185018
0.000483363
0.00233907
0.00322145
0.00572183
0.00248453
0.0060737
0.0033283
0.00121167
0.00586435
0.000467924
0.00689436
0.00566598
0.000921145
0.00558939
0.00380143
0.00440979
0.00546412
0.00524099
0.00333155
0.00590848
0.00287645
0.00646484
0.00643112
0.00700859
0.00154754
0.00282872
0.00644107
0.00713193
0.00298555
0.00715875
0.00298184
0.00635683
0.00720972
0.00605582
0.00467413
0.000832049
0.00097761
0.00243303
0.00136893
0.000184786
0.00111077
0.00382578
0.00419978
0.002519
0.00720578
0.00218982
0.00153838
0.00607182
0.00513171
0.00255416
0.00569664
0.00556964
0.00201856
0.00442344
0.00633463
0.0051084
0.00149979
0.00133299
0.00388217
0.000871895
0.000826387
0.000917721
0.00676342
0.00707972
0.00368165
0.00402707
0.00516777
0.00340639
0.000775624
0.000113245
0.00311194
0.00230172
0.00727726
0.00095672
0.00257259
0.00160552
0.00433967
0.00057356
0.00165786
0.00126989
0.000218973
0.00194488
0.0010993
0.000725077
0.000186891
0.000338114
0.000519027
0.0012551
0.000849447
0.00698273
0.00453686
0.00713027
0.00449725
0.00701654
0.000582492
0.0047849
0.00307986
0.00254424
0.00267922
0.00244782
0.00669624
0.00731185
0.00507003
0.00737498
0.00714541
0.00266593
0.00653434
0.0012041
0.000873389
0.00120131
0.00111871
0.00224776
0.00590386
0.00170427
0.00175398
0.000148617
0.00223629
0.00136316
0.000786348
0.000672186
0.000545396
0.00092823
0.00162907
0.00181759
0.000692091
0.0043914
0.000323909
0.00050263
0.00486365
0.00502755
0.00559335
0.00486709
0.000483772
0.00609726
0.000437397
0.00357624
0.00463325
0.00547813
0.00290888
0.00123132
0.00105078
0.00205763
0.000250257
0.00120577
0.00065574
0.00062839
0.00590471
0.00127015
0.000593027
0.00142924
0.0021245
0.00263678
0.00179146
0.00183802
0.00586492
0.000793334
0.000764572
0.00105188
0.00489241
0.00133892
0.00347406
0.0018108
0.00371786
0.00137339
0.00539702
0.0057831
0.0023661
0.00124621
0.000464354
0.000895845
0.00078194
0.000419312
0.000877648
0.000755445
0.00671856
0.0053196
0.00674311
0.00312337
0.00329696
0.00318076
0.00649526
0.00249448
0.00708085
0.00598119
0.00463639
0.00602632
0.00456943
0.00274254
0.00710112
0.00496658
0.0072961
0.00591036
0.00624481
0.00448899
0.00248916
0.00407882
0.00284764
0.00265302
0.00272935
0.00315934
0.00417915
0.00520182
0.00679574
0.00751062
0.00145341
0.00567798
0.00559319
0.006186
0.0060153
0.00262229
0.00295963
0.00392106
0.00289728
0.00250022
0.00275081
0.00373406
0.00463718
0.00684021
0.00686604
0.00566566
0.00552514
0.00416823
0.00643279
0.00703054
0.00412344
0.00499578
0.0030182
0.0053632
0.00326521
0.00427486
0.00403095
0.00297721
0.00310583
0.00582561
0.00613423
0.00430802
0.00365941
0.00413207
0.00440849
0.00484793
0.0054075
0.00412861
0.00464026
0.00681534
0.00571167
0.00614985
0.00631077
0.00664003
0.0048554
0.00383748
0.00473678
0.0035338
0.00691681
0.00565155
0.00455548
0.00481487
0.00522135
0.00533221
0.00335464
0.00516136
0.00529587
0.00590535
0.0050678
0.00334803
0.00269521
0.00673982
0.00029743
0.00102681
0.000638155
0.000330286
0.00704193
0.00326638
0.00342851
0.00569846
0.00343001
0.00351785
0.00336007
0.00435617
0.00597782
0.00156906
0.00571488
0.00350605
0.00149278
0.00313637
0.00543005
0.00627441
0.00518752
0.00498776
0.00317482
0.00519034
0.00623831
0.00367915
0.00568646