/*--------------------------------*- C++ -*----------------------------------*\
| =========                 |                                                 |
| \\      /  F ield         | OpenFOAM: The Open Source CFD Toolbox           |
|  \\    /   O peration     | Version:  2506                                  |
|   \\  /    A nd           | Website:  www.openfoam.com                      |
|    \\/     M anipulation  |                                                 |
\*---------------------------------------------------------------------------*/
FoamFile
{
    version     2.0;
    format      ascii;
    arch        "LSB;label=32;scalar=64";
    class       volScalarField;
    location    "0.0625936";
    object      p;
}
// * * * * * * * * * * * * * * * * * * * * * * * * * * * * * * * * * * * * * //

dimensions      [0 2 -2 0 0 0 0];

internalField   nonuniform List<scalar> 
3972
(
11.3794
20.0926
2.19615
0.28619
33.3175
7.31546
-1.49561
20.5148
17.6534
12.6753
7.9736
20.5968
-10.0962
9.60548
9.86027
10.6704
6.73745
-3.16071
7.86932
6.35246
-59.6103
-28.5844
10.0594
-1.0627
-83.1732
17.8839
9.49415
11.5946
-20.5327
16.2247
-39.7232
15.603
12.0755
-12.6587
16.6366
10.5079
-9.8508
2.13777
14.3135
-10.9759
-6.21356
-5.76014
17.5915
-22.3816
5.72232
9.19639
11.8502
-23.4019
0.814726
13.0757
-1.72026
9.8629
-13.6305
9.70644
5.28969
5.8135
2.22406
15.5801
9.80732
-27.5532
8.86519
10.7835
13.4223
2.13656
-0.78663
-17.1758
-11.3647
10.3169
-8.11315
-26.3558
-0.158443
-2.73359
-25.5181
9.43457
-14.9028
12.5293
3.87674
2.85983
4.69787
-7.49976
2.7665
-5.96564
14.6577
4.04278
14.1314
6.57571
7.41297
6.60753
8.90728
8.60041
8.92806
-4.67386
10.8719
10.761
11.7929
6.97951
10.3644
-3.09516
4.36198
11.6789
12.5143
1.46856
13.2153
10.176
2.26545
10.3209
22.0028
-0.760551
-15.6802
-2.14548
18.4146
5.26033
10.1486
7.93814
4.77502
-5.79392
17.5609
0.291277
0.106209
6.59365
34.228
4.58096
11.7872
5.27359
12.4407
-48.3687
12.0354
-41.4415
-40.3044
-46.4423
-44.2961
17.9622
-27.8345
-30.1525
6.85268
6.3142
8.80649
8.77088
9.25325
9.49152
-0.346221
12.5698
27.4999
-3.77614
1.93926
11.7886
-14.3615
10.7409
12.0082
3.95346
11.5693
11.5298
13.1148
4.71461
4.11656
10.7078
5.91339
-4.1859
-1.77912
-10.0133
15.211
16.2638
-5.62584
-9.54607
17.4892
19.1064
-10.2722
-18.7294
14.6325
-9.99585
-16.3979
3.45867
12.2011
12.5295
3.77415
5.089
9.67566
12.5469
11.9322
12.4406
10.9012
10.8418
-6.95157
-16.3784
12.8477
10.8465
10.826
9.64959
10.5017
-56.3337
11.0485
10.4586
-13.9972
11.2688
1.52875
11.2839
4.51796
6.50869
-19.0081
7.05139
9.2998
8.70402
-10.3232
5.48487
14.6398
2.89508
15.5752
1.23764
-16.9773
-0.0735686
0.0581263
3.43064
-38.3796
-35.0035
5.16354
5.04876
-24.1986
-1.48848
-6.86089
6.57753
9.3119
30.7749
-6.10421
8.10328
-3.60864
11.6675
-15.2544
-27.3089
-33.6524
-13.6484
-47.0049
-43.2118
30.2448
45.1766
3.524
-0.627162
-4.6389
13.8682
13.7192
9.30569
17.2385
-38.8127
37.7291
26.0806
-3.00353
4.48693
10.4763
2.79795
-5.49399
0.0287019
0.0118506
28.9428
2.39679
4.39567
0.535776
-4.63055
33.9944
34.4448
-0.791014
-0.0815579
-23.3022
-0.220879
9.28211
-2.04263
0.709003
-1.31718
2.93325
21.9758
21.2399
-2.76522
9.50612
-13.8525
41.1196
-18.3106
-9.06498
14.5561
-8.9224
1.34262
1.53227
11.7043
8.81418
-24.1385
5.65636
44.0074
-56.5344
12.4156
-2.59237
0.935634
-4.92542
11.6489
0.162928
20.6675
4.16421
0.734637
7.32424
5.84768
-3.89661
3.66734
16.6197
37.4576
8.99705
4.86077
-3.0228
-11.1337
-1.53622
-2.14712
19.7476
2.90311
0.053659
2.41371
3.8133
-0.171692
10.4987
-3.10353
-57.2557
13.035
-3.37673
-1.54282
-5.36725
0.416922
-23.3334
28.7683
-9.51585
10.4628
11.0722
0.488449
9.04615
15.6328
-2.8217
3.68637
-0.826165
-7.31058
6.78564
5.22714
12.0781
9.39672
-0.555029
-7.95647
15.3843
-18.0182
-1.78872
12.9855
-7.93362
-1.48098
-4.23263
11.0064
16.063
19.1394
-0.186318
-8.92632
-1.22412
1.90267
3.95834
4.03811
-55.7538
12.8106
38.3132
4.51393
11.4726
11.0396
13.1067
11.0088
-2.46136
-21.1553
-2.79424
-2.18275
-1.37044
9.01911
12.8565
11.095
4.82818
8.29682
10.3746
5.83074
-3.32325
-1.17154
-1.1158
0.283262
-0.216109
0.297021
3.60594
-2.66599
3.14631
-10.8076
2.44316
-7.8067
8.07238
27.9802
-0.398401
-0.313106
-36.5482
-3.71129
-29.9891
-4.24249
-27.5764
-1.93695
-59.5927
-44.5102
12.551
8.63687
13.3543
-0.449653
14.0704
-2.95281
24.5295
14.17
-1.94519
-15.7726
-1.65924
-4.67908
12.4984
-13.2061
-8.17425
-6.96014
9.16829
26.1119
7.89817
-3.93233
-3.80142
4.80156
-4.75082
9.99436
14.5085
6.07307
-2.09828
-3.73328
18.8871
0.786102
11.2302
5.96292
-3.40243
-1.70359
12.1525
6.3312
8.90143
21.8738
4.40564
1.57115
10.3587
10.9565
4.87935
3.55177
10.3642
1.54583
-3.05724
-5.26956
16.4201
6.2144
-0.927165
12.7708
7.53108
-2.27577
6.36242
-4.32506
-2.16717
12.4151
20.5247
-0.682052
-20.1853
-8.60678
23.8388
4.0425
-2.981
8.95035
-2.04703
-12.2786
15.4178
18.0424
4.86787
18.6266
0.697183
6.62375
18.2613
3.97395
6.78629
19.1648
-21.7506
47.5439
-8.51086
-7.55322
-15.8823
-15.1754
-22.6102
-22.8116
-24.9374
10.903
10.7571
-20.9449
11.1817
8.61946
7.9212
6.92185
-33.8389
-11.3765
-35.9783
-47.3167
-19.2392
7.53929
5.95684
6.77482
7.66136
-19.9431
-0.376241
-7.07746
-8.19416
13.1722
6.7299
6.57669
7.77085
8.01962
-20.3015
6.63452
-22.4413
-31.4475
15.7378
15.1649
10.601
-2.73684
-4.77381
-7.622
3.04151
2.5051
-0.0276234
-0.595936
10.4386
-3.2814
16.2096
8.00211
-21.781
11.2231
-15.7419
-23.9617
-2.05662
-10.3738
-14.2204
17.1965
3.26173
-0.852076
-1.67962
-0.687998
-1.66136
15.6403
17.5007
11.9274
-1.72956
-1.45216
21.4923
15.8207
11.7034
7.81506
-1.20791
-0.167233
9.34471
6.2539
0.737907
6.05658
2.53278
-12.5602
10.1466
3.02901
-4.39828
23.873
0.851492
-23.5612
2.42304
-27.6728
-25.5483
-33.2467
-1.74821
32.2393
16.3207
6.33972
11.4494
-2.36585
-8.04314
-1.62537
8.65766
-3.22507
-2.38632
9.12113
-1.16333
-1.43518
-1.08071
-3.05794
-5.90826
-4.43806
3.9895
4.24475
3.25521
4.51925
25.9397
-20.2908
-53.0147
-31.7991
20.7975
-20.0623
-0.660733
-0.547098
1.50231
15.3627
-0.466509
-0.417636
-0.222972
-0.546805
20.2265
29.2746
28.9233
8.92411
33.5335
-2.08963
-3.29716
9.03146
-5.69867
6.26773
5.24196
6.15956
5.82399
10.4759
10.9551
10.3843
11.3672
7.37977
8.09128
8.89623
6.86241
-1.17726
0.39402
6.05834
6.84733
10.7881
17.3492
17.1081
11.5213
-11.121
-16.1251
9.73733
5.43963
12.3979
12.288
12.9233
12.8913
24.8579
21.8567
12.1657
12.1406
-4.74675
5.68717
-35.18
-5.98317
-6.60141
2.84219
-10.2068
-43.8935
-49.1201
0.127996
0.520453
1.8507
1.69412
2.46858
26.7548
33.1054
30.2865
5.66215
33.6447
2.28282
-1.08261
-3.28936
-0.573604
-5.57394
-4.36483
5.09354
8.98637
8.82084
8.37426
9.13151
7.80175
7.88677
10.9413
4.09806
12.2513
13.4664
16.5231
-8.13281
-6.24201
1.42592
0.81558
13.0065
1.9044
13.4198
12.6254
13.1093
-23.0465
13.3984
13.9612
14.049
-3.7378
16.3613
5.27995
15.0047
13.6687
10.9622
-1.76852
13.3649
7.57011
13.8222
-11.0446
6.98539
15.4576
13.2289
11.4834
-4.01534
-0.967821
0.882713
8.84054
-44.3002
4.59475
10.7018
9.22279
10.28
5.69482
10.4484
14.3229
3.49269
-2.01457
5.73202
8.91869
14.2279
4.69338
1.94554
-1.26572
8.08429
8.78967
7.33117
7.84304
6.13109
5.88565
7.60434
6.92371
10.9515
11.6004
2.88149
-1.72749
-4.86
-2.17088
1.89256
17.1465
9.94005
1.89624
10.4516
-2.37981
9.98675
0.203449
9.87216
15.4615
18.1285
12.2899
-3.2255
-13.204
-50.464
-24.1885
32.5495
-45.9392
18.4067
20.3356
-1.77369
12.6765
3.72085
12.112
9.20507
-6.01077
-0.197043
-2.89387
13.6812
6.90544
9.07796
12.4867
7.72984
2.86926
-0.11177
-12.2291
-0.452536
-0.219652
-2.43091
-6.30851
-17.9305
-13.9153
7.34665
-15.0315
9.54586
2.43282
13.2255
-21.4198
7.54934
12.1991
4.44066
4.35402
5.83632
-16.8639
0.723738
-0.197137
12.0749
0.759088
0.836219
11.5529
14.0402
11.7235
20.1131
0.304213
-34.7811
8.94611
15.1755
2.68752
9.57243
9.59068
14.5021
16.2073
12.3173
12.5233
10.0394
24.5197
14.8772
13.1995
7.54956
10.3922
-19.4962
5.3061
-3.30127
-17.7939
-11.0004
16.1638
8.97732
-2.04866
7.94891
2.75637
-1.62219
-18.2257
-12.6781
9.09584
-27.6061
-13.7998
-49.8284
45.7729
-2.09871
-1.80797
7.32191
5.73594
2.19543
19.2506
-6.92386
-29.678
-28.7423
-17.6545
-4.80385
-1.81807
20.6046
12.5551
9.50585
-20.0638
14.5513
32.9476
14.8592
14.9619
10.388
11.3723
14.6398
2.39153
-2.9677
1.76943
6.95987
-36.466
-5.66065
-4.51518
1.07152
1.45999
3.08477
3.29119
18.2316
8.35873
8.21252
9.85394
10.6392
4.9986
7.88813
8.23181
10.302
-23.367
-49.6837
12.762
-0.427421
-0.343037
0.332565
10.693
3.38254
8.87571
11.4012
-25.3168
10.1668
-39.9459
44.3858
2.69924
-16.9129
0.14839
0.150409
-0.206567
-0.394958
0.125875
-0.156962
0.959513
13.6045
1.28495
0.547262
-0.60274
-16.2422
13.1696
9.34912
0.688313
0.437329
-15.1412
9.79446
5.4548
13.2398
12.4843
13.0894
21.6829
2.22236
13.1606
0.775745
4.57625
10.5743
25.0073
0.575795
10.6654
13.8721
10.3415
11.7322
12.8715
22.1186
13.1125
5.59423
-2.05616
13.8385
2.00759
13.3438
12.4091
0.150713
30.9972
-50.7671
12.2671
10.8025
6.111
3.55942
10.2553
11.5583
-3.03175
11.9401
-7.09854
5.5933
10.9408
11.5408
9.22763
-9.09663
-2.48211
14.444
9.50098
13.0097
4.4928
-2.99529
-0.148403
-4.39127
19.1226
-6.70867
-42.2757
-1.61082
4.03936
5.20516
10.241
21.9345
11.2407
-31.8174
-4.74367
12.1307
34.3507
11.8534
-5.72005
-1.73918
5.91465
0.118629
-12.7528
5.57099
2.80852
4.52434
-56.5345
11.3733
-3.94512
34.5666
-51.4532
-4.91526
-21.6828
12.8179
-32.8794
-50.2173
12.7641
11.0114
0.576286
1.41058
18.6857
8.63278
-3.57993
-19.8772
16.7026
11.2721
6.03035
21.0163
-40.9535
-3.88238
7.19885
9.29996
-6.31996
-10.9035
-1.20066
-123.874
-13.6994
-59.2244
-44.4906
-1.28054
-12.6016
-12.6001
4.07806
4.75724
-15.3512
0.32411
1.74447
-4.70996
-2.41264
-3.62409
-2.36464
2.90383
-3.4281
6.13892
8.24743
-0.641198
9.44241
-2.02674
-5.58817
-1.9959
7.13253
-2.89653
-2.11085
-8.94303
4.69609
4.56964
6.66197
-3.62398
-2.93682
-2.88899
0.16953
-6.46021
8.16373
-3.63262
-1.83879
1.41304
2.88409
-4.97998
-2.29782
-12.3065
-15.3431
13.0441
13.1754
5.81758
5.16158
4.7586
3.3368
13.2983
12.4174
-0.291855
0.0725966
-1.02473
-4.28198
-2.36124
-2.89893
12.0947
-37.1454
13.3271
-5.24639
-7.08219
-6.18192
-4.64995
-4.29705
23.3923
3.92013
21.7357
-6.13663
11.3801
15.168
0.525963
2.01726
2.50524
0.0756219
-4.66671
-3.91741
17.584
0.724378
5.85388
2.54182
-100.348
-47.7017
12.2989
2.34323
1.57717
11.4958
-2.24745
-4.8574
-32.3566
12.6451
42.206
3.41162
11.3382
16.9982
11.6628
12.7034
14.9622
16.1372
-2.20522
-0.279118
-2.47977
17.7226
12.4996
15.9989
13.9818
16.1579
11.6662
12.8873
10.3086
-19.431
17.1869
21.0642
-2.87431
-6.2884
-0.365894
3.59098
-62.5005
-1.97723
9.67797
4.35298
14.3951
11.7287
13.1636
26.5287
5.23567
-16.0231
-1.94979
25.4608
-2.58308
22.2406
0.667141
31.2894
12.3197
27.8951
15.7966
8.90291
11.0504
11.6544
7.76698
14.2076
12.663
8.50291
3.34046
-3.94226
6.07367
12.0873
15.1714
14.1728
9.97144
5.70107
-0.473074
3.6675
4.26485
24.2085
46.4958
23.3259
21.2222
-11.8877
-10.1566
-13.4244
-13.9868
-7.16558
-8.0788
3.40631
17.4829
-8.6222
10.1502
8.1617
12.2988
24.7124
12.8434
29.9694
-14.8793
-45.2114
-2.37501
-33.283
-14.875
-30.9668
-0.899203
8.36834
-0.26758
40.5609
14.0694
14.0089
22.3267
-1.23134
19.067
-25.7579
8.2075
14.6232
7.836
6.83316
3.01518
21.1
-0.0387151
2.42582
-1.77362
-12.496
-4.25876
-5.2879
-0.28188
-1.35124
5.48095
5.11141
1.89305
1.58559
-0.361784
-5.83263
-4.92763
-0.183709
-0.192553
10.712
13.4648
14.0543
15.8892
10.9607
11.4797
19.4251
20.2227
1.91782
2.39617
6.97306
9.32242
8.63288
7.97137
-0.187906
-0.260554
8.97986
12.9556
9.62471
8.19068
13.7621
13.9481
14.9919
15.8669
13.0977
14.2669
14.6335
15.0051
9.19089
11.7423
12.2101
11.6365
18.7053
14.9576
15.4324
16.2503
14.4057
14.8921
17.736
11.6593
-20.6461
-21.522
-3.80484
-14.1904
-0.994319
0.273053
-18.0881
-0.474378
-4.12932
-0.303341
-24.5422
-58.2207
11.221
11.8212
8.91694
6.47312
9.76373
8.67926
13.7444
8.1805
7.80772
3.04582
2.46439
2.97853
2.77104
2.00453
3.18806
1.30407
0.577778
0.40453
10.0022
6.5508
-3.94211
8.28689
3.97923
10.6123
8.86953
-2.15207
-0.454224
-2.72755
-4.29005
4.88639
26.115
12.7101
12.4116
8.38654
2.82689
18.3375
5.04896
12.7128
11.1152
9.53506
8.68694
9.5078
9.65205
9.26202
9.15367
12.7665
12.6632
11.9414
14.546
13.554
13.0002
23.1091
16.4613
12.4299
28.104
-6.53618
-9.42515
4.69405
10.1265
7.77989
-10.4266
13.9549
9.63043
3.75622
0.176422
-3.91141
-1.13384
13.2398
11.6883
11.7567
11.3418
10.3754
9.40385
12.578
-1.16321
12.7371
2.71937
0.670137
3.55056
3.50808
8.37114
7.11037
9.1953
3.14634
6.75722
10.649
10.8529
12.8014
16.4525
9.29735
15.8762
11.457
12.6378
-30.6123
-15.7579
4.09533
4.36203
2.64195
3.32443
7.31187
-33.1129
4.77145
-30.3906
5.46139
34.4373
-33.065
7.55131
15.4966
22.0444
7.64398
-41.616
-9.60773
8.53094
39.567
-13.5383
58.478
56.8314
-68.7442
12.7559
38.1027
47.2849
32.3649
12.0035
41.2884
7.41532
-0.102924
5.46798
4.99901
5.50154
6.99671
2.31695
13.8558
18.1496
11.9001
-0.0803991
0.541376
22.9367
-48.3787
20.6685
-0.518066
3.0619
2.92449
3.97201
15.3031
13.4266
9.91597
6.7028
5.65767
6.87388
10.1405
7.85484
6.34083
-57.5597
13.8874
17.8404
18.9507
19.0124
12.8293
7.06239
8.17103
19.8881
16.1302
9.94318
6.0103
13.1802
10.6775
7.70817
8.63671
14.6906
12.6966
3.79626
-0.205985
-0.286786
1.05451
9.80344
12.4387
16.4423
12.4343
-1.97911
4.72142
-2.26207
-4.4526
1.68981
5.22403
14.5045
9.85159
33.8134
2.01801
1.13942
0.0364896
-3.76301
-8.60678
-3.52395
-4.98298
-3.05921
1.18991
0.538537
-1.78666
0.393032
0.153409
4.08905
-3.32103
-1.67912
-101.14
14.9406
11.1993
9.89792
14.5546
-1.6764
5.86817
24.4452
2.93038
4.62272
23.8213
6.45415
4.56478
15.1204
13.6124
9.50046
10.4506
-57.0519
-0.533916
-1.61839
-19.485
-2.63443
-10.7577
2.29696
-9.59833
-2.63309
-1.74716
-0.600686
-3.28621
-172.866
-0.937915
0.45117
0.586434
0.714526
0.363349
7.61686
8.88972
8.40758
0.797709
0.426301
0.769438
12.8223
12.3578
12.7336
-1.80229
2.15379
-2.47819
-3.73746
6.07079
6.70802
5.58754
9.16336
6.95385
8.49139
4.54383
8.05857
15.0214
11.3213
11.951
12.1283
12.9449
10.9156
-0.998175
-0.575263
11.685
11.853
5.2074
4.0287
9.71696
11.2133
6.37471
13.5875
13.7459
-57.7878
11.48
-62.4942
-60.078
9.84808
11.6957
11.811
11.3215
11.3017
12.5927
-1.43059
0.675161
-57.8014
4.65133
-26.4304
4.17334
12.319
10.9437
26.6088
19.2503
-2.60302
24.747
-49.2622
34.6207
50.4551
-38.5254
0.46008
-1.80763
-0.970681
10.182
5.42671
15.5598
8.86336
7.94338
-5.42197
-0.545198
-0.528686
-8.02598
-0.275033
-1.13595
-23.8821
8.89602
-0.46902
-2.64496
-12.1193
3.94828
15.0225
20.5743
1.18138
1.19456
1.15116
-0.0997837
3.60745
0.986495
-1.08897
2.44755
-7.15332
0.66343
4.2892
-4.64106
0.987287
0.773719
1.24543
1.10995
4.29166
-56.0154
-32.2101
-4.86768
-7.21909
4.02734
-25.3885
-62.0964
2.94295
4.14854
4.7105
3.01215
-19.2424
10.5796
3.44638
-3.31747
3.98017
-5.27286
5.39394
4.4185
4.06536
-13.2792
-0.678115
-2.07473
0.309449
1.59932
2.40658
-6.79329
9.38972
0.901409
4.58099
9.27889
9.47126
0.642472
5.5495
7.19227
-5.71306
9.3676
-14.0878
27.3422
-2.36159
3.50707
12.2029
5.61142
4.35352
13.0216
6.73741
2.87309
10.767
0.485514
18.208
-41.2675
7.94697
10.6629
-30.6324
1.34656
-0.909325
3.643
2.78952
3.5356
3.00908
-32.1276
9.78691
0.30695
10.059
10.0324
9.69996
-0.136815
-7.37472
6.858
-2.56235
9.07863
-1.42654
-6.2369
-0.94836
-4.22245
-6.14505
-3.43415
-2.28002
19.8825
-1.50296
-7.86149
-2.56927
-11.6372
-5.07534
-23.7684
-2.36574
-1.65917
-2.16856
-11.8469
-5.13314
-2.97061
-3.05844
16.2941
-21.3976
-16.5158
-18.2998
-16.0304
-4.71393
-15.2274
-10.0489
-8.29104
12.9372
20.084
26.0742
11.9361
12.062
9.36039
12.2543
11.6154
-1.27322
8.5473
5.53306
-0.82024
5.36901
12.2661
10.205
15.9648
-1.47696
-2.639
-1.94769
-2.07276
0.597978
6.73572
3.14801
12.847
4.63563
4.1579
-11.3919
3.06952
-9.74024
2.23302
10.4455
9.04511
-9.09242
-0.35311
3.05048
2.43707
5.55801
14.9086
1.94633
8.23342
-3.08868
14.4336
16.4869
15.2336
10.7527
-3.83449
-5.01896
-3.522
1.79958
-4.70403
6.26622
18.6212
9.90518
1.99049
5.0615
-0.534813
14.1471
8.18199
2.41359
9.93139
6.34178
8.40858
4.14955
15.5452
12.2163
1.80055
5.85678
3.70852
13.0531
1.23524
7.04008
-10.7197
-4.69963
0.431143
5.41051
3.59436
8.73585
11.554
12.0461
13.5899
-35.1115
17.6254
12.4195
-46.4256
11.166
12.2879
34.7445
37.6378
25.6928
13.7814
13.7813
9.88261
9.55605
13.515
16.0899
8.04175
6.58901
12.0545
24.4634
18.6428
-7.47643
-0.236036
-1.8258
8.47378
-2.9788
-2.76097
5.02355
14.0901
9.84564
15.9214
-38.5037
-27.6725
-26.1512
-21.1281
-31.2774
21.2341
16.2782
-36.0097
1.45241
0.561158
1.57004
13.0639
-0.270747
25.9121
26.2459
17.8692
0.039968
2.88013
5.24966
-3.53392
-8.02787
-11.4294
-8.32918
-17.6233
-1.14065
-25.9274
-11.3798
8.99204
12.7394
15.2518
-25.1143
-1.37133
-4.06312
-9.31333
6.77821
3.74136
1.76823
7.48338
8.02405
18.1307
16.2688
13.0767
14.398
11.7225
10.2742
13.5566
13.4858
13.6487
9.67221
8.95581
9.58674
5.60964
0.875276
8.30578
9.00106
1.05468
1.34221
2.27311
-0.375247
0.996645
-0.821776
3.10588
10.7602
10.4197
10.3688
1.78932
28.9497
10.4491
12.1777
10.2376
11.8775
7.30418
-0.82557
9.00335
11.2627
14.3739
11.5771
10.6672
10.8253
3.27647
-4.18286
13.4407
-1.48292
-7.63578
0.304061
33.3089
-18.349
1.55365
32.9258
-48.4351
-41.9322
5.812
5.5816
4.17372
-58.2877
3.80611
5.71067
1.90825
3.07157
3.38837
24.7857
22.4109
14.9586
12.8077
14.6145
16.8032
14.6767
18.4478
12.0853
19.3531
10.6845
-9.66585
-4.57361
10.3799
17.7052
17.038
15.1457
21.1756
-34.7052
-150.435
25.7147
-9.24663
-151.287
22.4294
22.4624
25.7035
14.2318
32.9928
-58.0072
2.01937
1.0085
-1.20633
-0.0396784
-0.0882085
0.629563
1.47283
2.10164
0.206669
-2.38725
-2.29674
3.58299
3.30437
11.2798
18.425
18.6051
9.55297
7.55315
8.41863
8.23416
12.5596
6.6291
5.90669
9.28466
5.31499
6.04273
7.35597
8.54388
13.8948
10.5718
13.065
11.3826
9.60785
12.1514
12.0176
-0.214151
13.3989
12.5408
1.74766
2.63831
13.9517
12.3474
13.9453
12.8535
14.9946
10.325
7.80346
9.80492
9.99131
-0.665894
-0.279094
-3.2457
-1.32986
-1.27191
0.691995
1.15126
3.48991
-1.62449
-3.23004
2.35993
2.08603
5.42085
9.0468
-4.2467
-5.04668
9.1269
0.984539
-29.7421
22.7261
8.81652
13.5912
13.5733
11.6605
-1.96938
-2.07011
13.2486
-3.04608
3.61713
6.40355
-3.8563
6.19582
-1.94902
10.0223
8.53981
11.5535
10.9766
6.42685
11.4693
11.6834
7.70391
9.64257
3.38799
6.94563
14.4111
12.3664
10.6194
8.70231
-4.53927
7.46396
6.41554
3.98262
7.63732
6.4246
2.67719
2.10024
2.45004
1.63188
2.79279
1.58714
3.16464
2.68851
1.00675
-2.82594
-2.78304
1.6681
3.13835
2.93699
-1.04122
1.66748
9.85902
1.81877
-11.2744
-1.39408
-6.32329
0.0170246
-5.497
-14.9574
-3.01575
17.4794
10.0077
12.5252
10.2225
10.9579
3.32703
11.7288
14.1345
11.7514
10.9177
15.1687
21.409
12.3263
12.7063
14.4643
11.7878
23.2556
5.16958
2.98557
6.31437
13.1633
13.0794
15.249
-1.36172
-3.74014
-3.26302
-2.1901
-0.900767
1.85803
-0.201884
-0.186829
23.597
10.9553
-10.2011
-57.7936
12.7621
11.5099
9.82024
15.2741
11.5609
9.09014
-7.96656
15.2557
28.8637
14.0561
30.5684
13.0903
4.34662
46.4213
41.3104
16.4901
45.0046
12.8001
12.9963
9.0414
-71.6344
-33.46
-44.1645
13.9346
16.2557
-48.8142
-58.5304
16.9388
15.7315
23.1569
-14.3529
-3.81756
12.4965
12.6832
-6.11033
-1.53057
12.8661
5.4861
37.5517
-2.88478
-6.17839
13.8302
10.0912
9.33777
10.0479
11.0175
13.4366
6.47356
1.39495
8.67186
10.1687
9.64185
1.38008
1.5375
6.13396
2.72486
9.98612
6.3631
-2.03558
0.0277386
20.8684
10.6555
15.9251
-3.78009
0.104104
-1.18186
-1.88648
-4.29999
-61.0047
5.00622
21.7047
-3.28387
1.39715
3.93636
2.9159
5.42292
6.51084
-5.029
1.65758
-9.30248
5.59153
2.20073
7.89531
0.241835
4.68917
6.69815
1.78793
2.87786
-0.903347
2.64492
6.67868
-3.65082
-21.1989
-5.99576
-5.00663
-1.62941
6.0777
-22.5169
3.8092
5.54094
15.8526
7.11145
14.2523
-8.216
3.38384
6.22907
-1.85273
5.51954
-6.00952
1.87122
20.8879
15.7491
-4.051
8.28135
-41.6651
-2.19985
-12.0591
-1.92155
-4.12557
-1.59893
0.546156
-26.0137
-15.2487
-4.25229
-5.25679
-0.455873
-7.35849
-1.59544
-2.40403
-2.58207
-2.29565
-8.30568
-1.08242
-2.02678
-23.8898
-3.27831
-6.6222
-5.69102
-0.282131
-0.932409
-0.529703
0.000488146
-3.70447
-2.01143
-2.46473
-2.42037
-3.01129
-3.58541
-4.33826
-3.05081
-0.718069
-2.52284
-2.06119
-1.12665
55.7807
-4.32611
-3.07724
-2.13528
-2.0743
-2.65441
53.674
-1.61834
49.4347
-1.70955
-2.08838
-0.529148
-0.23618
-0.572385
35.7453
19.1462
-0.514402
-4.49642
-13.3609
-2.42345
12.5027
9.56605
3.56452
-2.18321
7.49993
3.74315
16.3437
6.73833
6.20611
11.2406
-0.206063
-1.05405
0.16693
-1.05997
-1.40949
-1.53525
-2.09579
6.86189
-0.81508
-1.38267
7.60124
17.2198
12.8475
15.0835
15.4633
18.1055
26.5863
-8.63918
-17.7274
-10.3277
-9.65168
-16.4174
11.225
12.4101
-13.9076
10.5035
12.4137
-9.46738
5.88193
-35.3222
5.89985
5.31271
-0.201733
0.121128
-30.249
22.3857
-27.0959
-18.4134
3.76245
-21.9102
4.1177
22.0031
37.8007
9.51778
-0.745288
7.81369
7.08848
0.749471
10.1948
9.56448
6.1594
13.6722
3.48554
13.2534
14.4719
1.44058
11.8581
3.91198
7.86402
-35.4578
-1.09885
2.61251
8.25285
3.12945
5.2452
4.56086
9.18422
1.98044
2.98201
-1.93879
34.5997
24.217
15.942
15.871
44.8848
-25.1696
11.481
-7.20433
-7.28921
2.74122
-9.19247
-0.346554
2.21829
8.73846
7.07477
0.233815
3.90703
24.5183
1.48031
3.58595
3.82784
10.6212
8.11288
17.6172
11.5648
9.44798
32.3954
13.8422
14.896
11.5361
14.8676
11.0274
10.4786
40.7188
22.35
13.7445
-7.22376
16.0308
30.1567
-1.67438
18.6576
10.5642
19.3862
31.2334
-8.60571
-3.71029
-4.02802
-7.46328
39.8241
-175.33
21.6945
7.2356
-6.50394
46.9591
12.8073
6.66697
12.532
13.0758
12.5544
33.2834
14.5182
4.90688
5.6795
9.94314
10.7161
9.30628
-1.62358
1.7139
-0.798237
2.51451
-12.7131
2.15793
-36.8475
27.2388
-40.5507
22.2513
1.34054
-2.53306
-15.462
-10.2293
-68.2493
-8.82339
-12.1668
-19.1978
-42.7917
31.8568
-40.0272
-37.5096
-2.41849
28.5934
-1.87374
-27.04
20.1543
-2.49982
-2.65075
2.66705
-0.927692
20.9604
-2.56822
-18.7048
-0.173721
-5.54965
-3.91026
-28.5811
23.6903
-28.2083
-18.5422
17.9974
-43.8282
-13.3758
11.7337
-2.90672
22.8284
11.7185
9.57053
14.1032
13.9814
25.3982
24.4512
13.1973
30.6832
27.4706
34.3174
9.28506
-11.4097
15.8158
23.746
20.634
24.0607
9.01101
9.71573
-24.9813
-40.2734
28.0428
26.8424
19.6695
0.966217
3.46307
24.874
4.19476
6.13874
6.01527
2.69738
0.299548
11.9258
7.65438
19.811
9.7299
11.0713
10.3541
8.07406
-9.4422
-12.8275
14.0174
14.5118
-3.25511
-1.52855
-0.188754
-0.422682
3.41483
-0.20276
-0.171132
8.162
1.85197
4.97619
6.04779
3.59086
12.7761
-3.31916
-18.0171
10.5617
12.7313
12.5671
12.2726
0.942298
4.74185
7.72388
-0.27751
1.51836
4.97525
0.375351
10.6141
11.436
11.1686
9.66126
10.2072
9.43971
10.9993
3.37131
3.5624
11.3452
9.31236
-0.885117
4.73241
2.57294
9.04835
2.79978
5.82417
8.44805
8.9205
9.19271
9.53365
8.40671
8.80049
6.12987
11.9308
9.24619
11.3052
14.6497
12.3204
11.3157
13.5922
13.5759
6.99389
9.86824
10.4121
9.00511
11.3438
6.90472
1.85293
8.13015
3.10504
6.27827
-0.070958
-0.463361
-0.800021
2.62524
-0.5473
1.74293
15.8537
1.69671
21.6339
47.4982
32.9291
40.3533
0.863764
5.7371
4.24417
0.703464
7.6689
1.83821
3.75089
3.5673
15.0306
14.7822
-0.365675
1.01341
20.1896
2.80973
6.08291
8.38882
13.0275
5.0853
-1.36237
4.44071
4.63644
6.20395
4.5806
10.9811
8.94834
9.91982
13.7629
0.0711808
2.00074
-0.196148
4.91908
8.13206
-11.581
-19.4929
-20.0839
-42.493
7.54722
32.4141
29.9761
-40.3149
11.3554
3.31472
23.7523
-80.0957
20.1792
18.6055
25.1949
-9.71768
17.0822
12.6328
12.0868
-58.918
6.84953
6.13522
-57.3995
5.97578
-47.2997
11.3721
10.7417
13.7861
12.4028
14.2481
11.871
11.8599
12.952
10.6067
10.2862
13.1636
10.7772
10.0511
11.085
11.4345
11.4287
8.17494
9.26968
6.65732
13.365
4.12733
7.73739
7.1272
5.46737
-0.301028
1.07631
-0.954092
0.129467
10.655
12.4957
9.30179
5.55439
11.796
16.06
12.4965
7.97891
10.1927
-1.51719
-0.228794
6.98004
6.14723
7.55049
9.02167
8.15994
14.0024
-0.652691
-2.46443
13.5272
12.1214
12.1972
12.5415
11.0302
12.8481
10.8709
12.3487
16.8261
12.6746
22.2311
20.0503
-1.21292
1.72269
1.75028
-1.10579
2.52461
10.5893
8.74234
10.1031
13.2469
11.8611
0.460173
-43.6012
4.49144
7.65964
-21.4998
10.2918
-4.62476
10.2034
7.20389
7.14446
8.22531
10.1805
16.4147
10.1161
8.99293
16.8343
7.11849
9.55092
12.4697
17.9429
13.3585
13.3317
-7.01498
-6.71286
9.31679
-22.4285
-16.3678
-23.1932
-3.68096
12.1045
7.7669
-42.0571
-0.15814
-5.56998
0.301819
4.53289
4.01409
-13.951
14.2787
26.498
2.37078
9.35665
2.42828
15.0472
12.1671
10.322
12.6208
13.329
8.38681
-48.8194
2.05962
51.7482
21.9457
15.843
30.7961
19.6885
18.3535
23.1483
27.6504
21.2547
13.7555
-48.0987
-0.999477
1.43698
-2.49201
4.72689
-2.95299
-0.792893
-60.6742
-53.6129
-60.6281
36.9547
-24.4645
-59.0448
-20.7104
-4.785
-0.823729
-40.6298
1.37388
3.80901
3.94787
1.24433
2.66434
3.85293
3.37242
0.593364
1.94816
1.98449
15.6307
-2.96473
-2.72055
0.371126
3.03592
9.89273
1.71946
13.0374
-6.07139
0.397969
-22.5429
-9.77024
-13.0442
0.260327
-1.50951
-2.44217
0.321174
13.7049
-1.12914
1.05243
10.9654
13.169
9.19169
6.88501
2.21795
0.0304412
1.16008
27.1611
12.6283
9.64319
15.7382
13.1515
6.15286
16.2672
12.0925
10.619
7.79386
-53.2334
-6.49785
8.49248
11.8832
12.2397
11.1129
10.4407
8.12313
7.46342
19.3546
14.5726
11.1557
-9.94568
7.30754
14.7982
4.30668
21.5168
-13.6549
0.0758519
-6.94147
11.6811
6.0856
10.3695
-3.83658
-7.35166
-1.12649
-3.14744
-1.1314
-23.8278
-5.33061
-2.75211
-19.2463
-1.54991
-114.779
-47.0313
-31.63
13.2394
-1.39468
-0.42187
-1.86705
-4.47137
-0.689339
-4.43269
1.3934
-4.63879
-10.7977
-11.34
-2.92821
-16.4322
-0.565702
-5.21035
-0.742771
-7.81574
-12.7559
-44.9151
9.2757
4.83355
14.9375
27.1691
-26.6138
4.03928
-5.53934
-11.4186
-2.24756
-0.159404
-3.51156
-21.6531
2.54882
-4.32521
-4.12109
-1.78581
4.99695
18.1295
1.30073
11.8619
12.4051
-16.0788
-5.60018
-16.1176
-38.1532
-13.0112
-4.00183
-7.04129
12.8883
-1.74193
-2.10255
-1.05496
-7.57536
13.0958
-2.74019
-0.289788
15.4255
10.0749
14.6435
-1.63592
-2.03269
-1.56236
16.4047
14.1168
6.71486
11.8766
8.80342
12.4488
13.9185
19.1009
10.6265
12.1531
11.0325
7.74084
6.69558
6.07763
10.2031
27.4164
11.7344
8.54773
9.89158
11.3423
8.95424
11.5384
8.22509
6.69256
17.3557
11.4644
15.6929
3.79725
7.02104
3.96836
1.49655
2.70408
10.3598
5.73449
-2.85038
12.3782
12.6708
22.1364
0.322797
0.296065
-9.32474
2.24793
15.0524
15.75
6.74031
28.1206
46.61
14.38
1.82105
-1.12202
3.49806
0.107952
2.72795
12.3435
10.5143
20.6184
-0.775071
-0.615174
17.0447
-0.699313
-8.82765
-52.2048
9.74941
5.96856
9.32113
9.20068
11.5356
12.7485
10.2198
11.6016
10.7673
4.35787
4.39014
4.94842
8.29874
-0.398289
16.8081
-5.06706
-1.6141
1.67811
0.595932
-0.196048
0.0327129
-1.18253
-12.5875
3.62173
-0.168561
0.874473
3.87518
-1.50946
0.189956
20.486
11.4018
17.0287
-24.2125
-0.447239
0.0138934
-79.8089
14.6997
13.6976
17.0725
-8.8252
11.3361
20.3139
-15.4459
-14.994
4.64126
1.52143
9.46292
-60.9033
11.2771
9.56827
11.5644
10.8154
13.0166
-20.8689
17.9421
10.1772
2.36295
4.95158
-52.5243
4.94546
16.6352
18.3856
6.03464
45.9357
46.1404
39.748
11.6837
-3.26978
47.0859
-33.3968
-37.6369
-32.3417
-25.0046
-4.96852
-2.12022
-5.77868
-6.52007
0.138378
1.42062
1.19243
1.68403
-42.1161
-2.34742
-12.1429
-2.31149
-0.444124
8.20178
15.2848
-2.44054
-3.0941
5.70643
-3.52306
5.658
13.6643
13.8237
14.0727
14.905
1.9083
3.91388
4.92923
15.733
14.5901
9.64554
10.2568
14.2939
12.4403
-1.29305
-0.0855915
10.9903
-0.172338
0.177321
-15.9819
-18.9883
-3.07509
-2.76569
-2.25701
-1.11881
1.28502
-25.4328
-0.0602748
-5.54657
-13.5096
-27.3882
-46.052
-53.8519
-45.6417
-10.5148
-1.25333
-8.96537
-1.23554
-2.53455
-1.1828
-22.0068
28.0551
-1.51463
-3.00068
49.9371
-1.42525
11.2305
-2.60587
-2.2777
-2.81469
-4.2628
-5.02682
11.678
10.434
8.63288
9.77515
4.19717
1.71873
1.24853
3.4556
15.4617
15.5075
13.5255
15.3456
39.6592
11.6319
37.2441
-4.76401
11.1552
-3.08481
-4.29886
-4.5184
14.5423
11.6421
10.1657
11.1691
11.134
13.0259
13.4888
14.0847
11.9964
12.0646
12.0232
11.5942
11.8356
6.90138
9.47625
0.364846
14.0404
10.8548
13.7135
10.8967
1.2537
0.862336
0.316917
2.1325
0.671454
7.82314
0.0200056
8.41417
9.95001
6.07028
5.03624
7.94741
6.05354
2.6543
7.13868
4.63459
3.62383
5.08442
9.6892
7.36759
0.0700453
12.4482
12.6427
12.0304
12.0261
9.81114
13.947
12.8801
12.4733
3.24421
1.82402
2.76772
0.176518
1.74707
-1.71531
10.259
0.532075
-0.128216
0.0711937
-0.354387
0.105362
0.146025
-0.00248165
6.35908
6.20631
5.00902
4.64698
4.42755
-107.945
-2.71301
10.3634
-19.6696
37.7021
0.545415
0.940035
2.6308
-36.4853
3.2545
2.07245
11.611
-7.9849
12.3166
11.7073
10.2874
10.1941
-4.60982
17.9983
13.7353
11.8467
14.1352
12.5222
12.1538
8.66732
9.37398
8.97391
10.8678
8.43186
0.945312
12.7249
2.19606
-13.2552
10.6426
10.0962
10.7462
10.7783
13.3752
8.75166
1.36997
1.08394
1.27527
-10.4194
-5.09643
0.914882
1.28466
0.995106
-10.5954
13.7957
19.7951
10.8985
11.2588
10.8778
1.49443
6.27031
-4.61495
-9.58684
5.72672
5.84932
10.0998
10.8142
9.69654
-58.1901
8.19313
4.93878
9.99908
14.6945
10.877
10.1831
10.8968
10.3812
10.3606
-63.5697
1.63545
4.91347
11.0506
9.44632
10.2281
5.60344
1.2791
1.60481
2.66471
1.45133
3.82015
3.2082
1.36996
4.6148
1.21897
-5.32192
-1.00461
-3.15311
0.391527
2.10648
0.795991
3.73824
4.75166
-0.669252
-3.86706
-1.29862
-8.65101
-3.82187
0.0554366
7.57124
-4.20079
12.2581
11.7107
19.4683
12.8213
17.0696
11.3416
13.9358
18.8258
-2.50247
1.15736
-5.34658
-5.03418
11.2552
15.4104
21.8213
18.5419
19.1122
34.2911
-7.86477
2.11771
-0.691215
-3.78143
-2.52396
-0.468581
14.9217
-1.07003
-3.74195
-0.666899
-4.32766
-4.842
-0.212573
7.30342
6.28589
7.5115
7.93628
15.9586
13.2457
13.9485
16.4902
14.7685
17.5301
10.1073
-19.8704
-51.9991
10.1869
-59.5979
13.588
16.0547
12.3459
12.1039
3.10895
15.965
18.0487
11.3804
8.62637
5.49498
10.0977
12.2228
10.7873
21.8792
18.1633
19.1634
21.1389
8.48185
8.32453
14.3576
7.97088
11.672
14.6367
15.1311
7.96754
21.8882
14.424
16.0342
7.37629
18.0765
-49.0678
-6.62451
-2.38366
-5.34773
-51.6606
-8.50101
-9.02335
3.65067
-1.17947
8.95753
-5.3478
-16.2012
-10.3581
0.598213
-1.22144
2.92005
2.23428
7.74972
0.275365
0.887278
2.75783
2.16585
-57.9434
-7.68783
-8.64334
3.56372
2.17508
-20.7226
-17.3088
6.13616
-3.84564
2.61786
2.11018
10.6388
7.49834
-16.3314
-14.1082
-1.08216
-5.94625
-7.27993
0.326226
-13.8897
-5.44686
-19.5475
-10.3914
-4.32258
-6.35957
-0.121279
-0.138492
-0.854467
-0.609948
0.103293