/*--------------------------------*- C++ -*----------------------------------*\
| =========                 |                                                 |
| \\      /  F ield         | OpenFOAM: The Open Source CFD Toolbox           |
|  \\    /   O peration     | Version:  2506                                  |
|   \\  /    A nd           | Website:  www.openfoam.com                      |
|    \\/     M anipulation  |                                                 |
\*---------------------------------------------------------------------------*/
FoamFile
{
    version     2.0;
    format      ascii;
    arch        "LSB;label=32;scalar=64";
    class       volVectorField;
    location    "0.0625936";
    object      U;
}
// * * * * * * * * * * * * * * * * * * * * * * * * * * * * * * * * * * * * * //

dimensions      [0 1 -1 0 0 0 0];

internalField   nonuniform List<vector> 
3972
(
(10.1258 -0.21266 -0.0229171)
(9.09859 -1.17376 -0.0723992)
(10.8223 -0.329679 0.0179924)
(10.9606 -0.125495 -0.0194736)
(1.79778 -4.21569 -5.87024)
(10.3422 -0.473079 0.0346793)
(11.1154 0.0429195 -0.0454217)
(9.00609 -1.17225 -0.74261)
(9.47272 -0.980119 -0.652269)
(9.31915 -3.04944 -1.33085)
(10.2872 -1.4863 -0.916452)
(8.74384 -1.28694 -0.6598)
(11.9447 0.156727 -0.290189)
(10.1583 -0.160882 -0.0160726)
(10.2089 -0.680363 0.135169)
(10.0624 -0.631205 -0.0240996)
(10.421 -0.453275 -0.0536432)
(11.1957 -1.32125 -0.149827)
(10.3552 -0.417469 0.0236653)
(10.5031 -0.496058 0.0470776)
(6.59212 -1.22892 -0.494623)
(12.641 -0.473444 0.122565)
(10.171 -0.109022 0.0271407)
(10.9166 0.149509 0.0155669)
(11.5973 -5.33404 -2.28815)
(9.33041 -0.995742 0.0682377)
(10.2156 -0.554647 0.0920786)
(10.0661 -0.219557 -0.00587315)
(12.6255 -1.29615 -0.587282)
(9.6844 -0.427094 0.159291)
(11.362 -1.53419 0.153851)
(8.17236 -5.80417 0.0719249)
(9.98778 -0.243629 -0.0213491)
(11.8103 -2.59412 -0.928112)
(9.63679 -0.550941 0.158319)
(10.1396 -0.930483 0.232935)
(11.8379 -1.02151 -0.465754)
(10.8897 -0.543134 0.128731)
(9.77211 -1.04697 0.493096)
(11.933 -1.16734 -0.629968)
(11.508 -0.761587 -0.479545)
(11.4451 -0.0342303 0.0747841)
(9.23472 -1.75345 0.0790619)
(12.6221 -0.853877 -0.178352)
(10.607 -0.18195 0.0216122)
(10.2332 -0.519926 0.0759076)
(10.0415 -0.100037 0.00445147)
(12.6581 -1.48736 -1.00672)
(10.7594 -0.0185127 0.0117183)
(9.81331 -0.97657 -0.482199)
(11.1981 -0.0972643 -0.0384828)
(10.2282 -1.29228 0.527673)
(12.0534 -0.949241 -0.263355)
(10.1947 -0.0382926 0.0352023)
(10.5737 -2.50604 0.149138)
(10.5639 -0.176024 -0.0113142)
(10.7165 -0.06415 0.0285024)
(9.56759 -1.33722 0.483589)
(10.1261 -0.061599 -0.0265358)
(13.0404 -1.63384 -1.01026)
(10.255 -0.0560591 0.0212934)
(10.0213 -0.0265736 -0.00234666)
(9.91876 -0.198035 -0.00364178)
(10.6898 -0.024461 -0.0209886)
(11.093 -0.46277 -0.126036)
(12.4171 -1.46999 -0.835377)
(11.4553 -2.58895 -2.10096)
(10.0753 -0.274432 -0.00050248)
(11.6139 -1.49527 -0.514783)
(13.0913 -0.144284 -0.0897348)
(10.7702 0.0344998 0.00667657)
(11.2171 -1.56095 -0.21122)
(12.9729 -2.29895 -0.106031)
(10.2324 -0.945602 0.267679)
(12.2403 -1.24338 -0.218262)
(9.93627 -0.647145 -0.112074)
(10.5321 -1.75086 -1.25605)
(10.6261 -0.042528 0.0109125)
(10.5841 -0.769811 -0.323548)
(11.0686 -2.89182 -2.16067)
(10.6075 -1.96863 -1.43504)
(11.6002 -0.300903 -0.0574364)
(9.7365 -0.667482 -0.0821046)
(10.6353 -0.832887 -0.570547)
(9.56146 -1.64017 -0.327257)
(10.4416 -0.0709245 0.0206692)
(10.3935 -0.0779212 -0.0122397)
(10.2954 -1.79991 -1.38072)
(10.1834 -0.073842 -0.0160736)
(10.2644 -0.0486632 -0.00751184)
(9.94159 -2.37495 -1.56898)
(11.3166 -1.73052 -0.231155)
(9.39087 -3.13699 -1.38934)
(10.1984 -1.54977 -1.43672)
(10.0084 -0.856946 -0.583727)
(10.3855 -1.03179 0.286615)
(10.1036 -0.261288 -0.07176)
(11.3415 -0.252839 -0.0247187)
(10.62 -0.128216 -0.0367623)
(10.0116 -0.253111 -0.0416758)
(9.96832 -0.876468 0.260589)
(10.9067 -0.503864 -0.0650167)
(9.90466 -1.0273 0.402807)
(10.0841 -0.748337 -0.488198)
(10.6932 -0.032301 0.014564)
(10.1033 -1.1581 -0.371021)
(8.76842 -1.73366 0.122168)
(11.2395 -1.07188 0.142859)
(12.4115 -1.15153 -0.580857)
(11.2539 -0.57748 0.0620212)
(9.04193 -2.6165 -0.521143)
(10.5444 -0.579256 -0.0369369)
(10.1308 -0.788934 -0.0229247)
(9.64135 -3.95928 -2.25805)
(10.4533 -1.54867 -0.99207)
(11.5894 -0.392136 -0.000629881)
(9.55034 -0.700191 0.511078)
(10.6592 -0.039112 0.00666388)
(10.7429 -0.0255054 -0.00272358)
(10.2186 -2.1665 -1.16561)
(6.49894 -3.23243 -1.6942)
(10.5812 -0.0843078 0.0406726)
(10.01 -0.255829 0.00100372)
(10.5462 -0.09794 0.000975339)
(9.97503 -0.269077 -0.0159089)
(11.8901 -2.1822 -1.04082)
(9.97951 -0.182844 0.00611921)
(12.2571 -2.63409 -1.63982)
(12.5816 -2.53176 -1.48915)
(10.9743 -3.66492 -2.4815)
(12.3625 -3.04946 -1.41222)
(9.07034 -2.4106 -0.453358)
(12.8884 -3.46277 -1.15488)
(11.9985 -4.59787 -2.31241)
(10.3127 -0.0619701 0.00352162)
(10.3843 -0.0509822 0.00966683)
(10.2035 -0.0830837 -0.00152292)
(10.206 -0.028727 -0.00589261)
(10.1429 -0.0555631 -0.00708314)
(10.2219 -0.0788555 0.0305007)
(10.8278 -2.28348 -1.27962)
(9.90217 -0.212578 0.000635691)
(8.27609 -1.66728 0.66019)
(10.8439 -2.80828 -2.05847)
(10.6222 -0.0757175 0.019903)
(10.0397 -0.079498 -0.0072499)
(12.1566 -1.00177 -0.353314)
(10.0587 -0.198484 -0.086134)
(9.95778 -0.208411 0.00875827)
(10.468 -2.55923 -1.13471)
(10.0529 -0.208782 -0.000687608)
(9.88258 -1.54732 -0.64381)
(9.89702 -0.734006 -0.365787)
(10.4896 -0.0692206 0.0151738)
(10.5069 -0.0466507 -0.0202157)
(10.0267 -1.16536 -0.669862)
(10.5035 -0.176575 -0.00950212)
(11.151 -2.0636 -1.37457)
(10.9628 -1.88962 -1.30416)
(11.702 -2.17322 -2.17402)
(9.64748 -0.840317 -0.124621)
(9.5094 -0.899868 0.334537)
(11.5218 -0.739089 -0.101534)
(11.7928 -0.799436 -0.18003)
(9.4409 -0.956768 0.433023)
(8.97618 -1.99276 -2.12668)
(11.8902 -0.651485 -0.0246253)
(12.4041 -1.42454 -0.426667)
(9.56757 -1.53684 -0.722506)
(11.8535 -1.2315 -0.418622)
(12.2404 -1.42861 -0.474188)
(10.7607 -0.552591 -0.140902)
(9.95681 -0.350179 -0.0242043)
(9.91205 -0.514334 -0.0490893)
(10.6963 -0.588272 -0.141797)
(10.6143 -0.618989 -0.152542)
(10.2013 -0.320262 -0.0567882)
(9.90583 -0.432735 -0.01972)
(9.97711 -0.542871 -0.0409669)
(9.92518 -0.403486 -0.0239855)
(10.0256 -0.0361793 0.0125712)
(10.0184 -0.038628 0.0210631)
(11.6169 -0.611547 -0.0118739)
(12.3188 -1.31464 -0.570941)
(9.94037 -0.765861 0.137699)
(10.0728 -0.369514 -0.0580915)
(10.1148 -0.333828 -0.0540985)
(10.2006 -0.266002 -0.0360691)
(10.1328 -0.416005 -0.00832431)
(8.67781 -0.849188 0.250086)
(10.0569 -0.583544 -0.144023)
(10.1226 -0.521505 -0.0560127)
(11.8065 -2.79449 -0.718216)
(10.0589 -0.432395 -0.0232931)
(10.9293 -0.76295 0.256906)
(10.0696 -0.542434 -0.115702)
(10.6004 -0.841877 -0.12211)
(10.4643 -0.161779 -0.0190361)
(12.7284 -0.0929772 -0.0541625)
(10.4611 -0.971214 0.395596)
(10.2199 -0.943528 0.440978)
(10.1819 -0.413968 -0.0534584)
(11.8286 -1.27541 -0.540476)
(10.5602 -0.149137 -0.026658)
(9.74885 -0.360564 -0.0457037)
(10.7453 -0.158042 -0.00722407)
(9.73402 -0.384867 0.0993364)
(10.7171 -1.9975 -0.398989)
(12.4068 -0.261193 -0.0752471)
(10.7244 0.0307779 -0.0021746)
(10.6651 0.0351912 -0.00647157)
(10.7887 -0.540853 -0.0806703)
(12.5381 -0.446336 -0.0207132)
(12.3859 -0.890508 -0.503032)
(10.5713 -0.786459 -0.252974)
(10.6153 -0.209573 0.0048615)
(12.5944 -1.44369 -0.637753)
(11.1778 -0.319327 0.0124118)
(11.5621 -1.05303 -0.718441)
(10.4305 -0.797621 -0.470883)
(10.2356 -0.42182 -0.0128723)
(7.66869 -2.28383 -0.142435)
(11.485 -1.09258 -0.36736)
(10.328 -0.824961 0.283502)
(9.76115 -5.64905 -1.62307)
(10.0432 -0.812466 0.393503)
(9.29542 -8.90699 -3.00455)
(12.8758 -1.17457 -0.788626)
(12.4564 -8.23827 -1.48479)
(12.1903 -2.07743 -2.02177)
(8.74663 -12.6163 -2.28708)
(10.2182 -1.4567 -0.244947)
(6.48184 -4.11862 -1.99905)
(1.20918 -5.68166 -2.57506)
(10.6313 -1.34094 -0.635091)
(11.0736 -0.693559 -0.224339)
(11.4389 -0.774949 -0.302816)
(9.81866 -0.894346 0.0518077)
(9.31789 -2.03087 -2.08584)
(10.2434 -1.3865 -1.52135)
(9.34882 -1.66567 -0.732329)
(11.1651 -1.34251 -0.0876115)
(5.81196 -3.46129 -1.16437)
(8.47789 -1.43662 -0.381928)
(11.4059 -1.68381 0.171981)
(10.6416 -0.344218 -0.0590457)
(10.0245 -1.43053 -0.0509396)
(10.7937 -0.359591 -0.0546151)
(11.6276 -0.304385 -0.0379913)
(10.9525 -0.686041 -0.0970005)
(10.9984 -0.856608 -0.184491)
(5.80767 -3.67325 -7.14242)
(10.4468 -2.64357 -2.02374)
(10.485 -0.0286137 0.00329102)
(10.9747 -0.312488 -0.027885)
(11.3713 -0.919787 -0.463582)
(6.1404 -3.26377 -3.14639)
(6.51388 -3.25877 -0.641324)
(10.886 0.193329 0.00109019)
(10.5843 0.0239162 -0.0178534)
(12.638 -3.32856 -1.01313)
(10.7263 0.0345063 0.00425027)
(10.1921 -0.023291 0.0147843)
(11.0739 0.191744 0.0480633)
(10.5612 -2.60404 -3.18254)
(11.0067 -1.87177 -0.628998)
(10.7843 -0.424182 0.00872567)
(8.58758 -2.16128 -1.79976)
(8.86777 -2.08925 0.143866)
(11.1987 0.317369 -0.1131)
(10.0609 -1.9523 0.203404)
(12.149 -1.72597 -1.03175)
(3.23722 -4.6262 -3.45804)
(12.3685 -3.34258 -0.904187)
(11.4817 -2.32253 -1.30573)
(8.3948 -4.91833 -0.170618)
(11.7842 -0.0894959 -0.227643)
(10.6326 -0.000354534 -0.00249022)
(10.935 -0.4766 0.0260184)
(9.9788 -0.511643 -0.035443)
(10.2354 -0.269443 -0.0198889)
(12.713 -2.81959 -0.452663)
(10.5043 -0.903699 -0.144776)
(4.57577 -4.99704 -0.0346606)
(3.19779 -1.49294 0.353399)
(6.51366 -6.72225 -4.06356)
(11.2971 -0.217227 -0.0241983)
(10.8338 -0.0832102 -0.0098964)
(11.4488 -0.151109 0.015628)
(10.0531 -0.226602 -0.00433595)
(11.0106 -0.409038 -0.0406484)
(8.99128 -1.10849 -0.587229)
(10.5124 -1.43015 -1.61467)
(10.9947 -0.216192 -0.042367)
(8.80423 -5.56881 -1.29642)
(10.0887 -3.24431 -0.717281)
(11.2834 -0.85031 -0.686531)
(9.57931 -4.85965 -2.58465)
(9.49813 -1.20328 0.423571)
(5.03308 -6.55322 -1.96457)
(10.2674 -0.393934 -0.0162603)
(10.5971 -0.914296 -0.724681)
(11.1345 -1.56612 -1.47156)
(12.0036 0.15006 -0.0427307)
(11.1052 -0.141878 0.00343351)
(11.153 -0.285262 -0.022984)
(8.84515 -2.13869 -0.546418)
(10.6129 -1.89608 -0.768527)
(10.8887 -0.0448281 -0.0244181)
(10.6629 -1.74194 -0.830795)
(10.6534 -1.71773 -0.50059)
(10.853 0.0762465 -0.0613015)
(9.06573 -3.01034 -3.22582)
(11.2006 -0.297706 -0.0405421)
(5.87336 -0.401423 -2.50864)
(9.84743 -0.907142 -0.569416)
(11.2958 -0.318312 -0.0373291)
(10.9871 0.272294 -0.0475879)
(11.3911 -0.50188 -0.112)
(10.9453 -1.01778 -0.127475)
(12.7499 -3.25507 -2.40954)
(2.33864 -6.91123 -3.24002)
(11.8161 -1.06406 -0.364932)
(10.0583 -0.869921 -0.124134)
(10.0077 -0.962759 -0.124738)
(10.8056 0.00342119 0.000402772)
(10.2167 -0.710442 -0.296677)
(9.64945 -0.927807 0.253866)
(11.2253 0.043094 -0.0337459)
(10.6156 -0.0355827 -0.037255)
(10.9064 0.0783275 -0.0177776)
(10.4691 -5.3031 -0.712815)
(10.4509 -1.67642 -1.6443)
(10.5985 -0.659257 0.0431847)
(9.93217 -0.796833 -0.15712)
(10.1913 -0.108038 -0.00767068)
(11.0844 -0.0544143 -0.0373482)
(11.5708 -1.77549 -0.858225)
(9.65858 -0.644931 -0.310411)
(12.4628 -0.247933 0.0463957)
(10.9314 -2.97914 -0.695)
(9.87276 -0.880781 -0.222116)
(10.6425 -3.03739 -3.1826)
(11.0193 0.226871 -0.0774986)
(11.3383 -0.555621 -0.115922)
(10.0585 -0.803133 -0.145655)
(9.50614 -1.10494 -0.940305)
(9.31699 -1.32666 -0.484803)
(11.0136 -0.754487 -0.32108)
(11.7587 -1.075 -0.407475)
(11.138 -0.720784 -0.265353)
(10.7135 -0.0296619 -0.0124152)
(10.684 -0.159617 -0.00678766)
(10.6689 -0.193152 -0.00322324)
(3.20252 0.528217 -0.47854)
(8.60278 -3.8609 -2.25456)
(2.64941 -5.62243 -3.64074)
(10.6481 -0.281778 -0.0441722)
(9.95548 -1.31984 -0.0980714)
(9.98519 -1.21997 -0.089601)
(9.87597 -1.05556 0.23155)
(10.0927 -0.824931 0.0871297)
(11.2338 -0.0849815 0.0141808)
(12.5792 -1.34804 -0.619879)
(11.1507 0.0862869 0.0758291)
(11.0953 0.106057 0.0539239)
(10.915 0.147872 0.0318365)
(10.2675 -1.1538 0.266408)
(9.98135 -0.340464 0.0246989)
(10.0725 -0.500234 -0.0928463)
(10.6227 -0.793592 0.0956073)
(10.263 -1.0484 0.112516)
(10.1303 -0.377886 -0.0438529)
(10.5494 -0.953262 0.0694706)
(11.1887 -0.415229 -0.0587944)
(11.0635 0.0839365 -0.0313332)
(11.0082 0.161093 -0.0758549)
(10.7054 0.00135673 -0.0209943)
(10.9195 0.0675299 -0.0434219)
(10.8739 0.0160753 -0.0404797)
(10.8154 -0.625149 0.127825)
(11.1391 -0.436966 -0.0694983)
(10.7947 -0.489642 0.0743689)
(11.6463 -2.29153 -1.49726)
(10.763 -0.849789 -0.417885)
(11.3775 -2.56039 -1.74185)
(10.2539 -1.05918 -0.136067)
(8.09628 -2.7164 -0.524273)
(10.9141 -0.032171 -0.0130531)
(10.9742 -1.1567 -0.606157)
(12.4274 -1.51447 -1.05986)
(11.2607 0.143147 0.114289)
(12.6609 -0.551788 -0.0729026)
(11.3653 0.0315431 0.00478732)
(13.0762 -1.34172 -0.663508)
(11.1528 -1.18407 -0.233329)
(0.995877 -1.2463 0.53298)
(8.74159 -3.76562 -2.79157)
(9.90539 -0.662935 -0.267371)
(10.2664 -0.612584 0.1123)
(9.39944 -2.52877 -1.2343)
(11.0931 -0.787381 -0.113817)
(9.77378 -0.656413 -0.0279975)
(11.2057 -1.01927 -0.603365)
(8.46607 -1.89961 -0.691937)
(9.81195 -0.281926 0.00645268)
(11.1867 -0.0658657 -0.0464406)
(11.2545 -5.60015 -1.18883)
(11.2228 -0.433186 0.0472901)
(11.3562 -1.09073 -0.176714)
(9.94549 -0.6371 0.0343736)
(11.9373 -2.23433 -0.0552439)
(11.7106 0.260753 -0.163486)
(11.6422 -0.0401664 -0.0727628)
(10.2354 -0.0522402 0.0178225)
(1.53637 -7.92568 -2.28379)
(10.3642 -0.698658 0.209376)
(11.2936 0.0685069 0.0884394)
(11.3227 0.135748 0.0310934)
(10.6855 -0.662749 0.161997)
(11.4107 -0.206649 0.014675)
(10.1795 -0.098064 -0.0191026)
(9.73864 -1.08574 0.109286)
(10.4659 -0.339966 -0.0356174)
(11.1656 0.017244 0.0512886)
(11.366 -0.136333 0.0235925)
(9.25043 -1.71053 0.443207)
(10.9659 -0.476508 0.0227651)
(9.74256 -2.04159 -1.94431)
(10.4911 -0.0738428 0.00786062)
(11.3086 0.0336291 0.0858172)
(11.1 -0.0359849 0.0302719)
(10.029 -0.245856 0.00665271)
(10.4274 -0.823338 -0.302658)
(10.2314 -0.590613 -0.173807)
(8.91929 -1.61894 0.0657854)
(10.5483 -1.37898 0.0421765)
(10.8118 -0.03531 0.00122803)
(10.1495 -0.307931 -0.0657239)
(10.0926 -0.312971 -0.0131769)
(10.6787 -0.789901 0.245558)
(10.749 -0.273522 0.0165539)
(10.0982 -0.557702 -0.112267)
(10.9012 -0.746178 -0.312904)
(11.3203 -0.435922 0.0248814)
(11.4385 0.0747059 0.000910283)
(9.47771 -1.31043 0.752327)
(10.4601 -0.665081 -0.189127)
(11.08 -0.0791364 0.0286179)
(9.94969 -0.731362 0.404621)
(10.375 -1.08586 0.487174)
(11.1364 -2.21591 -0.0524019)
(10.3476 -2.178 0.162395)
(11.1679 -1.97185 -0.246531)
(11.27 -0.659118 0.0399608)
(10.0438 -0.549583 0.177223)
(5.91292 -7.03691 -0.45745)
(9.32294 -6.1813 -1.2051)
(12.572 -2.98624 -0.691109)
(11.7365 -1.21317 -0.225972)
(7.79836 -3.82082 -1.19319)
(10.5105 -2.36719 -0.634562)
(11.2497 -0.0718487 0.0156671)
(10.1721 -1.6115 0.420369)
(11.1048 -1.61481 -0.794311)
(11.9585 -2.08331 -0.347354)
(9.65891 -0.723201 0.104442)
(9.30346 -1.0219 -0.123726)
(10.5978 -0.372603 0.0220175)
(9.30021 -1.26929 0.237997)
(10.7174 -0.00422311 -0.0225252)
(10.4262 -1.48422 -0.140888)
(9.25189 -1.9191 -0.222249)
(10.5066 -1.74578 -0.827886)
(10.4795 -0.943386 0.045633)
(8.19749 -3.97025 -0.469813)
(12.6975 -0.98514 -0.341464)
(1.10618 -5.45552 -0.596256)
(11.7599 -0.721437 -0.0748675)
(11.6698 -0.829083 -0.102591)
(12.3141 -0.0885913 -0.0329754)
(12.3436 -0.499749 -0.149865)
(12.8325 -0.848952 -0.20801)
(12.7329 -1.05171 -0.363293)
(12.9325 -0.933965 -0.348657)
(10.1049 -0.249984 -0.0403353)
(10.1949 -0.217503 -0.0447001)
(12.6695 -1.22753 -0.418334)
(10.1641 -0.212198 -0.0335471)
(10.2268 -0.718396 -0.440152)
(10.3396 -0.567562 -0.231256)
(10.3978 -0.587648 -0.154959)
(12.7594 -3.88037 -2.85757)
(11.9135 -1.38784 -0.512569)
(12.4517 -1.2841 0.107774)
(10.6783 -1.88818 -0.447056)
(12.5113 -1.13315 -0.578502)
(10.3654 -0.078261 0.00839568)
(10.4635 -0.0533943 -0.00505133)
(10.4562 -0.130546 -0.00418988)
(10.3865 -0.137788 -0.00179114)
(12.4585 -1.19403 -0.717677)
(11.0364 -0.159851 -0.0302606)
(11.6238 -1.19783 -0.677623)
(11.6612 -0.823302 -0.345498)
(9.44164 -2.21962 -1.71198)
(10.3645 -1.1596 -0.179445)
(10.4379 -0.958731 -0.216444)
(10.291 -1.19168 -0.430988)
(10.3461 -1.2467 -0.476455)
(12.5297 -2.2553 -0.520881)
(10.4326 -0.083394 0.00107044)
(12.914 -1.77081 -0.393807)
(12.5268 -0.403023 0.0394883)
(9.44475 -1.5556 0.392948)
(9.60451 -1.24119 0.713689)
(10.1294 -0.814611 0.286755)
(11.2285 -0.0247711 -0.0389927)
(10.4933 -4.04913 -2.28602)
(11.2539 -3.2452 -1.54641)
(10.3045 -3.28947 -1.27246)
(10.6888 -1.63739 -1.74183)
(11.0005 -0.118292 -0.00677081)
(10.9504 -1.56252 -1.20545)
(8.48915 -3.63922 -4.77108)
(11.2901 -0.000338402 -0.0678421)
(9.53072 -1.56074 0.252554)
(10.0667 -2.02194 -2.05879)
(12.4707 -1.75952 -1.18626)
(10.1216 -0.817694 0.166177)
(12.2889 -1.57284 -0.956279)
(12.7236 -1.49884 -0.996525)
(11.1812 -0.728413 -0.0606967)
(11.8261 -1.42755 -0.948105)
(12.0615 -1.57486 -1.32311)
(9.36413 -1.67608 0.38121)
(10.7131 -0.911251 -0.654364)
(11.0176 -0.780376 -0.391457)
(11.0926 -0.778522 -0.411723)
(11.033 -0.691916 -0.299237)
(11.142 -0.721651 -0.326865)
(9.40469 -1.74124 0.231507)
(9.12456 -1.92321 0.126407)
(10.0025 -0.339605 0.00715969)
(11.2126 -0.448904 -0.0924688)
(11.1296 -0.523538 -0.093455)
(8.2956 -3.81042 -0.121888)
(9.55832 -1.46987 0.223138)
(10.1045 -0.284759 -0.021323)
(10.353 -0.732219 0.196629)
(11.091 -0.665385 -0.129372)
(11.0297 -0.697328 -0.136471)
(10.0244 -1.7468 0.166086)
(10.4337 -1.93878 0.0555161)
(10.943 -0.63554 -0.12506)
(10.4728 -0.678547 -0.0948306)
(10.8302 -0.634672 -0.0674237)
(12.0471 -1.03209 -0.0198906)
(10.1457 -0.486779 0.03934)
(10.8094 -0.826141 0.0293715)
(11.4011 -1.04547 -0.0936213)
(8.75136 -1.34702 0.566751)
(10.9339 -0.853273 -0.0740895)
(12.7411 -1.4489 -0.828675)
(10.8048 -0.876644 -0.0304809)
(12.9554 -1.67137 -1.00472)
(12.7452 -1.68165 -1.24238)
(13.1131 -1.3666 -0.673412)
(11.0988 -0.74527 -0.385864)
(4.60938 -6.9208 -0.523894)
(9.5409 -1.00817 0.116176)
(10.4392 -1.0952 0.292549)
(7.66675 -7.09436 -0.548488)
(11.1721 -0.0270063 0.0209934)
(11.726 -0.526787 -0.0526695)
(11.2441 -0.289935 0.0114295)
(10.3129 -0.324401 0.0136215)
(11.2428 -0.613356 -0.188876)
(11.1692 -0.58225 -0.178933)
(10.1663 -1.0423 0.0259481)
(11.1056 -0.453481 -0.0472687)
(11.1505 -0.4004 -0.0334504)
(11.1309 -1.00997 0.0507361)
(11.2463 -0.544335 -0.132846)
(11.4578 -0.291168 0.0868821)
(11.3839 -0.187701 0.0813679)
(10.6966 -0.718348 0.0156622)
(10.6472 -0.640143 -0.00465079)
(10.7412 -0.665722 -0.0903164)
(10.6392 -1.03734 -0.0523723)
(8.19089 -2.36985 -0.150164)
(12.75 -0.330034 -0.00548574)
(11.5059 -0.460017 -0.309751)
(13.1996 -2.40808 -1.79136)
(8.49248 -2.97594 -1.29125)
(12.5406 -2.14053 -1.68523)
(10.9292 0.071325 -0.0076009)
(10.907 0.0336294 -0.0190133)
(10.9348 -0.780975 0.0739478)
(9.64848 -0.738113 0.301247)
(10.9063 0.0762119 -0.012287)
(10.7297 0.0204053 0.0136933)
(10.7412 -0.00819189 -0.00399885)
(10.8419 0.0358964 -0.00564144)
(6.04134 -5.92281 -2.98684)
(7.01148 -4.03794 -1.86066)
(6.39304 -4.64652 -2.18732)
(10.0931 -1.20503 -1.06588)
(1.30736 -3.74299 -6.03282)
(11.2284 -0.153006 0.000537129)
(11.3454 -0.465577 0.0174821)
(10.1726 -1.01271 -0.0729656)
(11.3606 -2.33922 -0.0666911)
(10.4895 -0.330733 -0.0686119)
(10.5499 -0.195848 -0.00962456)
(10.4949 -0.214708 0.0145595)
(10.5555 -0.310373 -0.0252375)
(10.0878 -0.210241 -0.0682629)
(10.0692 -0.18524 -0.0442878)
(10.102 -0.237886 -0.0680231)
(10.0759 -0.194061 -0.0479642)
(8.89078 -3.81137 -4.50204)
(9.24029 -3.10093 -3.83616)
(9.79937 -2.35664 -2.10137)
(9.881 -2.75549 -2.73469)
(11.1412 -0.32604 -0.0777618)
(10.9898 -0.367313 0.0324665)
(10.4733 -0.670913 0.0374056)
(10.4114 -0.680267 -0.0712633)
(10.1044 -0.873543 -0.314496)
(9.37207 -0.831204 -0.395044)
(9.48443 -0.740803 -0.33427)
(10.0008 -0.534927 -0.259179)
(11.9088 -1.23619 0.0238275)
(12.3305 -0.944064 -0.336292)
(9.96711 -2.61187 0.09169)
(10.3863 -2.46127 0.147164)
(9.95922 -0.663362 -0.0346696)
(9.90304 -0.833318 -0.0566787)
(9.90298 -0.739141 -0.0766698)
(9.86359 -0.829005 -0.0957002)
(8.3206 -2.68308 -0.125596)
(8.69856 -2.46222 0.0284483)
(9.89012 -1.01112 -0.435812)
(9.92694 -0.79115 -0.291209)
(11.1081 -3.80666 -0.0815571)
(10.0999 -3.48436 -0.111009)
(11.8343 -1.19453 -0.548215)
(10.7922 -4.38425 -0.0341564)
(11.3912 -3.87561 -0.60127)
(10.5859 -2.70553 -0.342812)
(11.8555 -0.59649 -0.0716669)
(12.1288 -1.45265 -0.473623)
(11.568 -2.119 -0.53369)
(10.8568 -1.88918 -0.248185)
(10.9892 -1.60273 -0.379282)
(10.9068 -0.82266 0.0268407)
(10.8163 -1.25523 -0.274371)
(10.6696 -1.87719 -0.191117)
(7.8493 -3.57421 -1.13378)
(6.75962 -4.05281 -0.71982)
(7.76255 -3.16683 -0.592848)
(10.5398 -0.424697 0.0165696)
(6.90683 -3.62626 -0.427915)
(10.792 -0.150929 -0.0107261)
(11.0547 -1.602 0.060606)
(11.2953 -1.1078 -0.217379)
(11.1529 -1.0252 -0.0559949)
(11.5028 -1.50185 -0.10536)
(11.4695 -1.19566 -0.18385)
(10.6285 -0.326817 0.0352525)
(10.2149 -0.681507 -0.0715668)
(10.2056 -0.739154 -0.114247)
(10.2767 -0.865627 -0.190971)
(10.1804 -0.92456 -0.161312)
(10.3722 -0.623541 -0.0746206)
(10.293 -0.738493 -0.13896)
(9.78479 -1.69575 -0.624477)
(10.6398 -0.450459 -0.0449797)
(9.76418 -1.75946 -0.762991)
(9.53218 -2.21305 -0.94776)
(9.20876 -2.40776 -0.549157)
(11.6317 -1.29101 -0.222913)
(11.5194 -1.38569 -0.281936)
(10.8553 -1.6716 -0.416951)
(10.9335 -0.772093 -0.364891)
(9.93496 -0.166588 0.00241222)
(10.8104 -0.723462 -0.334424)
(9.85285 -0.949875 -0.0214668)
(9.90001 -0.261694 -0.00166395)
(9.83414 -0.217147 -0.0380706)
(12.8253 -2.0012 -0.819354)
(9.85279 -0.169872 -0.0218115)
(9.84324 -0.258159 -0.0410285)
(9.80697 -0.346133 -0.0266442)
(11.1414 -1.97736 -0.760296)
(9.60833 -0.578715 0.192608)
(10.5685 -0.0911747 0.00137599)
(9.7398 -0.541611 0.0967157)
(9.9783 -0.651328 0.364586)
(10.0778 -0.0826583 -0.00277383)
(11.0507 -0.516338 -0.0232689)
(9.86953 -0.656358 0.113128)
(10.3543 -0.29281 -0.014425)
(9.85702 -0.425684 0.0836591)
(11.6687 -2.16469 -1.2696)
(10.3908 -0.0194283 -0.00441773)
(9.70569 -0.487285 0.0723112)
(9.91048 -0.240994 -0.0150003)
(10.1392 -0.173736 -0.0324612)
(11.3867 0.242844 -0.134147)
(11.0959 -0.174566 0.0114993)
(10.8584 -0.69362 -0.38782)
(10.2774 -0.0520613 0.0373932)
(10.1158 -1.37414 0.0417692)
(10.6303 -0.21541 -0.0355756)
(10.1609 -0.332468 -0.0158817)
(10.2689 -0.344258 -0.0093068)
(10.1231 -0.385037 0.00835602)
(10.5599 -0.187354 -0.0486558)
(10.0536 -0.025474 -0.000924088)
(9.82941 -0.365582 0.0359585)
(10.6973 -0.381439 0.0579794)
(11.1423 0.284322 -0.0387832)
(10.5581 -0.180934 0.0201561)
(10.2153 -0.754222 0.1045)
(9.44823 -2.32625 0.169338)
(10.5909 -0.0558596 0.00432813)
(10.8502 -0.825983 -0.413518)
(11.0531 -0.782685 -0.535359)
(10.317 -0.608647 -0.169703)
(10.2701 -0.75804 -0.16996)
(10.3214 -0.611326 -0.172877)
(10.2913 -0.582333 -0.164442)
(10.4808 -0.360282 -0.0569215)
(10.5262 -0.393667 -0.0761005)
(10.3631 -0.512462 -0.0917629)
(10.4987 -0.496084 -0.115351)
(10.0883 -0.229934 -0.0559405)
(10.03 -0.270658 -0.0340364)
(10.8347 -0.224798 0.0277072)
(11.1079 -0.0285339 0.02021)
(11.3711 0.107858 0.117442)
(11.1645 0.0422488 0.00733901)
(10.6883 -0.0333445 0.0109259)
(9.10929 -2.05717 -2.25276)
(10.2001 -0.242237 -0.0407446)
(10.873 -0.411543 -0.00721092)
(10.0929 -0.133287 -0.0434178)
(11.2322 -0.65664 -0.172227)
(10.1558 -0.237954 -0.0445715)
(11.0451 -0.223251 -0.0830838)
(10.183 -0.203776 -0.022348)
(9.265 -2.11207 0.520164)
(8.89251 -2.90725 -1.13637)
(9.98813 -0.106546 -0.00536689)
(11.2701 -1.17671 -0.191645)
(12.0996 -1.48433 -0.213779)
(12.5706 -2.91834 -2.47207)
(12.7125 -2.67394 -0.727474)
(5.1553 -5.04209 -3.14046)
(12.1055 -2.67966 -0.712559)
(9.35993 -1.27907 0.345485)
(9.07315 -1.31131 0.674724)
(11.1945 -0.445186 0.013555)
(9.98341 -1.95443 0.177382)
(10.6371 -0.0809601 0.0149032)
(9.96586 -0.891184 0.224897)
(10.2385 -0.532305 -0.00329011)
(11.5566 -1.60199 0.160311)
(10.9163 0.016828 -0.0466508)
(11.1769 0.145224 0.0332023)
(9.77974 -0.441817 -0.107718)
(10.3385 -0.525026 -0.0782532)
(10.2446 -0.369485 -0.0518501)
(10.048 -0.539854 0.188999)
(10.3673 -0.0441007 0.0399971)
(10.8091 -0.254302 0.0337505)
(10.7516 0.0728603 -0.0230903)
(11.8515 -2.76929 -1.20246)
(10.8515 0.092279 -0.0498601)
(10.7174 0.00586639 0.00637218)
(11.2299 -0.0880483 -0.0254795)
(11.5734 0.174821 0.00857731)
(12.4003 -1.02125 -0.184936)
(12.2956 -1.45919 -0.115707)
(10.3817 -0.0187612 0.00797435)
(12.1284 -1.28559 -0.806485)
(10.2348 -0.897677 0.323776)
(10.8851 -0.818302 0.266601)
(9.91115 -0.658069 0.225835)
(12.6759 -2.84479 -0.906822)
(10.3791 -0.346766 0.00807383)
(10.0096 -0.672184 0.228514)
(10.6778 -0.328342 0.040579)
(10.639 -0.940134 0.308689)
(10.5734 -0.306755 0.0291629)
(12.2299 -2.20694 -1.58332)
(10.9162 0.000250829 -0.0355517)
(10.8959 0.0893718 -0.0329858)
(10.0376 -0.724142 0.290084)
(10.9051 -0.0197212 -0.0441991)
(10.855 0.00374556 -0.0292978)
(10.0657 -0.618889 0.152584)
(9.88739 -0.587497 0.222055)
(10.061 -0.347266 -0.0285168)
(6.81729 -6.85619 0.186437)
(10.7595 -2.08892 -0.82789)
(12.2572 -6.12391 -0.371943)
(10.2128 -0.470301 -0.0287055)
(9.67896 -0.879976 -0.651786)
(10.5642 0.00213794 -0.015679)
(10.2236 -0.213128 -0.0343468)
(10.2069 -0.502058 0.0460542)
(9.80294 -0.685641 0.0856302)
(9.60329 -0.732823 0.57966)
(9.95411 -0.598975 -0.083539)
(9.94218 -0.31415 -0.0117904)
(10.1872 -0.384079 -0.0525887)
(8.56349 -1.87018 0.110692)
(9.64072 -1.05078 0.393455)
(9.83554 -0.920368 0.610123)
(10.377 -0.475345 -0.0806576)
(10.1151 -0.860288 0.350741)
(12.4031 -1.41142 -1.08905)
(10.5132 -0.910128 -0.230248)
(11.399 -0.883872 0.0803717)
(12.4438 -2.24396 -0.138012)
(12.0394 -1.16476 0.0320375)
(9.52418 -1.39152 -1.29353)
(10.26 -1.34738 0.160092)
(11.1184 -0.0852052 0.0202463)
(10.326 -0.741122 0.165195)
(10.7887 -0.370307 0.00562571)
(11.0134 0.138784 0.0516257)
(12.5998 -0.0667734 0.0471099)
(11.9952 -0.636268 -0.110855)
(10.2583 -0.487377 -0.0169603)
(13.0971 -1.5017 -0.423179)
(11.9414 -3.79115 -0.675932)
(10.864 -2.94951 -2.17755)
(1.57649 -6.84683 -0.0882893)
(11.2652 -0.543556 0.116098)
(11.2088 -0.654367 0.100848)
(10.4068 -0.456594 0.0794701)
(10.5725 -0.980743 0.415719)
(10.8001 -0.129028 0.00535414)
(0.276825 -9.29961 -3.51442)
(11.6249 -0.169972 -0.031958)
(13.0568 -0.470952 -0.29463)
(12.9196 -1.56826 -0.645881)
(12.0979 -2.27271 -2.34112)
(11.3085 -1.3357 -0.799472)
(11.2047 -0.03042 -0.0419988)
(8.99023 -1.41673 0.196551)
(9.92347 -0.321579 -0.0903076)
(10.177 -0.276869 -0.0406809)
(11.8972 -4.48331 -1.78699)
(9.43464 -3.25878 -0.0714046)
(1.42006 -6.00708 -5.33062)
(9.68872 -0.837492 0.0907351)
(9.71879 -0.809057 0.128338)
(10.1597 -0.512131 0.0519425)
(9.86018 -1.49479 0.264479)
(9.40596 -2.34641 -0.14769)
(10.7463 -0.622044 -0.204667)
(11.324 -1.06308 0.130347)
(10.9024 -0.867112 -0.199006)
(10.3636 -1.47406 -0.677407)
(12.8366 -1.16386 -0.432121)
(11.4538 -0.0805583 0.0212087)
(11.313 -1.52188 -0.747011)
(10.942 -1.03707 -0.039558)
(10.8045 -3.48017 -0.0152684)
(10.0606 -4.10047 -0.473547)
(10.7408 -0.162627 0.00994773)
(6.29662 -7.29951 -1.48958)
(10.2894 -0.799322 -0.457579)
(10.3206 -0.12723 -0.00146285)
(10.1249 -0.169705 -0.0350957)
(10.1704 -0.109311 -0.0141874)
(10.3015 -2.70731 -0.568826)
(10.3228 -0.0394232 0.0268624)
(10.3413 -0.0786201 0.00484889)
(10.0974 0.00298585 0.0269992)
(12.6758 -1.55213 -0.855595)
(11.648 -1.31288 -1.07171)
(9.89352 -0.380187 -0.0455319)
(10.9597 0.0795735 -0.0688429)
(10.8556 0.121985 -0.0445499)
(10.9368 -0.083895 -0.0212043)
(10.1263 -0.0552524 0.0065177)
(10.6473 -0.0309788 -0.00561752)
(10.3017 -0.164156 0.0108833)
(10.172 -0.103635 -0.00723106)
(13.0066 -0.971687 -0.115832)
(8.7117 -4.83065 -2.41426)
(11.797 -2.21437 -1.3865)
(1.53124 -4.30715 -4.73229)
(10.5891 -0.0679952 0.0191147)
(12.5045 -0.644237 -0.157386)
(10.9499 0.00765507 -0.0396367)
(10.9715 0.0229822 -0.0649185)
(10.9586 0.0278227 -0.0444867)
(10.9718 0.0455074 -0.0612862)
(11.1125 -0.19866 0.005706)
(11.0251 -0.107792 -0.00799987)
(10.934 -0.212104 0.00643288)
(9.8832 -0.380352 0.0653026)
(10.9135 -0.286405 0.0315481)
(10.9903 -0.6657 0.0692076)
(11.0287 -0.0751961 -0.0272731)
(12.4344 -1.27228 -0.0773146)
(9.95003 -0.161018 -0.00317029)
(10.1236 -0.957178 -0.272285)
(10.9446 -0.163761 -0.0130227)
(11.0032 -0.204232 0.0119537)
(12.3166 -1.02324 -0.0975407)
(10.134 -1.02311 -0.361522)
(10.5952 -1.0364 0.0891813)
(9.96686 -0.497979 0.123436)
(9.92861 -0.315593 -0.0503711)
(9.92406 -0.315463 -0.0851544)
(8.77715 -1.26415 -0.372776)
(10.7439 -1.22282 -0.179121)
(9.91343 -0.415328 0.00214347)
(11.0145 -0.544035 -0.147754)
(10.6009 -0.80048 -0.175757)
(10.1098 -0.710288 -0.223588)
(7.14112 -5.03788 -1.83752)
(10.7315 -1.77274 -2.21364)
(9.99874 -1.30617 -0.0511007)
(9.75541 -0.72471 -0.0582418)
(10.1371 -0.432425 0.0326713)
(10.0647 -0.386128 -0.000218124)
(9.88973 -1.23155 -0.0552093)
(8.90045 -1.50928 0.197462)
(9.84767 -0.857374 -0.510511)
(10.5347 -0.461471 -0.0172186)
(11.1327 -0.888765 -0.675069)
(9.81591 -0.386458 -0.0398616)
(10.852 -1.13996 -0.592207)
(9.83631 -0.588647 -0.00317905)
(9.96937 -0.471237 0.0535602)
(10.1201 -3.14823 -3.5939)
(6.7251 -4.60708 -0.782603)
(9.59838 -0.738526 1.08577)
(9.9659 -0.412509 -0.0184246)
(10.1088 -0.289746 -0.0198231)
(10.3952 -0.0351011 -0.00124153)
(10.789 -0.376564 0.0531989)
(10.1228 -0.951728 -0.391511)
(9.95105 -1.64202 0.14752)
(11.2232 -0.704545 -0.305579)
(10.023 -0.560565 -0.204972)
(11.5679 -1.02321 -0.147371)
(10.4915 -0.0302666 0.0194949)
(9.82854 -2.16678 -1.36403)
(9.41274 -2.03599 -1.85607)
(10.1278 -0.362992 -0.0102466)
(11.6266 -2.51184 -0.584252)
(11.1841 -0.23162 -0.00883654)
(9.71222 -0.807359 -0.508044)
(10.2026 -0.030976 0.0310775)
(9.88882 -0.138496 0.00440662)
(10.6194 -0.574035 -0.0123271)
(11.0539 -2.16435 -0.888602)
(11.0149 -0.272388 -0.0356212)
(11.3821 0.289409 -0.102213)
(7.60343 -3.9626 -4.07396)
(11.4853 -1.63091 -0.20931)
(11.3362 -1.45059 -0.262148)
(11.1529 -0.409473 -0.0873913)
(10.5805 -2.07814 -0.0508965)
(5.00534 -9.91263 -1.32123)
(10.02 -1.96743 -0.803832)
(8.93562 -2.15913 0.233072)
(10.0649 -0.431817 -0.0533079)
(9.36881 -8.11182 -5.06215)
(11.352 -0.458178 -0.125324)
(9.98714 -0.174611 -0.0318408)
(4.82703 -4.27431 -3.71982)
(9.44493 -2.84068 -1.60459)
(11.4778 -0.891753 -0.173388)
(11.1519 -0.635437 -0.212351)
(10.5291 -0.765728 -0.283125)