/*--------------------------------*- C++ -*----------------------------------*\
| =========                 |                                                 |
| \\      /  F ield         | OpenFOAM: The Open Source CFD Toolbox           |
|  \\    /   O peration     | Version:  2506                                  |
|   \\  /    A nd           | Website:  www.openfoam.com                      |
|    \\/     M anipulation  |                                                 |
\*---------------------------------------------------------------------------*/
FoamFile
{
    version     2.0;
    format      ascii;
    arch        "LSB;label=32;scalar=64";
    class       volScalarField;
    location    "0.0563527";
    object      k;
}
// * * * * * * * * * * * * * * * * * * * * * * * * * * * * * * * * * * * * * //

dimensions      [0 2 -2 0 0 0 0];

internalField   nonuniform List<scalar> 
3918
(
1.16303
0.467691
0.374936
0.445988
0.354211
0.865092
0.864476
0.364121
0.430688
0.831995
0.458288
0.798531
2.40237
0.521598
0.400265
0.568165
0.687406
0.246163
0.248948
0.971979
0.83969
0.477
0.348928
0.511564
0.349533
1.53094
0.407193
0.370783
0.232726
2.41635
0.322843
0.360444
0.371865
1.0852
0.927338
1.57098
0.511662
0.406753
0.700003
0.354863
0.477617
0.33106
0.459806
0.534252
0.350602
0.516801
0.352725
0.642346
0.67472
0.434157
0.558163
0.449276
0.465664
1.93403
0.342499
1.07852
0.34468
1.86167
0.418638
0.887928
0.405949
0.36164
0.562365
0.625008
0.594725
0.380258
0.747068
0.656502
0.829109
0.780806
0.444209
0.882259
0.804494
0.972392
1.03852
0.807608
1.36818
1.84623
1.48568
0.357111
0.484102
0.764215
1.87802
0.963304
0.366618
1.4395
0.31104
0.294072
1.28053
0.337607
0.697342
0.448211
1.50283
0.406831
0.372891
0.34039
0.382014
0.353433
0.315216
0.797977
0.345442
0.360749
0.390924
0.347568
0.362998
0.240325
0.563386
0.491799
0.534422
1.06877
0.217149
0.398031
0.13635
0.29861
0.398205
0.271059
0.203372
0.450627
0.842741
0.975807
0.526141
1.43877
2.14344
0.570233
0.656026
1.23847
1.20147
0.505537
0.576022
0.427448
0.333679
0.943408
0.618808
0.391559
0.567848
0.626129
0.235606
0.254654
0.227344
0.751682
0.689109
0.239004
1.75422
0.822113
0.926292
0.778122
0.77273
0.726967
0.908608
0.962872
0.395192
0.431132
0.873698
0.910458
0.536775
0.582636
1.11208
0.842391
0.338327
0.355226
0.438589
0.406022
0.464775
1.68603
0.54259
0.352124
0.200747
0.919281
0.16357
0.304097
0.51049
0.226198
0.220014
0.198363
0.243623
1.52486
1.30091
0.461619
0.822749
0.469796
0.34468
2.19067
1.19174
2.46955
1.1003
0.613711
0.633185
0.533263
1.73641
2.1028
0.334391
1.42327
0.640688
0.753833
0.468741
0.703889
0.470201
0.773091
1.09927
0.389027
1.1176
1.10584
0.213134
0.494216
0.144827
0.737855
0.836552
0.700158
1.70126
0.390255
0.619514
0.467863
0.406379
0.414965
0.42003
0.809474
0.734705
0.61248
0.63822
0.611745
0.873124
1.13844
0.324038
1.11673
0.911034
1.72416
0.457598
1.33439
0.871543
0.747843
0.923294
1.7229
0.567162
0.477618
0.372862
1.03173
0.211984
0.394549
1.53187
0.331769
0.543713
0.907421
0.707663
0.470433
0.363012
0.398187
0.344984
0.456023
0.616492
0.392448
0.496859
0.868277
0.346263
0.422679
0.517141
0.458354
0.869264
0.452159
0.840356
0.580253
0.286063
1.08443
0.594812
0.333972
0.741153
0.402242
0.774279
0.445804
0.676426
0.439955
0.937314
0.500825
0.355747
0.502291
0.453744
0.424455
0.855198
0.936822
1.03779
0.399635
0.528772
0.770604
0.923419
0.371967
0.411072
0.592732
0.453506
1.05966
0.334361
0.400788
0.910144
0.489724
0.778242
0.329829
0.592049
0.516862
1.0602
0.302795
0.318377
0.418242
0.537881
0.440168
0.401532
0.635527
0.859748
0.406558
0.668686
0.466732
0.334484
0.59003
0.639535
0.904347
0.339849
0.266839
0.587068
0.84318
0.375355
0.426874
1.12787
1.02768
0.494791
0.359533
1.00366
1.36796
0.695565
0.963468
0.493634
0.553504
0.354738
0.471917
0.529331
0.521749
0.422541
2.21219
0.338666
0.471429
0.907531
0.431688
0.894405
0.370843
0.334339
0.637075
0.908861
0.457938
0.468491
0.887206
0.360102
0.596475
0.411085
0.568721
0.791494
0.51492
0.801249
0.401522
0.454042
0.32782
1.84403
0.73818
0.760049
0.444525
0.44242
0.527827
0.498294
0.583705
1.15949
0.334985
0.763907
1.62218
1.67362
0.638435
0.465176
0.629465
0.706229
0.686889
0.663878
1.31524
1.10869
0.627956
0.549245
0.389362
0.344099
0.849875
0.608743
0.447311
1.14384
1.77051
0.862977
0.350552
1.70347
0.782005
0.607639
1.14407
1.32467
0.872329
0.404236
0.843897
0.804508
0.501769
0.853479
0.844467
0.481474
0.339055
0.5009
0.4411
0.890263
0.871527
0.673772
0.31508
1.48018
1.19928
1.20861
0.502417
0.360241
1.76704
0.550063
0.580751
1.88905
0.33711
0.446037
0.398346
0.492292
1.0985
0.34832
0.406016
1.33706
0.362015
0.623228
0.347435
0.66368
0.430768
0.364222
0.537614
0.253644
0.780674
0.404234
0.799466
0.861244
0.407336
0.517097
0.414195
0.35967
0.512661
1.27392
0.678266
0.824264
0.451152
0.5933
0.625828
0.693222
1.14857
2.2206
0.635885
1.58155
0.519917
0.568133
0.716426
0.94398
0.73368
0.925059
1.33235
0.368998
0.696863
0.500228
0.350214
1.48831
2.03893
0.386286
0.401851
0.371558
0.485102
0.271068
0.364205
0.984262
1.75934
0.596923
0.423182
0.384
1.65549
1.14469
0.583624
0.496432
0.774584
0.431681
0.45404
0.762334
0.577202
0.71625
1.00546
0.431574
0.376066
1.25818
1.16932
0.630144
0.735861
0.359079
0.514822
1.47779
0.395625
1.24799
0.458483
0.383086
0.543824
0.459739
1.16868
0.441752
0.378754
1.02676
1.22148
0.493205
0.39254
0.475754
0.427378
0.391441
0.359606
0.370698
0.339614
0.359149
0.443975
0.345061
0.577413
0.412057
1.017
0.381541
1.14449
0.628943
0.825986
1.28624
0.345924
0.457111
0.48014
0.44735
1.10798
0.435707
0.637876
0.907277
0.465303
0.664371
0.513945
0.327553
0.463928
0.701379
0.435852
0.368648
0.348948
0.695397
0.932353
0.759715
0.731966
0.390836
0.555357
0.352323
1.28365
0.756027
0.641902
0.591491
0.57337
0.921631
0.960752
0.45534
0.829505
1.05254
1.57578
0.30346
1.16881
1.72737
0.771684
0.526156
0.414872
0.82876
0.390848
0.565523
1.08674
0.851752
0.492379
0.718375
0.749584
0.493381
0.408758
1.18563
0.434622
0.419067
0.736873
0.538351
0.379018
0.797598
0.733469
1.56336
0.590583
1.21719
0.924011
0.692503
0.620823
1.05288
0.529675
1.06787
1.1838
1.29743
0.982224
0.87903
0.737394
0.33391
0.955222
1.88419
0.662449
1.69905
1.2555
0.427714
0.692352
0.540586
0.772996
2.2447
0.483638
1.4702
0.543175
0.37319
0.776388
0.596771
0.55765
0.579997
0.512406
2.05374
2.33775
1.33062
0.518113
0.302353
0.66
0.412045
0.535861
0.353872
0.771095
0.345094
0.331512
0.374402
0.456044
0.326328
0.424526
0.609389
0.421199
0.568667
0.526894
0.432483
0.421166
0.510656
0.498737
1.0074
0.648852
0.647831
0.347498
0.478482
0.333742
0.338774
1.67595
0.335811
0.771864
0.340314
0.34249
0.380495
1.23377
1.12687
1.11151
0.443111
0.950621
0.520531
0.648554
0.62948
0.617431
0.634015
0.620994
0.895637
0.645182
0.483086
0.369827
0.539186
0.343274
0.444467
0.575846
1.16138
0.621866
0.911378
0.662929
0.908719
0.734499
0.423975
0.924313
0.407034
0.488002
1.60576
0.935853
0.4563
0.502873
1.29406
0.514501
0.89625
0.930448
0.661004
1.03632
0.900031
0.774671
0.770347
0.649997
0.64372
0.696188
0.612264
0.921165
0.427669
0.439663
0.516581
0.380865
0.606065
0.67422
0.806987
0.763531
0.464753
0.428506
0.485253
0.526304
0.511248
0.360254
0.337298
0.337495
0.345282
0.474465
0.329911
0.359745
0.340115
0.495139
0.35084
0.330823
0.332489
0.345148
1.11459
1.0474
1.08139
0.37149
1.3876
0.410716
0.660527
0.544397
0.730988
0.409442
0.368543
0.720062
0.413123
1.75952
0.426598
0.39594
0.716865
1.45124
0.336896
0.42263
0.43403
0.38549
0.485225
0.56058
0.613879
1.23736
1.19312
0.58853
1.64914
2.37995
1.53605
1.1937
0.357457
0.362308
0.852807
0.518796
0.513103
0.517988
0.702065
0.684333
0.349803
0.616919
0.573751
0.53122
0.565449
0.368661
0.407935
0.499931
0.549075
1.12561
0.59539
1.18152
0.33335
0.33279
1.03489
0.359004
0.326848
0.395815
0.464524
0.459178
0.762393
1.03136
0.538977
0.807542
0.584785
0.349697
0.360011
0.383716
0.39683
0.403052
0.432922
0.381515
1.00668
1.00899
0.774876
0.885387
0.476908
0.371283
0.856373
0.859868
0.429527
0.658993
0.448419
0.802344
0.391817
0.923744
0.39317
0.848054
0.327598
0.698943
0.745363
0.84138
0.702768
0.785939
0.958811
0.691459
0.476017
0.44873
0.616882
0.532867
0.40125
0.545044
2.08466
0.429996
0.343635
0.373741
0.553156
0.545587
0.356646
0.693929
1.30151
1.40258
0.376134
0.434463
0.595693
1.1922
0.460783
0.643385
0.662949
0.320309
0.333453
0.459343
0.453662
0.833309
0.492854
0.425807
0.865852
0.862976
0.765766
1.12018
1.06976
0.764316
0.394395
0.364363
0.826215
0.369953
0.350213
0.34132
0.43024
0.403789
0.492105
0.369115
0.391419
0.581463
1.36801
1.1878
0.367463
0.606358
0.387883
0.405599
0.549287
0.371386
0.32995
0.576136
0.383125
0.605207
0.901049
1.18322
0.697194
0.530077
0.322253
0.387399
0.519994
0.824417
0.38811
0.864971
0.699935
0.474865
0.520039
0.462582
0.783086
0.395057
0.481218
0.771199
0.521957
0.812203
0.966518
0.846067
1.09946
0.79521
0.418841
0.331404
0.425929
0.938056
1.37727
0.763157
0.485727
0.335799
0.364291
0.597124
0.344881
0.396127
0.493466
0.46505
0.656697
0.898649
0.388676
0.382679
0.471076
0.434082
0.554653
0.418066
0.892084
0.508345
0.712313
0.950908
0.456303
0.381066
1.11457
0.352735
0.384866
0.82212
0.567018
1.32736
0.973086
0.51023
0.471658
0.600898
0.649754
0.409488
1.20537
0.94971
0.947478
0.408759
0.381846
0.994434
0.427821
1.62736
0.921006
0.402067
0.37926
0.43875
0.476426
0.425648
0.436306
0.684151
0.497673
0.78162
0.431139
0.434974
0.58231
0.712059
0.56561
1.34424
0.695964
0.881362
1.52495
2.45389
0.473499
0.836439
1.16148
1.3024
0.328047
0.419406
0.371479
0.743056
0.864468
0.367959
0.325636
0.339457
0.53707
0.377493
1.02228
0.908298
0.520428
0.203084
0.949439
0.71523
1.09075
0.231193
0.331038
1.02528
0.98359
0.654053
0.459454
0.452936
1.09852
1.2543
0.710576
0.384902
1.02513
0.836226
0.64932
1.77857
0.380969
0.376139
2.3374
0.433515
1.76417
0.476466
1.0331
0.613753
0.938103
0.589763
1.45955
0.34943
0.661214
0.360246
0.547232
0.330347
0.416868
0.596981
0.427846
0.444135
0.961401
0.753138
0.313488
0.462935
1.41392
0.361163
0.579118
0.542205
0.574302
0.725623
0.634998
0.5391
0.658093
0.414129
0.491063
0.369119
0.522249
1.01205
0.784988
0.460247
0.413355
0.757788
0.374877
0.383624
0.413049
0.475992
0.496636
0.422179
0.488875
0.413024
0.607486
0.736426
0.88351
0.471634
0.325543
0.652264
0.693329
1.06274
0.923765
0.90547
1.45717
0.789369
0.228395
1.12897
0.378334
0.634
1.33892
0.346229
0.422318
1.00304
0.350927
0.465082
1.84261
0.90466
1.30226
0.851437
0.380146
0.443189
0.448568
0.425973
0.450666
0.689397
0.636916
0.387044
0.814299
0.430628
1.10862
0.419146
0.450139
0.728847
1.39469
1.04549
0.931746
1.02072
0.429391
0.327954
0.484186
0.80356
0.773114
0.889344
1.44757
0.894131
0.427115
0.385455
0.367436
0.488894
1.28965
0.831924
1.09966
0.614861
0.523475
0.609437
0.661261
1.00547
0.351387
0.361503
0.693642
0.337891
0.330825
0.365335
0.344774
0.331116
0.384686
0.392247
0.421757
0.199561
0.917805
0.471101
0.608254
0.347987
1.04677
0.690237
0.472432
0.369288
0.335932
0.344641
1.0366
0.75091
1.21086
0.473695
0.739991
1.09929
0.796829
0.953672
0.340873
1.34875
0.914253
0.46535
0.651522
0.658245
0.529152
0.840594
0.387691
0.453911
0.451581
0.378508
1.0798
0.712895
0.869685
0.325204
0.630955
0.395567
0.453646
0.33925
0.318689
0.455454
0.31261
0.457627
0.444852
0.238879
0.385311
0.766385
0.36459
0.390968
0.470236
1.16143
0.451942
0.496625
0.706259
0.37435
0.359429
0.774034
0.962011
0.553819
0.495048
0.51185
0.406567
0.546059
0.761082
1.73176
0.459498
0.328747
0.38581
1.00946
0.662173
0.439593
0.520971
0.802649
0.461381
0.552729
0.602061
0.358284
0.341248
1.07535
0.589405
0.958302
0.33229
0.383066
0.326168
0.368543
0.697736
0.366096
0.388552
0.93585
0.430826
0.374822
0.38768
0.3619
0.829667
0.437328
0.371171
0.569816
0.653747
0.479228
0.920271
0.490348
0.510361
0.414994
0.395223
0.369887
0.270688
0.234518
0.761267
0.190347
3.02699
2.1065
0.633891
0.492472
1.22565
0.435359
0.344693
0.343046
0.340446
0.32647
0.930481
0.505879
0.917174
0.325109
0.628701
0.661292
0.446877
0.346046
0.436628
0.739447
0.431721
0.33636
0.349648
0.336445
0.35353
0.326057
0.600392
0.484498
0.353008
0.258036
1.13501
0.406556
0.182277
0.800767
0.460491
0.501382
1.03737
0.198994
0.20807
0.40893
0.776577
0.385291
0.445272
0.556643
0.492013
0.641602
0.344008
1.13148
0.775726
0.788954
0.903521
0.639797
0.393466
0.351227
0.34913
0.342196
1.41223
0.540737
0.712747
0.885893
0.760545
0.941208
0.400359
0.620545
0.929299
0.421557
0.399985
0.427593
0.973024
0.393371
0.829089
0.635651
1.02349
0.932327
0.869202
0.96572
0.585422
0.802758
0.925307
1.42879
0.890161
0.820312
0.779813
0.49353
0.258982
0.294293
1.0827
0.457512
0.794228
0.362306
0.351552
0.708333
0.654185
0.371862
0.712519
0.549138
0.298426
0.69554
0.440796
1.07605
0.463511
0.646045
2.02522
0.698252
0.373045
1.32759
0.51195
0.649525
0.518652
0.337341
0.45442
0.343712
0.343587
0.796321
0.837794
0.76906
0.338529
0.666092
0.775126
0.863391
0.448725
0.597642
0.71352
1.0554
0.901201
0.337862
1.26753
0.417233
1.24396
1.02499
0.897247
0.904758
0.464294
0.706972
0.991343
0.355168
0.639162
0.777238
0.416898
0.873564
1.22353
0.721585
0.921052
0.759401
0.806919
0.418196
1.97426
0.550583
0.773195
1.90032
0.791218
0.349799
1.83524
0.459665
0.425048
0.61157
0.27964
0.694549
1.00494
1.56359
1.64792
0.44945
0.344249
0.356135
0.459555
0.334262
0.346619
0.327308
0.365357
0.339154
0.790346
1.28901
0.767645
0.347799
0.448914
0.314361
0.695729
0.44472
0.704484
0.379797
0.385167
0.751241
0.377071
0.358536
0.345573
0.365932
0.493986
0.798714
0.354121
0.330785
0.704697
0.485472
0.326492
0.433207
0.384187
0.35334
1.42135
2.00137
1.452
0.69289
0.471494
0.757112
0.389114
0.375564
0.741054
0.922249
0.917314
0.508971
0.41246
0.387498
0.398769
0.499928
0.39111
1.15008
0.666456
0.791173
0.405983
0.341815
0.372906
0.342336
0.399686
0.383596
0.800959
0.609428
0.727577
0.40078
0.527353
0.403027
0.349399
0.70305
0.65916
0.750541
0.908769
0.613251
0.496169
0.610352
0.401336
0.393395
0.617504
0.378409
0.672018
0.438184
0.439389
0.823676
1.06773
0.799361
0.971266
0.907737
0.881051
0.450546
0.384489
0.475632
0.3578
0.859893
0.566045
0.586584
0.539856
0.679386
1.11614
0.461027
0.418464
0.227181
0.44067
0.870056
0.423903
0.388516
0.777255
0.582268
0.336609
0.360298
0.455002
0.464697
0.523472
0.531074
1.14842
0.701361
0.375403
0.876737
0.490162
0.395353
0.806403
0.514593
0.658601
0.719023
0.955464
0.669159
1.48559
0.386344
0.432538
0.363419
0.43966
0.746536
0.51176
0.935367
0.374716
0.799412
0.80542
0.714505
0.539224
0.992666
0.793947
0.271586
0.459208
0.485319
0.454405
0.468336
0.422121
0.381438
0.32106
0.710075
0.542747
0.846477
0.503995
0.725022
0.895489
0.332912
0.376685
0.803132
0.592478
1.02866
0.721294
0.698473
1.00262
0.284294
0.319918
0.327559
0.651032
0.235597
0.426303
0.913956
0.738211
0.703545
0.336192
0.537276
0.883133
0.461419
0.357152
0.352095
0.42005
0.431673
0.382125
0.373029
1.89067
0.477765
3.00538
1.12984
0.987978
0.431739
0.722627
0.498151
0.341076
0.874676
1.49965
0.521656
1.73176
0.41003
0.726683
0.926224
1.33656
0.441519
0.629408
1.24139
0.36454
0.621692
0.544613
0.38133
0.437605
0.463689
0.866415
0.372157
0.623586
0.24577
0.551773
0.498837
0.745909
0.370423
0.321784
0.873436
1.22445
1.10013
0.691029
0.52492
0.541134
0.392934
0.385258
0.268831
0.409404
0.925874
0.423803
0.799673
0.783001
0.390813
1.26069
0.902056
1.32269
0.343422
0.493742
0.568411
0.394581
1.8183
0.781565
0.73524
0.449619
0.876415
0.511549
0.763754
0.926775
0.534104
0.427721
0.773264
0.785943
0.519792
0.613949
0.585856
0.550215
0.347788
0.597942
0.582267
0.534717
0.614055
0.539603
0.537857
1.13191
0.235449
0.256221
0.259211
0.218979
0.255183
0.730792
0.92743
0.831686
0.711116
0.813221
0.478013
0.322375
0.762801
0.321983
0.574934
0.501155
0.63931
0.65034
0.47293
0.510121
0.467786
0.596953
0.534138
1.81021
1.1554
0.32247
1.3766
0.40859
2.36025
1.43879
0.704084
0.5214
0.379231
0.391708
0.615771
0.660649
0.929623
0.939715
0.538318
0.827654
0.727779
0.849319
1.00063
1.66362
0.302035
0.375139
0.498025
1.59452
0.358149
0.449609
0.397729
0.298155
0.766733
0.71516
0.378961
0.56938
0.729053
0.779006
0.830666
1.20284
0.949882
0.7213
0.615939
0.378408
0.969189
0.559615
1.86896
0.582854
0.443316
0.551327
0.660758
0.566586
0.466675
0.76387
0.605926
0.670091
1.49291
0.825527
0.77401
1.28616
0.780281
0.336416
1.16222
0.417484
0.508351
0.506613
0.74207
0.594288
0.527935
0.401907
1.96582
0.806048
0.486543
0.442267
0.348828
0.514173
1.22017
0.66089
0.53368
1.19148
3.81262
0.382492
0.528316
1.17163
0.545432
0.383503
1.48868
1.19498
1.16347
0.395861
0.476347
0.697074
0.679943
0.55314
0.436018
0.449124
0.464364
0.347858
0.349299
0.344164
0.341984
0.406567
0.497097
0.41069
0.386686
0.897175
0.539646
0.434076
0.429546
0.456267
0.357453
0.490144
0.670666
0.501916
0.454582
0.682803
0.908535
0.769365
0.357415
0.427761
0.379685
0.364632
0.625698
0.369092
0.408755
0.219811
0.28059
0.732474
0.625548
0.830772
0.627826
0.703773
0.553663
0.403071
0.354431
0.891733
0.921355
0.409155
0.986306
0.892765
0.891169
1.16502
0.384225
0.353424
0.825329
0.973598
0.487554
0.671489
0.751815
0.841404
0.81708
0.548834
0.583401
0.727226
1.0216
0.590876
1.43194
0.652779
0.940435
0.410527
0.87123
0.422659
0.84656
0.522974
0.9033
0.640212
0.629389
0.416574
0.25295
0.563302
0.558025
0.761066
0.887356
0.458737
0.824138
0.616033
0.39736
0.48521
0.717136
0.781541
0.420086
0.395385
0.402906
1.21483
0.593843
0.442553
0.994207
0.499213
0.390152
0.458507
1.11103
0.934717
0.697021
0.975634
0.699383
0.974012
0.943758
0.431438
0.68371
1.36479
0.827034
0.939486
0.333637
0.682139
0.663586
1.12755
0.338906
0.76495
0.759675
0.87257
0.839292
0.605396
0.74659
0.739141
0.647207
1.02636
0.765137
0.601997
0.342896
0.403794
0.383301
0.773548
0.394453
4.65203
1.06775
0.645688
0.971161
0.959035
0.95729
0.91153
0.94121
0.598047
1.61191
0.436094
0.549846
0.716722
0.361139
0.378515
0.348722
0.628607
1.79267
0.566472
1.68965
0.474678
0.915115
1.39552
0.807665
0.568685
0.64249
0.868981
0.819077
0.540457
0.375767
0.357622
0.338589
1.47424
1.82438
0.832334
1.06958
1.4619
1.07505
0.357208
1.24541
1.95809
1.53495
1.68953
0.500356
1.45019
0.468903
0.578559
1.16607
0.766753
0.454896
0.75245
0.497207
0.616213
1.40369
0.526362
0.865373
0.733383
0.484943
0.453919
0.780936
0.42025
0.799178
0.61905
0.757752
0.458198
1.19784
0.344551
0.45823
0.592423
0.373907
0.463651
0.61601
0.925921
0.701421
0.604113
0.575271
0.645868
1.47372
1.30515
0.533349
0.464386
0.718511
0.688044
0.635336
0.416057
0.522869
0.459099
0.396236
0.484631
0.943978
0.942405
0.42094
0.776311
0.709749
0.315983
0.547962
0.382007
0.379067
0.875081
0.375948
0.346233
0.866183
0.715598
0.852996
0.391364
0.396126
0.368433
0.435481
0.674928
0.515836
0.476116
0.383748
0.414299
0.443662
1.2188
0.697205
0.734175
0.440225
0.439002
0.698817
0.404745
0.424967
0.500456
0.789712
1.03485
0.384418
0.636125
0.411635
0.747414
0.805432
0.914074
0.782419
0.480523
0.992497
0.485983
0.454199
0.489759
0.65591
0.350479
0.376198
0.352065
0.370527
0.825242
0.617885
0.748274
0.478536
0.81876
0.330866
0.40514
0.497382
0.650002
0.41743
0.35473
0.340979
0.582037
2.3976
0.326043
0.517275
0.39772
1.4364
0.863887
0.366874
0.522991
0.470152
0.397084
0.878458
0.530934
0.820383
0.537869
0.601213
0.383869
0.725445
0.630537
0.341219
0.32718
0.355512
0.855277
0.874359
0.965271
1.94846
0.365308
1.0185
0.49013
1.25954
0.458378
0.916094
0.643797
0.493808
0.604895
0.480353
0.430561
0.490644
0.435376
0.960085
0.438597
0.5437
0.663101
1.08735
0.84473
0.719651
1.36382
0.469683
0.747085
0.728158
0.339852
0.464524
1.05315
0.679869
0.426271
0.476642
0.683656
0.601425
0.465934
0.48434
0.958602
0.451921
0.323026
0.341692
0.400822
0.452435
0.547237
0.358903
1.56394
1.41381
0.402045
0.638308
0.653201
0.427501
1.81787
1.06816
0.709997
1.14178
0.423194
0.763519
0.874682
0.331233
0.335705
0.415423
0.56262
0.323832
0.366851
0.32934
0.356164
0.45329
0.363188
0.629007
1.06493
0.455235
0.4513
0.407462
0.763322
1.69731
0.750952
0.532399
0.667199
0.377045
0.534786
0.702381
0.390206
2.03366
0.554519
0.530175
0.835548
1.20004
0.489483
0.906988
0.529358
0.44634
0.4454
1.40344
0.51523
0.33943
0.388986
0.518344
0.430453
0.414704
0.344744
0.695217
0.631696
0.362931
0.438255
0.472912
0.441382
0.362065
0.466764
1.3549
0.442038
0.827747
0.419583
0.382273
0.399093
0.373318
0.880616
1.24036
2.06197
0.456376
0.759634
0.659182
0.687338
0.362477
2.17765
0.667415
1.39226
1.49611
0.933957
0.625642
0.760497
1.23683
1.84034
0.413095
0.350866
1.67014
1.37998
0.364466
1.67145
1.42777
0.485324
0.470806
0.924663
1.81203
0.804368
0.461117
0.474736
1.46855
0.479917
0.466737
0.20695
0.313398
0.42149
0.374402
0.748626
1.12101
0.742368
1.20174
0.389109
1.82842
0.416335
0.367051
0.809782
0.44239
0.416335
0.387648
0.709583
1.00038
0.665409
0.243984
0.328213
1.31878
1.62086
1.22984
1.17997
1.08255
0.891321
0.739721
0.693494
0.421369
0.606032
0.417235
0.983435
0.595496
0.426501
0.420255
0.772261
0.544048
0.468806
0.873772
0.888927
0.966395
0.99906
0.618965
0.535659
0.400209
0.429309
0.500857
0.540589
0.295509
0.482205
0.446613
0.608147
0.558017
1.40691
0.472212
0.323729
0.473152
0.510095
0.361251
0.369788
0.37142
0.884344
0.747276
0.970909
0.639745
0.424594
0.270917
0.727911
0.605445
0.689024
1.12151
0.749327
1.35735
0.268184
1.55343
0.321952
0.260105
1.73256
0.483234
0.853977
0.408397
0.418792
0.387212
0.444888
0.465628
0.378426
0.383634
0.558129
0.455387
0.447827
0.99007
0.476584
1.0185
1.32731
1.29483
1.62502
1.84871
0.664489
0.320687
0.500336
0.364648
0.34825
0.364731
0.531676
0.322481
0.929285
0.621308
0.771239
0.815507
0.900085
0.423472
0.430701
0.655769
0.344775
1.01324
1.02044
0.907871
0.726494
1.03889
0.278562
0.46416
0.665738
0.3375
0.362269
0.800342
0.467218
0.823251
0.26027
0.420876
0.535223
0.670021
0.804637
0.831096
1.15078
0.675366
0.684267
0.215062
0.975533
0.60683
0.715165
0.327391
0.479127
0.459088
0.496663
0.439872
1.12794
1.02144
0.525445
1.21067
0.977521
0.973089
0.953234
0.820557
1.06755
0.511326
1.12198
1.23576
0.233767
0.465338
0.326554
0.337205
0.346291
0.349481
0.341393
0.346868
0.527099
1.25985
1.23701
0.702249
0.99276
0.431271
0.166324
0.484752
0.873643
1.37551
1.64298
1.03654
0.917378
0.877198
0.802736
1.77031
0.431355
0.686294
1.02697
0.435014
1.55462
0.78815
0.808937
0.389924
0.405322
0.396363
0.419602
0.580483
0.760384
0.679995
0.863988
0.413406
1.17062
1.31181
1.00215
0.749588
0.743955
1.39377
0.435002
0.748982
0.632108
0.704999
0.497466
0.373146
0.446448
0.494575
0.488178
0.412992
0.540377
0.510325
0.386068
0.672341
0.366796
0.525865
0.487507
0.572414
0.488921
0.343965
0.347009
0.349611
0.803658
1.00253
0.882233
0.33093
0.981359
0.954889
0.805612
0.339637
0.332876
0.921723
0.600608
0.825828
2.65947
1.1104
0.414991
0.534434
0.382165
0.452591
0.452543
1.0294
0.723541
0.989137
1.27417
0.649466
0.889954
0.609813
0.523953
0.427132
0.654836
0.395605
0.755167
0.660415
0.598289
0.603533
0.822989
0.766899
0.92193
0.819029
0.954628
0.67555
0.362593
0.399622
0.361127
1.41713
1.54753
1.42136
0.405157
0.515185
1.25257
1.68584
1.75169
0.860271
0.515387
0.37002
0.394808
0.345325
0.505137
1.36888
1.06634
0.922392
0.394009
0.89696
0.607375
0.616653
0.507346
0.763155
0.649478
0.76559
0.943905
0.976233
0.832892
1.03649
0.514502
0.599618
0.94834
1.15215
1.02235
0.901551
0.715516
0.516754
0.471102
0.455067
0.423225
0.457174
0.529969
0.530687
0.412953
0.574568
0.369715
0.678358
0.837151
0.335172
0.526543
0.463087
0.587245
0.563495
0.524209
0.356763
0.418159
0.473042
0.85652
0.335448
0.964066
0.498966
0.446925
0.471597
1.12686
1.17561
0.968219
0.492672
0.880239
0.588454
0.338185
0.444922
0.758691
0.568934
0.835832
0.884645
0.461928
0.427018
0.715834
0.419757
0.347595
0.338659
0.799382
0.66998
0.694872
0.452446
0.486836
0.361999
0.349616
0.387599
0.33368
0.43755
0.430887
0.340353
1.00688
0.395584
0.790754
0.415422
0.392226
0.45043
0.447617
0.406532
0.326411
0.848115
0.400353
0.393674
0.332223
0.362406
0.864779
0.384499
0.3664
0.60931
0.413695
0.603842
0.328635
0.348182
0.394012
0.824117
0.513926
0.558346
0.490428
0.37489
0.463159
0.526843
0.397977
0.341745
0.364923
0.470038
0.66703
0.396441
2.08742
0.3945
0.623712
0.525803
0.393381
0.332087
0.347509
0.78987
0.899739
0.970905
1.12325
0.340665
0.482388
0.558885
0.356214
1.10441
0.995606
0.923485
0.525578
0.918845
0.388018
0.363297
0.373021
0.424581
0.352303
0.427513
0.371661
0.866253
0.370859
0.343418
0.893894
0.453776
0.560853
0.331763
0.817609
0.322001
0.399728
0.781681
0.385492
0.383654
1.76346
0.354988
0.395964
0.504815
0.935226
0.362785
0.333064
0.490597
0.461177
0.374172
0.393834
0.444718
0.516453
0.39968
0.450508
0.699116
0.523529
0.686294
0.499276
0.602868
0.756343
1.53932
0.690263
0.98546
0.610683
0.369418
0.389476
0.380515
0.356487
0.529957
0.860988
0.641962
1.02665
0.526412
0.380724
0.875818
0.550029
1.19014
1.75023
1.3271
1.48211
1.38723
1.39252
0.41
0.368879
0.58069
0.550608
0.568777
0.740784
0.617673
0.391586
0.763331
0.660495
0.669032
0.52206
0.268685
0.347496
0.328783
0.372363
0.708737
0.350103
0.517751
0.466534
0.489777
0.477416
0.391462
0.358591
0.472973
0.416438
0.443716
0.656524
0.769229
0.621356
1.45069
0.394882
0.787489
0.399817
1.17036
0.951576
0.75588
0.806799
0.759012
1.36239
0.357039
0.524782
0.863814
0.577787
0.356177
0.36251
0.454571
1.15372
1.95165
0.869362
1.14565
0.338432
0.500584
0.759188
0.592137
0.490633
0.868337
1.00304
0.271576
0.498092
0.787433
0.82111
0.619248
0.447383
0.336371
0.737212
0.663672
0.511036
0.342864
0.450197
1.19453
0.723506
0.685962
0.467312
0.619286
0.702843
0.521195
0.680505
0.834147
0.381171
1.10867
1.17736
0.353713
0.45741
0.35771
0.338256
0.341258
0.33243
0.451546
0.414855
0.336199
0.346077
0.336026
0.679037
0.63177
1.27889
1.8185
0.357714
0.430244
0.500349
0.895396
0.343233
1.93595
0.389911
0.708792
0.457432
0.66479
0.561814
0.520509
0.683474
0.575301
1.71275
1.44472
0.812334
0.841107
0.821105
0.509639
0.52137
0.815478
0.394018
0.46929
0.549722
0.657785
0.593924
0.924951
0.786861
0.971831
0.88153
0.820752
0.780649
1.00319
0.798932
0.356693
0.536878
1.03333
1.86803
1.80411
1.54485
0.392609
1.06016
0.387363
0.489457
0.481043
0.915356
0.369887
0.368589
1.00439
0.520791
0.952871
0.50479
0.799747
0.357507
0.353501
1.45678
0.38284
0.41204
0.648037
0.921744
0.375307
0.763781
0.542252
0.811586
0.699182
0.526955
0.526319
0.488216
0.478851
0.669095
0.519173
0.725281
0.355491
0.44564
0.457645
0.777947
0.507226
0.502009
0.519595
0.714172
0.445173
1.20702
0.988332
0.371327
0.700653
1.08674
0.768198
0.39275
0.414128
0.398733
0.667413
0.527909
0.504392
0.753652
0.511861
0.444837
0.686757
0.930685
0.774337
0.802996
0.884772
0.657106
0.641488
0.669771
0.471399
0.492611
0.900334
0.443915
1.8335
0.520387
0.734168
1.63147
1.67636
1.38119
1.6637
1.53061
1.69393
2.55162
1.20132
1.49911
1.82792
0.644044
0.416746
1.56671
1.19028
1.03771
0.377107
0.937028
0.660554
0.514578
1.09707
0.638977
1.32543
0.411625
0.719296
0.762347
1.94238
1.76334
0.441198
0.704674
0.903311
0.788662
0.699026
0.544049
0.272652
0.923269
0.379572
0.527058
0.614685
0.400321
0.358679
0.307363
0.386088
0.851784
0.393732
0.422012
0.295699
0.404665
0.44103
0.748977
0.732055
0.655026
1.01424
0.808671
0.525696
1.14821
0.694209
0.395047
1.71946
0.885778
0.321163
0.402737
0.33202
0.768335
0.337869
0.342014
0.423572
0.435095
0.475218
0.4709
0.40457
0.446136
0.420633
0.365815
0.613044
1.94148
1.74351
1.64585
1.4983
2.99552
0.434311
1.17105
0.818439
1.09891
0.485071
0.420851
0.41896
0.545513
0.564615
0.509949
0.438246
0.347314
1.38712
1.4018
1.34517
0.347025
0.800663
0.400414
0.441505
0.500949
0.476612
0.454646
0.508339
0.583415
2.09771
0.676306
0.655575
0.886548
1.5397
0.717424
0.737276
1.00369
2.81609
0.883132
0.382382
0.358567
0.680669
0.383777
0.72543
0.407701
0.541178
0.615101
0.767461
0.332053
0.358197
0.55502
0.337767
0.358333
0.858085
1.80902
0.698762
0.743735
0.788272
0.49015
0.410722
0.40554
0.488646
0.813736
0.911164
0.420367
0.560045
0.74938
0.503078
0.661336
0.677184
0.351555
0.349766
1.10321
0.330376
0.401542
0.593607
0.639277
2.00988
1.0062
0.788171
0.545658
0.945306
0.517111
0.601136
0.902988
1.46709
1.26888
1.62346
1.52226
0.955765
1.30463
1.31511
1.27081
1.63441
1.1533
1.3642
0.903945
0.489779
0.315581
0.881896
0.305934
0.946153
0.364143
0.543891
1.74295
1.83041
0.733025
0.804115
0.785423
1.17357
1.81112
0.418634
0.307786
0.281707
0.348553
0.247299
2.14811
1.15541
1.7222
0.32115
1.431
1.32473
0.856171
0.569807
0.791658
1.84215
0.441314
0.676752
0.811037
0.628518
0.239997
0.491173
0.723739
0.453617
0.657455
1.07317
0.333564
0.38668
0.365811
0.523518
0.50735
0.722548
0.577806
0.388255
0.803725
0.504414
0.338109
0.28953
0.328583
0.972672
0.424225
0.946241
0.464565
0.411151
0.451251
0.580524
0.573686
0.794097
0.768098
1.47997
0.373901
0.395066
0.655414
0.21259
0.313582
0.306412
1.08662
0.587704
0.785144
0.681964
0.344397
0.389173
0.385754
0.33853
0.362795
1.52029
1.4108
1.45391
1.78194
1.27472
0.755522
0.613567
0.466791
1.31776
0.641781
1.3661
1.51785
1.57531
1.29231
1.1919
0.808151
0.708852
0.708515
0.333601
0.332677
0.403606
0.338564
0.402448
0.365907
0.331614
0.359628
0.371172
0.700852
1.98605
1.05137
0.996103
0.822948
0.37724
0.748842
0.510603
0.437704
0.399204
0.728257
0.664609
0.687536
0.698651
0.814693
0.416683
0.740853
0.347612
0.786488
0.553972
0.950998
1.53423
1.10547
0.340134
0.345572
0.455719
0.337795
0.959812
0.562177
0.981135
0.882168
1.5455
1.26488
0.777088
0.379816
0.390046
0.413583
0.839679
0.429213
0.346362
0.984621
0.356143
0.759792
0.479429
0.517201
0.570286
0.777283
0.497699
0.683866
0.402595
1.13411
0.357289
0.824043
0.729783
0.921103
1.57708
0.808374
0.410798
0.91523
0.564592
0.502352
0.334908
0.343019
0.545981
0.573454
0.38579
0.848287
1.16169
0.688999
0.438672
0.596924
0.414794
0.335198
0.466266
0.348398
0.498617
1.5623
0.762407
0.417261
1.10512
1.28675
0.959578
0.603338
1.3858
0.95299
1.19709
0.878477
0.406195
0.588675
0.350593
0.405416
0.602423
0.339455
0.337053
0.351424
0.334552
0.373851
0.432659
0.380816
0.436783
0.705058
0.409706
0.557737
0.487032
0.442386
0.840849
0.872529
0.633432
0.411915
0.727193
0.640815
0.470256
0.341151
0.483675
0.441885
0.510164
0.44431
1.00495
0.909606
0.6178
0.950927
0.969649
0.412437
0.457808
0.507904