/*--------------------------------*- C++ -*----------------------------------*\
| =========                 |                                                 |
| \\      /  F ield         | OpenFOAM: The Open Source CFD Toolbox           |
|  \\    /   O peration     | Version:  2506                                  |
|   \\  /    A nd           | Website:  www.openfoam.com                      |
|    \\/     M anipulation  |                                                 |
\*---------------------------------------------------------------------------*/
FoamFile
{
    version     2.0;
    format      ascii;
    arch        "LSB;label=32;scalar=64";
    class       volScalarField;
    location    "0.0563527";
    object      nut;
}
// * * * * * * * * * * * * * * * * * * * * * * * * * * * * * * * * * * * * * //

dimensions      [0 2 -1 0 0 0 0];

internalField   nonuniform List<scalar> 
3918
(
0.0031701
0.00509383
0.00281628
0.00401268
0.00298909
0.000400039
0.000326046
0.00197538
0.00459121
0.00336394
0.000895003
0.00303987
0.0069247
0.00308644
0.00442741
0.000631438
0.000589073
0.000707703
0.000697604
0.00412606
0.000943468
0.0037755
0.00133879
0.00202005
0.00302189
0.00542496
0.00113384
0.00477173
0.000653713
0.00584112
0.000764594
0.00394214
0.00169844
0.00406319
0.00285153
0.00482815
0.00378834
0.00372617
0.000819168
0.00300124
0.00224101
0.00203563
0.00118667
0.00295819
0.00364537
0.000721393
0.00618652
0.000744728
0.00222424
0.00384567
0.00105501
0.00180294
0.000977584
0.00551261
0.00217097
0.00355145
0.00294064
0.00544305
0.00162144
0.00359613
0.00116317
0.00186576
0.00276958
0.00249582
0.000733646
0.00366018
0.0027728
0.00223711
0.0012744
0.00252337
0.00100419
0.00127584
0.00138615
0.00131553
0.00231623
0.000836743
0.00128868
0.00464833
0.00349883
0.00356034
0.00143108
0.000333187
0.00398438
0.00307919
0.00393982
0.0035973
0.000781355
0.000768116
0.00048084
0.00370806
0.00245459
0.0039391
0.00376564
0.0013353
0.00342528
0.00320346
0.00132715
0.00435684
0.00103882
0.000865984
0.00371671
0.00448299
0.00335509
0.00405066
0.00461723
0.000708537
0.00220492
0.000901154
0.0035183
0.00392816
0.000581969
0.0010734
0.000259358
0.000743577
0.00111262
0.000791787
0.00068811
0.00145867
0.0012919
0.00105523
0.0031818
0.00276873
0.00614642
0.00103611
0.00218175
0.000491431
0.00579025
0.000993973
0.00132507
0.00112449
0.00291081
0.00231531
0.00251502
0.00334657
0.000624706
0.00101532
0.000644586
0.000575439
0.000634574
0.00173312
0.00116744
0.000674752
0.00329555
0.000948137
0.00108326
0.00158025
0.00080812
0.00104277
0.000602568
0.0033363
0.00546539
0.0014235
0.00442832
0.0012029
0.0029646
0.002693
0.000759373
0.000863816
0.00404485
0.00320534
0.00419993
0.000636347
0.00114779
0.00507784
0.000647636
0.0010516
0.000585421
0.00111385
0.000552909
0.000921488
0.00090654
0.000617925
0.00058472
0.000599156
0.000755876
0.00531854
0.00476703
0.00215213
0.000780778
0.000985769
0.00431447
0.00677207
0.0044451
0.00642601
0.00386078
0.00256851
0.00114012
0.00148294
0.00392818
0.00597311
0.0029589
0.00145189
0.00103137
0.00104925
0.00307755
0.00220507
0.00293604
0.00187038
0.00108794
0.00323578
0.00106213
0.00285868
0.000668248
0.00223013
0.00049152
0.00194921
0.00139612
0.000753351
0.00516608
0.00175679
0.00207026
0.000846448
0.00181581
0.000632515
0.00111386
0.000410745
0.00142837
0.00228553
0.00129873
0.000596636
0.00111938
0.00287445
0.00108088
0.00430726
0.00286313
0.00516321
0.00106488
0.00180246
0.000379424
0.0017846
0.00106967
0.00583711
0.00076791
0.00367426
0.00364443
0.000775919
0.000454342
0.00370764
0.00545084
0.00366066
0.00126892
0.000966211
0.00157987
0.00174892
0.00188588
0.0013357
0.00318214
0.00130083
0.000714209
0.00149696
0.00379189
0.00283867
0.00349118
0.00196785
0.00173906
0.00112526
0.000398495
0.0024958
0.00132949
0.0023462
0.000616809
0.00446712
0.00262782
0.00253123
0.000766004
0.00250694
0.000663805
0.00108914
0.00137027
0.000846807
0.00546576
0.00375268
0.00239871
0.00192195
0.00148589
0.00154314
0.00289511
0.00129809
0.000998364
0.00161042
0.00104025
0.00108907
0.00243621
0.00245024
0.00281672
0.000583981
0.00401289
0.00107162
0.0038854
0.00142882
0.000675029
0.00322399
0.000472559
0.00371337
0.0024501
0.0014236
0.000969612
0.000560497
0.00107142
0.00236242
0.0017287
0.00131799
0.00169399
0.0026247
0.0014032
0.0015462
0.00133316
0.000943893
0.00228822
0.00089367
0.00250923
0.000347408
0.00104538
0.00068834
0.0012504
0.000415497
0.00219849
0.000873753
0.00116409
0.000332137
0.00399372
0.000840399
0.00320097
0.00444228
0.00461265
0.0013882
0.00395327
0.00134641
0.0011736
0.00400343
0.000983414
0.0021735
0.00230569
0.00317506
0.00105441
0.000919234
0.00121865
0.00455932
0.000557402
0.0040463
0.0021316
0.00121606
0.0015713
0.00231785
0.00103158
0.000692492
0.00121925
0.000602932
0.00127242
0.000869826
0.000954095
0.000956741
0.00116109
0.00340089
0.00457645
0.00263517
0.00537351
0.00172677
0.00311154
0.00380664
0.00208414
0.00144471
0.00214423
0.00103649
0.00333886
0.000757773
0.00193822
0.00572039
0.00469802
0.00051302
0.00478474
0.00214906
0.0014001
0.0019699
0.00221111
0.00188241
0.000684677
0.00192366
0.00302191
0.00383309
0.00449968
0.00216249
0.00244072
0.00151671
0.00331245
0.00556737
0.00326944
0.00111194
0.00413691
0.00172705
0.00174744
0.00413436
0.00580137
0.00123458
0.00522293
0.000543669
0.000310259
0.00344735
0.00139129
0.000614241
0.000934302
0.00321164
0.00363232
0.00160038
0.00338259
0.00378648
0.000911856
0.000550041
0.0040634
0.000706454
0.00371522
0.0030197
0.00158311
0.00565155
0.002814
0.00290352
0.00637336
0.00266828
0.00353031
0.00457158
0.00372893
0.00209885
0.00440501
0.00483737
0.00456017
0.00465019
0.0023801
0.00416911
0.00239197
0.00108761
0.00262796
0.00341732
0.000658772
0.000489253
0.00131273
0.000916991
0.000375016
0.00348756
0.003173
0.00513496
0.003026
0.00336271
0.00424303
0.00213808
0.000602524
0.00419699
0.00246733
0.00256221
0.00158925
0.00370803
0.00600156
0.0020451
0.00457601
0.00301534
0.00194018
0.00183057
0.000408636
0.00193211
0.000870936
0.00552537
0.00412154
0.000668143
0.00167826
0.00410357
0.00527556
0.00509243
0.00310169
0.000781575
0.00377641
0.00365536
0.00072825
0.00370513
0.000450565
0.0049498
0.00342411
0.001184
0.000590761
0.0056015
0.000467406
0.00290795
0.00186544
0.00118131
0.00145343
0.00234805
0.0029117
0.00313868
0.000667319
0.00387649
0.00125851
0.000737642
0.00464222
0.00553522
0.000784186
0.000543956
0.00217466
0.000717791
0.00526494
0.00410975
0.000345856
0.00400012
0.0031473
0.00364088
0.00438563
0.00541042
0.00383814
0.00380137
0.00484916
0.00591349
0.0042153
0.00288171
0.00147301
0.00145709
0.00350423
0.00269426
0.00424178
0.00324733
0.00428984
0.00128283
0.00440126
0.00412432
0.00175813
0.00562949
0.00366026
0.0039435
0.00253878
0.00324825
0.00362963
0.00343565
0.00268509
0.00407827
0.00262931
0.000477242
0.00101201
0.000653105
0.00421137
0.00315611
0.000631221
0.000707091
0.00288411
0.00104151
0.0041
0.00381857
0.00230623
0.00187295
0.00193076
0.000476445
0.00200386
0.000968819
0.00334549
0.00254021
0.00405447
0.000893315
0.00119287
0.000787742
0.000805796
0.00123655
0.00092108
0.000936535
0.000936442
0.00109634
0.00319736
0.001966
0.000883464
0.00443976
0.00540408
0.000699732
0.00283376
0.00399306
0.00173042
0.00458002
0.000497821
0.00113014
0.0010178
0.00404511
0.00164213
0.00134175
0.000889087
0.00523871
0.00465953
0.00445524
0.00143958
0.000929594
0.000779026
0.00113802
0.00115039
0.00129089
0.00353903
0.00242059
0.000769311
0.00106802
0.00209618
0.00128323
0.00322779
0.00259731
0.000608149
0.00207088
0.00371919
0.00118202
0.000600475
0.000970608
0.00268571
0.00051503
0.00314263
0.00282857
0.00460795
0.00064138
0.00151538
0.00185257
0.00213165
0.0019497
0.00414458
0.00218115
0.00414601
0.000993235
0.00373506
0.00044706
0.00129657
0.00168272
0.00196617
0.00169685
0.00592138
0.00651384
0.00410235
0.00107143
0.000542213
0.00050186
0.000812268
0.000642469
0.000516706
0.00185067
0.00439418
0.00251674
0.000953223
0.0013021
0.000679765
0.00171764
0.00266516
0.00104058
0.0028645
0.00110095
0.0047482
0.00479878
0.00318319
0.000987897
0.00402076
0.00231491
0.0027884
0.00332179
0.00366219
0.00329759
0.00305319
0.00656003
0.00316828
0.00404471
0.00394893
0.00407437
0.0017625
0.00538756
0.00528133
0.00254402
0.00241539
0.00186204
0.00278584
0.00143895
0.00220453
0.00230598
0.00102945
0.000859863
0.00351089
0.00177413
0.00117868
0.00236924
0.00189836
0.00405925
0.00133766
0.00162493
0.00403249
0.00087722
0.00293965
0.00239945
0.00409999
0.00396788
0.00422386
0.00550332
0.00188896
0.00365865
0.00514588
0.00585941
0.00257576
0.00255228
0.00540603
0.00189344
0.000677584
0.000245674
0.00277979
0.00077972
0.00043362
0.00284757
0.00309149
0.00284377
0.00255451
0.00252677
0.00275887
0.00526532
0.00182717
0.00167676
0.00204334
0.00156371
0.000848566
0.001631
0.00111134
0.0011698
0.000782968
0.000988025
0.000797741
0.000870183
0.000798093
0.00423944
0.00327198
0.00236028
0.00343492
0.000774405
0.00179082
0.00447073
0.00192634
0.00318245
0.00424734
0.0026627
0.00285578
0.00163887
0.00260372
0.00375096
0.00235143
0.0041047
0.00333305
0.00283553
0.000876883
0.0025133
0.00337217
0.00101878
0.00379823
0.00101059
0.00188484
0.00545758
0.00432986
0.00130375
0.000885456
0.0042095
0.00313595
0.000871198
0.000967115
0.00167194
0.0022869
0.000664778
0.000550727
0.00302079
0.00292418
0.00287885
0.00414925
0.00573259
0.00625753
0.000333818
0.00435811
0.00368711
0.00422148
0.00310336
0.00345329
0.00236554
0.0021527
0.00127104
0.00290154
0.00251629
0.00242287
0.000702531
0.000583496
0.00356569
0.00136358
0.000672171
0.00136518
0.00307554
0.000996534
0.000142744
0.00303614
0.00419799
0.000892635
0.00250862
0.00341653
0.00197107
0.00149627
0.00104763
0.00168009
0.00086801
0.000957677
0.00123811
0.00101873
0.00147828
0.00321783
0.00401905
0.00380965
0.0046246
0.00246174
0.00268541
0.000436448
0.000832993
0.000637074
0.00177161
0.00120462
0.00418932
0.000708402
0.00233342
0.0035542
0.00238235
0.00393156
0.00116386
0.00238168
0.00131759
0.00493221
0.00382455
0.00331565
0.00551361
0.00170359
0.000897101
0.00180412
0.00154692
0.00135567
0.00177258
0.00102525
0.00132539
0.00138023
0.00077543
0.00190833
0.00101041
0.00617672
0.00158454
0.00394093
0.00134233
0.00178574
0.000589129
0.00310422
0.00184871
0.00493848
0.00362354
0.00407457
0.00252161
0.000680817
0.0036452
0.00150866
0.00279869
0.00148883
0.00316557
0.00405474
0.000928922
0.00100803
0.000422295
0.000909097
0.00450363
0.000301649
0.000386937
0.00150241
0.00110216
0.00128439
0.00148855
0.00509837
0.00466052
0.00124593
0.00191954
0.00444326
0.00410988
0.00127995
0.0015602
0.00126668
0.0032408
0.0029829
0.000813203
0.00380064
0.0037649
0.00473291
0.00225012
0.00495496
0.00156274
0.000628037
0.00294453
0.00276324
0.00195927
0.00497545
0.00297111
0.00126135
0.000847878
0.000765978
0.00100556
0.000976729
0.00188136
0.00247783
0.000178849
0.00478941
0.000589234
0.0010433
0.00133671
0.000856372
0.00149419
0.00148982
0.00201058
0.00344421
0.000954742
0.00114072
0.000922256
0.00035667
0.000432619
0.00122306
0.000276417
0.00512922
0.00250981
0.00134979
0.0035748
0.00515886
0.00181758
0.000932208
0.0019604
0.00281326
0.00211493
0.0043373
0.00163393
0.000501642
0.0027444
0.00225108
0.000495629
0.00165085
0.00195048
0.000916817
0.00112295
0.0008838
0.00119025
0.00045675
0.00372322
0.00121237
0.00124097
0.000938651
0.00155056
0.000933106
0.00223517
0.00203877
0.00271631
0.00118222
0.0046224
0.00211621
0.00183476
0.00189444
0.00247896
0.00132641
0.00352539
0.00403645
0.000587139
0.000339135
0.00162249
0.00183415
0.00442936
0.00406823
0.00479199
0.000382134
0.0016072
0.00261137
0.00118523
0.000962969
0.00131411
0.00138713
0.000638549
0.00328784
0.000644608
0.00110149
0.00115127
0.0024632
0.00287335
0.00276254
0.00459863
0.00046913
0.000767011
0.0014933
0.00584657
0.00360628
0.00137792
0.0011972
0.000825625
0.000567038
0.00180883
0.00235118
0.0018036
0.0022551
0.00276437
0.00345788
0.00278052
0.00226804
0.00473677
0.00103316
0.000389341
0.00283464
0.000496627
0.000468604
0.00101954
0.000814268
0.000573033
0.00294383
0.00361041
0.000393699
0.00385555
0.00456184
0.0015638
0.00384664
0.0041593
0.00223165
0.00472588
0.00236792
0.00202233
0.0026171
0.00484605
0.00372419
0.00411252
0.0075245
0.00421793
0.00470906
0.00317129
0.0037426
0.00252436
0.00482964
0.00075794
0.00470175
0.00416594
0.00168847
0.0050109
0.00520116
0.00072508
0.000999649
0.0017715
0.00242457
0.00420451
0.000684277
0.00172071
0.00553332
0.00106101
0.00479724
0.00286376
0.00241496
0.000870794
0.00273739
0.00215578
0.000676832
0.00103465
0.00247724
0.00207476
0.00364365
0.00417701
0.00297018
0.00116081
0.00234508
0.00182751
0.00412921
0.0019073
0.00319548
0.0036423
0.00477607
0.00358175
0.00343599
0.00418676
0.00354456
0.00418986
0.0022358
0.00141211
0.00222895
0.00417233
0.00226531
0.00217509
0.00448226
0.00392646
0.00376323
0.00241322
0.00469008
0.000983643
0.000654481
0.00349505
0.00377394
0.00134779
0.00191914
0.00318553
0.00483343
0.00067243
0.00293029
0.00356232
0.00523593
0.00378338
0.0040194
0.00152735
0.00149698
0.000996073
0.000998455
0.00139519
0.000853325
0.00226717
0.00187786
0.00173633
0.00240223
0.00243541
0.00260112
0.00261287
0.0040364
0.00169429
0.00367584
0.00383952
0.0030242
0.00264456
0.00419683
0.00269719
0.00116998
0.00340662
0.00328879
0.00334848
0.00454547
0.00315598
0.00406419
0.00249111
0.00394677
0.000772937
0.00348437
0.00278642
0.00331783
0.00325079
0.00348808
0.00254177
0.00213991
0.000732353
0.00325226
0.00397219
0.00330107
0.00167153
0.00238999
0.00488245
0.00352932
0.00228788
0.00179988
0.00167444
0.00432965
0.000600976
0.00146665
0.00357893
0.00259294
0.0032073
0.00090901
0.000650544
0.00444056
0.00405192
0.00415203
0.00450617
0.00158882
0.00163478
0.00413392
0.00398577
0.00436801
0.00427873
0.000190224
0.000389034
0.00245018
0.00253575
0.00110195
0.00119533
0.00150717
0.00154435
0.00299882
0.00193438
0.00451132
0.00278027
0.00375949
0.00398441
0.00558881
0.000714681
0.00122416
0.00347608
0.000835128
0.00161988
0.00344247
0.00356509
0.00521527
0.000932218
0.00504813
0.00222226
0.00385085
0.000773066
0.00418127
0.000264011
0.00185034
0.00141976
0.00119033
0.00315338
0.00148931
0.000893159
0.00170024
0.00177041
0.00226294
0.000835012
0.000454175
0.000510147
0.00190547
0.000922344
0.00173425
0.000900817
0.00101721
0.00474254
0.00332751
0.00452753
0.00231684
0.000939869
0.00209652
0.000999196
0.00100937
0.00151427
0.00444911
0.00488558
0.00529422
0.00178607
0.00370881
0.00467098
0.00279169
0.00447933
0.00270542
0.00387652
0.00330597
0.00276878
0.00182692
0.00350087
0.0017586
0.00149631
0.0017275
0.00333304
0.00453966
0.0034323
0.00593601
0.0039864
0.00427244
0.00113162
0.00240206
0.00170956
0.00363828
0.00420624
0.00394162
0.00454738
0.00480734
0.00415235
0.00075028
0.000468398
0.00262471
0.000435414
0.00636673
0.00520569
0.00228501
0.000813594
0.00119376
0.00429954
0.0042722
0.00277355
0.0041698
0.00244969
0.00100421
0.00309153
0.0018104
0.00266266
0.00208678
0.0020968
0.00406129
0.00314539
0.00422789
0.00535548
0.0041749
0.00290963
0.00310831
0.00251108
0.0019059
0.00329508
0.00235872
0.00337896
0.00383555
0.00072937
0.000671291
0.00108236
0.000495181
0.000675976
0.000858896
0.0011479
0.00163661
0.000534974
0.000547257
0.00224544
0.00114626
0.00226511
0.00136496
0.00191915
0.00130456
0.000986103
0.00276329
0.000856373
0.00165047
0.000187009
0.00352355
0.00223792
0.00175958
0.00112588
0.00258343
0.00264413
0.00463791
0.000926938
0.000787506
0.00126664
0.000988931
0.000344987
0.00179946
0.00225383
0.00122116
0.0048326
0.00477698
0.00117541
0.00324587
0.00376264
0.000793787
0.00234584
0.00257152
0.00245549
0.00044416
0.00231343
0.00181646
0.00206329
0.00232649
0.00520948
0.00254266
0.00104268
0.0027802
0.00173666
0.000684819
0.000623226
0.00372759
0.00107501
0.000817858
0.00305995
0.00306072
0.00386728
0.00296932
0.00369832
0.00142435
0.000958758
0.000897833
0.00116724
0.00058721
0.00173823
0.000943023
0.00237876
0.00526554
0.00236767
0.00270397
0.0027835
0.00110341
0.00226667
0.000783004
0.00357124
0.00465374
0.00322045
0.004201
0.000816721
0.000316168
0.000764649
0.00425998
0.000475119
0.000288182
0.000428088
0.00111401
0.00227051
0.00171361
0.000668608
0.000989903
0.00242777
0.000608218
0.00183341
0.0010769
0.000859928
0.00102029
0.00117089
0.00367009
0.0024969
0.00113477
0.00230442
0.000483973
0.00104389
0.00105886
0.000923637
0.00428834
0.0020725
0.000707164
0.00470288
0.000344738
0.00391288
0.00573527
0.000761458
0.00119916
0.00352477
0.000225544
0.00439469
0.00465215
0.00416847
0.00461709
0.00155583
0.000563939
0.00260008
0.00326323
0.00387813
0.00364006
0.00441677
0.00195094
0.00189597
0.00122344
0.002124
0.00204506
0.00214192
0.00230505
0.00192294
0.00135618
0.00386781
0.00318945
0.00171798
0.00421472
0.000710019
0.000276012
0.00429527
0.000589087
0.00268207
0.00204183
0.00160804
0.00364958
0.00343795
0.00369451
0.00343024
0.00225667
0.000478653
0.00178152
0.00218525
0.00149184
0.000804497
0.00108516
0.00136605
0.00283736
0.00372413
0.00515741
0.00666437
0.00466731
0.00275455
0.00350327
0.00232181
0.00226019
0.00384006
0.00169845
0.00310547
0.00045381
0.00291476
0.00145047
0.00216252
0.00138394
0.00264782
0.00115188
0.00499899
0.000842106
0.00166369
0.00211164
0.003235
0.00299343
0.0042466
0.00119332
0.0017002
0.00212211
0.000629353
0.000582784
0.00172124
0.00063843
0.00184813
0.00192979
0.00171941
0.000977985
0.000774501
0.000791369
0.000680245
0.00135823
0.00126916
0.0028851
0.00131967
0.00430243
0.00373647
0.00306442
0.00434261
0.00133823
0.00107543
0.00185773
0.001805
0.000791089
0.00130095
0.00110719
0.00285284
0.00539989
0.000901139
0.000530306
0.000507256
0.000509595
0.00120659
0.00176368
0.000378074
0.00274304
0.000924947
0.00144739
0.000466066
0.00146856
0.000132364
0.00212262
0.00165201
0.000302774
0.000984902
0.00329089
0.00358261
0.00381369
0.00214744
0.00085676
0.000905704
0.00444521
0.000503183
0.0018042
0.000265068
0.00361566
0.00185899
0.00157825
0.00321183
0.00250334
0.00258247
0.00563425
0.000983585
0.00363871
0.00189673
0.00186802
0.00159996
0.00104712
0.00102447
0.0011632
0.000508287
0.00333306
0.00233487
0.00187125
0.00238104
0.000931339
0.00141246
0.000788126
0.00063403
0.00156528
0.00180667
0.00108897
0.00121048
0.00123072
0.00168645
0.00369654
0.00126374
0.000933641
0.000975094
0.000731754
0.000390824
0.000601855
0.00369938
0.00296862
0.00515686
0.00568596
0.00400053
0.00160865
0.00173889
0.000881411
0.000956348
0.00102906
0.00268651
0.00214424
0.000574899
0.00158381
0.00194285
0.00166197
0.00173626
0.00262323
0.00107054
0.000481247
0.000689129
0.00217642
0.00239882
0.00111906
0.00107006
0.00096157
0.00331329
0.00569572
0.00110518
0.00662491
0.00387735
0.000541124
0.00271654
0.000664665
0.000949913
0.00181867
0.00352894
0.00579125
0.00482171
0.00373161
0.0043009
0.00193274
0.00338002
0.00353751
0.00161592
0.00235592
0.00422334
0.00293317
0.00233951
0.00274489
0.0040596
0.00388795
0.00452261
0.00184804
0.0041218
0.00217352
0.000805015
0.00250427
0.00287522
0.00195997
0.00184016
0.00384488
0.0020553
0.00599815
0.00361875
0.00238565
0.00190222
0.00157791
0.00481968
0.00432153
0.000474504
0.00288408
0.0043007
0.00368664
0.001376
0.00158789
0.00264914
0.00635656
0.00476715
0.00531276
0.00276727
0.0033533
0.00253431
0.00195454
0.00427748
0.00251037
0.00328523
0.00389226
0.00266256
0.00267364
0.00183639
0.0019557
0.00155062
0.00423747
0.00146954
0.00149255
0.00305006
0.00255798
0.00265398
0.00332768
0.00318957
0.00219141
0.00215859
0.00179884
0.00217286
0.00162549
0.00174026
0.00379908
0.000635836
0.00066347
0.000608262
0.000677365
0.000639044
0.00163764
0.000634272
0.00111014
0.00164891
0.00101601
0.00263741
0.00358996
0.00407638
0.00360503
0.00299695
0.00331189
0.000865314
0.000825883
0.000884574
0.000871491
0.000902012
0.00120779
0.00111552
0.00539317
0.00338538
0.00331824
0.00101997
0.00354827
0.00687967
0.00402052
0.00359765
0.00383599
0.00273958
0.00421123
0.00267575
0.0012076
0.001143
0.00122982
0.000861193
0.00152679
0.00118591
0.0031656
0.00214541
0.00514272
0.000720812
0.00355911
0.0036051
0.00641143
0.00117767
0.00134921
0.00106451
0.000695834
0.00306489
0.00211633
0.00383815
0.00297257
0.0020115
0.00384783
0.00323599
0.00234642
0.000373735
0.00167509
0.00297638
0.00332645
0.00156108
0.00260313
0.00237875
0.00122238
0.00152948
0.000819739
0.00105404
0.00105961
0.00146656
0.00118177
0.00118909
0.00104764
0.00495698
0.0021897
0.00227747
0.00205878
0.00245289
0.0029565
0.0025695
0.00455463
0.00322904
0.00367464
0.00149778
0.000668178
0.00358534
0.00127557
0.00575789
0.00141841
0.00100654
0.00113316
0.00430621
0.00291922
0.00421317
0.00226516
0.00160528
0.00431462
0.00697283
0.00475413
0.00388641
0.0032411
0.00384529
0.00423904
0.00419595
0.00409014
0.000940865
0.00379562
0.00216902
0.000664641
0.000930243
0.00105987
0.00103774
0.00148867
0.00128915
0.00330936
0.00360363
0.00329171
0.00338378
0.00133688
0.000790115
0.00110413
0.0030056
0.00432227
0.00116598
0.00117014
0.00103369
0.00123251
0.00371769
0.00103724
0.00117924
0.000882919
0.000966746
0.00190122
0.00275372
0.00184641
0.00287178
0.00417038
0.00439494
0.00364123
0.000598241
0.00189539
0.00145914
0.000533315
0.000518772
0.000184801
0.00149749
0.00109334
0.00119247
0.00122544
0.00202905
0.00147842
0.00248223
0.00046484
0.000200402
0.00192377
0.000850138
0.000313568
0.000466987
0.00056267
0.00458534
0.00165687
0.00100882
0.00122948
0.00175522
0.00112495
0.00274491
0.00133227
0.0041369
0.00272511
0.00268504
0.00205791
0.00212365
0.00275589
0.00346831
0.00201112
0.000312164
0.00171696
0.00109039
0.00135881
0.000167662
0.00242037
0.000601048
0.00084975
0.000769834
0.00141938
0.000740385
0.00250839
0.00259679
0.00249412
0.00151866
0.0019639
0.00273777
0.00228005
0.00155617
0.00178616
0.000796674
0.000821189
0.00104119
0.000818801
0.00136006
0.00438612
0.00217301
0.00136464
0.00124306
0.00237523
0.00179263
0.00247086
0.00444012
0.000217428
0.00180517
0.00381072
0.000389313
0.00139181
0.000369412
0.00100553
0.00186066
0.00573758
0.00134336
0.000663791
0.000523304
0.0025251
0.00212056
0.00346635
0.000673771
0.00088571
0.00101388
0.000430894
0.000202497
0.000960135
0.000719189
0.000742556
0.00246309
0.00252868
0.000676867
0.000866579
0.00360994
0.00242926
0.00179502
0.00410584
0.00373032
0.00786221
0.00461107
0.00253951
0.00393933
0.00288554
0.00384052
0.00307268
0.00318363
0.00288551
0.00490064
0.00420993
0.00322131
0.00355817
0.00474948
0.00369022
0.00281702
0.00303724
0.00485299
0.000688279
0.00423135
0.00247106
0.00242708
0.00429893
0.00252632
0.00272099
0.00184864
0.00236233
0.00213427
0.00100551
0.00287188
0.00331617
0.00244311
0.00640452
0.0057557
0.00238347
0.00234629
0.00529978
0.00394039
0.00329934
0.00416421
0.00663593
0.00421091
0.00523162
0.00155866
0.00495636
0.00357531
0.00272773
0.000626739
0.000482323
0.00105906
0.00264638
0.00109711
0.00228562
0.00442702
0.00104552
0.000494266
0.00167539
0.00176708
0.00074621
0.000562261
0.00143369
0.000665534
0.000380732
0.000684271
0.00203227
0.00241409
0.00461942
0.00460249
0.000660777
0.00313216
0.00243192
0.00213873
0.000822952
0.00173187
0.00220766
0.0028942
0.00141501
0.00475412
0.00444334
0.00210067
0.00151423
0.0028282
0.00266315
0.0046435
0.00479731
0.00366278
0.00419653
0.00272523
0.00395183
0.00437879
0.00239087
0.00480253
0.0046678
0.000956329
0.000896014
0.00198373
0.00111915
0.00384077
0.000466135
0.00448248
0.00213345
0.000956441
0.000985919
0.000961498
0.00207766
0.00217198
0.00272754
0.00104138
0.00044174
0.00105294
0.0010165
0.00222006
0.0044234
0.00414996
0.00245621
0.00178835
0.00203742
0.00492364
0.00327805
0.00173954
0.00276635
0.00110321
0.00324243
0.000700214
0.000333179
0.00150891
0.000390701
0.000912916
0.0017201
0.00153518
0.000464935
0.00159102
0.00113458
0.000927408
0.000960624
0.000997788
0.000811924
0.000892368
0.00376224
0.00278498
0.00239122
0.00239083
0.00027736
0.000833967
0.00167981
0.000930402
0.00309561
0.00278909
0.00478849
0.00310515
0.00249398
0.00495416
0.0046224
0.00239782
0.00259698
0.00610751
0.00384979
0.00107822
0.00271033
0.000753281
0.00044963
0.00197994
0.0010348
0.00103678
0.00184444
0.000375109
0.00111387
0.000363956
0.00116599
0.000480713
0.00571615
0.000501803
0.00110369
0.00201392
0.00242125
0.00459795
0.000737656
0.00182054
0.00148393
0.00607357
0.00332844
0.00162853
0.00234385
0.00326007
0.00101448
0.00124447
0.00198518
0.000723508
0.000742303
0.000823497
0.00119767
0.00092891
0.00146852
0.000463609
0.00139682
0.00106836
0.00309086
0.00331982
0.000633649
0.0024535
0.00260845
0.00384093
0.00182619
0.00231545
0.00219827
0.00207227
0.00432737
0.0013316
0.00200216
0.00268649
0.00215713
0.00149328
0.000936144
0.000709403
0.000665219
0.000834608
0.00334927
0.00328471
0.0018391
0.00288378
0.00326021
0.00336582
0.00491334
0.00332746
0.00269312
0.00343855
0.00276213
0.00120996
0.00411418
0.00114766
0.0017348
0.000722371
0.00180338
0.00165982
0.00109381
0.00188034
0.00346165
0.0011594
0.0013428
0.000729277
0.00167115
0.00110109
0.00328656
0.00240541
0.0045998
0.000655528
0.000761564
0.00205561
0.00243979
0.00440186
0.00184901
0.00636289
0.0026233
0.00298215
0.00278989
0.0040541
0.00329662
0.00351821
0.00300345
0.00449774
0.002573
0.00109461
0.00348
0.00394533
0.00127194
0.00189121
0.00125431
0.00139405
0.000900198
0.00537498
0.00360164
0.00293391
0.00461422
0.00301698
0.00414977
0.00146693
0.00252364
0.000989942
0.00217557
0.00399266
0.00247676
0.00358541
0.0030396
0.00300384
0.0020324
0.00384851
0.00188033
0.00102782
0.0010743
0.00353985
0.00249872
0.00380269
0.00452205
0.000891392
0.00591079
0.00407285
0.00223738
0.00236344
0.00264071
0.00267124
0.00510999
0.00310538
0.00504479
0.00332548
0.00272448
0.00322939
0.00210404
0.004233
0.00473788
0.00440102
0.00203439
0.0050249
0.0034917
0.00135605
0.00481126
0.00455106
0.00336317
0.00351634
0.0035056
0.00464101
0.00247858
0.00411101
0.00433441
0.00465215
0.000551902
0.00246633
0.000593919
0.000863969
0.000651205
0.00346974
0.00158628
0.00113188
0.000451768
0.00458759
0.00434427
0.00349321
0.00126869
0.00340385
0.000321213
0.00119377
0.00159976
0.00292166
0.000558207
0.000570371
0.00056916
0.000624766
0.00107164
0.00351743
0.00531856
0.0046397
0.000736857
0.000589969
0.0027957
0.00304764
0.00232959
0.00527431
0.00224375
0.00446586
0.00228047
0.00360182
0.00415522
0.00494376
0.00154651
0.00219603
0.00113958
0.00130194
0.000148903
0.00114061
0.0025744
0.00232192
0.000671817
0.00218857
0.00127714
0.000943318
0.00110557
0.000897643
0.000879114
0.00131731
0.00215778
0.00207199
0.00407445
0.00385346
0.000746271
0.00129534
0.00105317
0.00304723
0.0037212
0.00379612
0.000320969
0.00286811
0.000191138
0.000842188
0.00112881
0.000518999
0.00254192
0.00274466
0.000788299
0.00205697
0.000726173
0.00120398
0.000855455
0.00356381
0.00105716
0.000513679
0.00555372
0.00101514
0.00194196
0.00378604
0.00367107
0.00222189
0.00385496
0.00407395
0.00278978
0.00284566
0.00302568
0.00380703
0.0025391
0.00209134
0.001018
0.00323768
0.00515544
0.00437399
0.00504912
0.00660621
0.00147152
0.00328796
0.00328394
0.00345788
0.00277669
0.00193588
0.00129467
0.00200843
0.00108445
0.0023918
0.00157122
0.00141309
0.000445624
0.0051378
0.0010938
0.00219292
0.00330198
0.00100818
0.000729163
0.00166257
0.00205136
0.00158042
0.000459789
0.00116067
0.000269451
0.00067095
0.000475401
0.00117794
0.00121615
0.00136925
0.000519156
0.0019062
0.000798276
0.000885714
0.00140299
0.000958909
0.00130585
0.000565038
0.000517917
0.000570269
0.00264386
0.00079558
0.0019798
0.00088703
0.00320582
0.00365735
0.00290945
0.00384872
0.00425281
0.00349146
0.00214998
0.000795045
0.000546061
0.00127432
0.00119486
0.000653257
0.00299076
0.00376144
0.00419863
0.00427619
0.000631511
0.00113774
0.00394297
0.00375603
0.00356168
0.00223576
0.00395488
0.00445554
0.0011034
0.000659829
0.000602856
0.00211499
0.00028513
0.00138842
0.000401483
0.00147513
0.00365284
0.00499848
0.00560661
0.00367368
0.00375581
0.00379869
0.00361895
0.0047693
0.00415518
0.00306462
0.00421037
0.00116636
0.00522422
0.00346808
0.00335385
0.00484427
0.00482613
0.00472883
0.00482577
0.00245392
0.00186132
0.0035553
0.00394619
0.00393997
0.00630126
0.00507028
0.00385672
0.00493216
0.00539305
0.00287734
0.00426498
0.00419214
0.00347356
0.00261405
0.00422445
0.00295246
0.00461735
0.00338989
0.00365447
0.00475604
0.00278692
0.0031272
0.00517944
0.0021722
0.00270992
0.00275712
0.00407272
0.00250413
0.00336427
0.00307232
0.00286652
0.00297296
0.00112736
0.00057786
0.000454164
0.00388179
0.000457663
0.000397316
0.000819057
0.00342722
0.00318556
0.00131064
0.00251707
0.00086215
0.00711199
0.00352243
0.00409261
0.0037386
0.0041424
0.00404432
0.00404844
0.00103478
0.00167083
0.000171341
0.00147681
0.00105357
0.000685403
0.00250315
0.0007526
0.00108597
0.000653238
0.00193735
0.00224176
0.00229869
0.00307671
0.00259951
0.00114914
0.00272305
0.0021443
0.0029354
0.00318726
0.00257793
0.00351466
0.0019626
0.00218304
0.00436089
0.005224
0.00317088
0.00447989
0.00355929
0.00469294
0.00383568
0.00589707
0.00234254
0.000681736
0.00403822
0.00315253
0.00464813
0.00369302
0.00280919
0.00394813
0.00189088
0.00400292
0.00126453
0.00254845
0.00128646
0.00103556
0.00101964
0.00118765
0.000954737
0.00337925
0.00623847
0.00553503
0.00529751
0.00419617
0.000607916
0.000643857
0.000191612
0.000454898
0.000303411
0.000908141
0.00114873
0.00156276
0.00196742
0.00111106
0.000803516
0.000797171
0.000914374
0.00249753
0.00120362
0.00408759
0.000910209
0.000168569
0.00302162
0.00168276
0.00126172
0.00270408
0.000935776
0.000806632
0.00453211
0.00512185
0.00350503
0.00517031
0.00250209
0.00310119
0.00336118
0.00398208
0.00383281
0.00575442
0.00554115
0.00273896
0.00383264
0.00632654
0.00347477
0.00371486
0.00373396
0.00227965
0.00293624
0.000351294
0.000254213
0.000873797
0.00127033
0.0016814
0.00158025
0.00451967
0.00415836
0.000321623
0.000962464
0.000766763
0.00103025
0.00111635
0.00216264
0.00265505
0.00173962
0.00389928
0.00130582
0.00163786
0.00328418
0.000136324
0.00222986
0.00152121
0.00114272
0.00181997
0.00168049
0.000774481
0.00129497
0.0022589
0.000458089
0.00183459
0.00508747
0.0045605
0.00325592
0.00103454
0.00170173
0.00185038
0.00066718