/*--------------------------------*- C++ -*----------------------------------*\
| =========                 |                                                 |
| \\      /  F ield         | OpenFOAM: The Open Source CFD Toolbox           |
|  \\    /   O peration     | Version:  2506                                  |
|   \\  /    A nd           | Website:  www.openfoam.com                      |
|    \\/     M anipulation  |                                                 |
\*---------------------------------------------------------------------------*/
FoamFile
{
    version     2.0;
    format      ascii;
    arch        "LSB;label=32;scalar=64";
    class       volScalarField;
    location    "0.0563527";
    object      p;
}
// * * * * * * * * * * * * * * * * * * * * * * * * * * * * * * * * * * * * * //

dimensions      [0 2 -2 0 0 0 0];

internalField   nonuniform List<scalar> 
3918
(
-37.5412
0.283071
-5.77727
-20.6594
0.358936
26.2392
19.8647
19.0702
-2.16065
-3.43626
21.0036
-31.2419
-27.8195
-36.0595
-15.8961
27.2351
30.7922
-27.6789
-27.4936
-0.773877
54.9702
-17.6794
5.21977
-28.4574
4.1036
-35.2267
26.6792
-15.8087
-27.0652
-24.8441
-27.8153
-4.26355
-16.0696
-6.63805
-25.3536
-41.2722
-7.35317
-7.48483
50.2572
-7.78806
-3.63607
-11.0083
26.0899
-18.2943
4.16858
7.06965
7.32593
50.9891
-29.7659
-23.8944
34.7679
-26.9318
-18.2205
-30.2416
-14.7512
-30.4731
-15.4314
-39.217
3.80583
-5.00927
13.636
-13.6901
-20.0963
-16.3302
25.4289
-9.32003
-24.8728
-31.27
-34.7282
-31.1021
22.9454
-73.174
-53.8906
-60.4623
-46.0514
-46.3208
-45.8682
-39.0145
-41.7895
-3.48536
-28.3592
50.6348
-33.5555
-12.1889
-11.7556
-43.3297
-27.2666
-27.6817
-69.0283
-15.009
-16.3741
-12.0643
-50.8493
37.1559
-2.55893
11.8553
-27.5836
-4.83996
-27.3492
57.8037
-17.4144
-18.1582
-11.5999
-16.2894
-17.0653
-28.3631
-30.111
36.6448
-5.7479
-35.3109
-27.2062
-27.656
-27.1976
-27.3559
-27.877
-27.1436
-26.8422
-27.8712
-57.2613
-61.9768
-17.0854
-34.6102
-34.0349
-28.2974
-32.7976
-59.7155
-8.82527
-20.127
55.114
34.3301
6.7548
-37.1065
9.76704
-21.2736
59.6661
58.2114
-27.3419
-27.4832
-27.2913
-40.4462
60.4863
-27.6582
-39.0929
57.0583
-46.3928
-48.823
44.6559
58.5149
-47.2233
-29.6462
-22.61
-27.2616
-0.556953
-51.3557
-36.0328
-39.0285
-89.4484
-59.0641
11.9935
-8.04038
-8.50226
-26.0103
-27.7574
-33.7571
-28.9388
-27.7357
-27.8539
-37.2424
-27.4822
-27.826
42.5679
-27.5534
-27.2278
-27.0075
-27.4392
-20.4542
-34.4835
0.934488
51.8717
34.2265
-1.41847
-31.6064
-32.9439
-30.3455
-29.2775
-20.0079
54.5656
-29.3776
-26.714
-41.7596
-13.2927
-47.4434
54.6484
57.9702
-27.2277
-34.5828
-30.8084
-40.2039
-55.6334
0.346412
-62.5134
-22.7709
-27.187
-30.9964
-26.9055
-37.5594
-31.9893
-77.6401
-34.5174
15.9533
-39.9398
-29.516
-15.1114
-29.8175
30.6013
-28.6087
-48.5439
-44.0886
-31.3106
15.8118
-55.7524
-32.8879
-27.523
-2.84388
-25.3805
-51.5753
46.8372
-40.7926
-95.1925
-29.5271
-57.1772
-26.7221
5.05464
-33.4348
-4.43809
-54.907
-27.3614
-19.0794
-30.8379
-1.68575
-27.6209
-69.9398
-42.0263
-25.3901
-4.4375
43.2273
0.267965
-13.9995
-6.4546
36.5071
-31.1652
-29.2203
15.48
7.47687
-28.3059
47.1093
-54.8462
-0.818534
-58.6116
-41.5356
-27.0632
-15.9739
-29.3438
-17.0215
45.9529
11.8423
-19.8683
33.8409
55.3507
33.8982
-2.76772
-36.3419
-4.27502
-22.4264
-23.1202
8.80729
-32.0341
-53.7998
-74.0818
18.6396
-21.5522
-37.8102
-35.754
7.17798
-5.89245
43.0422
-14.5409
-77.2146
3.9615
-9.03998
-74.6601
-31.7174
-27.9173
8.76636
-39.9652
-22.8264
-76.434
-28.387
-27.1675
-23.4865
-28.8128
-2.09086
2.92565
-29.3518
-56.2548
-27.5197
-1.14945
35.8022
-9.84389
-31.4081
-29.5291
20.2546
-27.4889
-28.3291
-31.5712
14.4799
-12.404
36.481
58.4982
-90.2461
-11.805
-26.817
-36.4752
-13.6548
-7.72851
-56.7059
-7.84538
-29.47
-27.5366
-6.94788
52.2095
-3.26466
0.099914
-41.9537
-27.6171
42.1738
-44.6286
-24.6377
-60.2276
-8.18245
-10.6555
-30.9371
-48.1527
-26.9303
40.7361
-45.0485
-23.8512
17.8024
-28.1392
54.6765
-25.8869
-29.9841
-22.4231
-9.34789
-2.22904
-11.2449
-36.2254
-48.912
-31.595
-16.2236
-27.1549
-25.7317
-28.6374
12.1602
-13.2567
-27.3566
-39.8664
-23.5527
-17.3526
-32.453
-10.7446
-27.1347
-6.61519
-0.139574
-25.4574
-44.7769
-41.1871
-30.1308
-18.1183
-2.92834
4.26227
-29.8228
-28.0371
-15.8102
-22.5078
-37.3031
-32.2877
-26.7173
-24.3237
-35.2342
-29.3696
-29.0955
-15.2729
-52.0622
-10.3512
-55.3574
-53.0571
-13.954
-51.9454
-48.0775
-31.315
-14.2891
-36.9557
10.8474
-8.98874
-3.88238
-30.8901
-29.9229
-40.516
-75.3607
-32.6891
-31.7582
-14.8557
-30.3815
-35.208
-17.1279
-24.0398
-14.5929
-24.8516
-11.2531
-10.056
-34.2603
-14.6025
-21.7693
-1.88949
-11.2716
-22.5743
-9.4449
-21.328
33.8158
6.3741
-20.9925
-28.0312
55.5484
28.3978
48.0593
16.2847
-23.6591
-24.5376
-21.8012
-10.4441
-31.897
-32.878
-22.0322
-18.2797
-15.3623
1.35807
-26.6837
-14.7149
-3.25665
-33.8879
-42.7426
-41.1003
-34.5598
-38.0894
-45.9066
-46.3492
-13.1597
-77.8012
-21.3799
-10.2416
62.017
-29.0026
-0.197525
-36.0991
-41.4868
-7.55774
-28.3903
-10.9069
-15.7276
-27.2068
5.05446
-111.96
-44.6349
-24.7847
34.0904
60.9766
-32.5473
-82.5767
5.42099
-27.9169
-40.6123
-27.3562
0.304155
-31.0572
-24.3084
-74.125
-32.1079
42.1756
-28.4381
-35.5171
-8.16688
63.0833
58.9877
29.5761
60.6609
-32.7831
-9.64628
-85.1166
-15.6125
-10.8091
-19.1967
-4.3736
-10.648
-18.2529
-3.46295
-14.4129
-6.34337
-8.48436
-9.89229
-24.3574
-12.1213
-3.61748
19.989
-9.92712
6.3084
-19.224
-10.9699
-15.7955
-8.68922
-10.7007
-3.09716
-3.41503
-33.7888
6.82662
-7.3315
-39.5656
-2.75994
-2.58099
-6.71923
-1.66672
-62.9704
41.519
-18.1309
-1.69742
-18.9665
-11.6832
-14.8215
-4.12983
-15.2681
-6.28768
-17.306
-9.34932
-6.50315
-44.3837
-56.4114
-43.5779
1.72056
-15.3475
-33.3106
-18.8191
-59.6486
-21.9499
50.4708
57.6229
-29.1407
54.3981
-61.7411
-16.7368
56.9336
-31.3378
-45.5529
-27.1407
-31.817
-26.1366
-39.8184
-27.7214
-21.2677
-35.1429
-19.1999
-26.8486
-58.0715
58.4096
-17.1149
-48.5006
-59.9838
49.39
-23.4651
-23.7837
-20.7057
21.591
-61.6477
1.37318
-27.4654
-45.6605
-22.0821
-36.5602
-28.9288
-72.1121
-54.8465
-16.064
-30.476
-18.88
-33.6348
-56.3094
-33.1086
-36.9679
-56.1578
-38.7039
-61.0046
-16.3377
-97.2727
-41.3674
-31.6884
-24.4867
-77.8092
-27.7648
-39.4161
-28.9244
-45.0852
-35.8396
6.61944
-34.9603
48.614
-4.40117
58.7445
59.8307
-29.0007
-29.2193
-28.7573
-33.4477
-33.2644
-31.392
43.9994
-28.8388
27.3107
-28.7292
-29.9429
-29.2909
-33.2846
22.0473
-8.43765
-27.6995
-28.3759
-28.1199
27.3494
-23.6007
31.3853
-15.5177
-29.2895
-24.2559
-23.1019
-25.178
42.3646
-33.8397
-31.3095
-12.5012
-9.59461
-1.30491
-2.26537
-3.68721
-20.2453
5.48667
1.11612
-10.8961
-8.70558
32.8146
-11.6373
-2.70581
-35.8503
0.842505
-35.7901
-26.8871
-10.4832
-7.45915
-3.68175
-72.075
13.1276
-32.251
-30.6788
-28.6849
32.8737
-28.938
2.67425
-28.2932
-30.2321
-36.4042
-25.788
-32.6488
-29.0218
-1.43703
-0.416531
-14.5078
0.926938
23.9264
-21.8249
-31.3243
-4.56449
-30.6659
-30.7581
-17.6978
-30.4624
-85.636
-94.3591
-23.6855
-89.1528
-81.331
-31.0403
-32.2361
-28.6899
-30.6549
-31.2726
-29.2141
-3.58539
-24.2216
-24.0293
-29.814
-4.74175
54.442
59.7886
61.0476
57.586
20.8949
18.6843
33.6077
36.8564
28.7604
-18.7477
-15.3813
-15.6962
-1.33971
27.9138
-14.0758
-17.7173
-13.9765
-31.0932
-15.0535
-7.97847
-13.307
-11.0115
-30.5057
-33.4177
-35.4242
-11.5755
-22.4201
-10.0203
16.4672
-32.0128
-8.01296
-0.259386
-10.7223
3.70185
4.91215
-42.4166
-5.67885
-28.9172
-5.67922
-36.9451
-16.4581
23.7638
24.2139
-27.3825
-30.1957
-30.9636
28.1194
-27.6427
-24.116
-14.0475
-43.5602
-30.1015
-16.7821
-101.171
-16.1474
-15.1417
2.28348
-31.1578
-7.49685
-6.05708
-23.3258
-0.774485
14.8391
-19.5186
-37.7585
35.7313
31.7854
6.06634
29.8408
20.4535
-33.2065
-35.1234
54.3115
-174.43
14.3692
16.2466
-128.598
7.32966
-2.99266
34.197
4.37405
44.7995
-61.0306
-68.177
20.4921
-53.1841
-7.95154
-10.04
-13.1692
-18.6637
-20.7169
-22.0971
-23.1262
-16.8743
-145.485
-102.969
-61.1096
-47.4445
-27.2992
-8.92358
-63.1459
-47.8667
-24.6645
-27.2725
-13.8634
53.2579
-11.1927
-58.4671
-20.0273
-1.84709
-0.446005
2.5772
-50.1253
-63.7703
-41.2863
-52.6486
-62.4616
-53.3012
-14.3258
-11.0849
-35.3494
-10.491
37.1166
-23.8639
-32.3268
-6.00591
-13.6392
12.5425
-36.2352
-9.70036
7.18885
-22.7443
-10.4362
-43.4943
-10.6387
23.3967
25.7149
-28.525
-15.2621
-23.9631
-34.0441
0.277735
-5.2146
-10.6972
-6.72888
-29.1751
-14.0771
-17.2168
-54.0998
-73.1962
-44.9641
-53.4465
-56.1803
-46.8568
-17.4301
-13.6182
-52.9567
28.499
-15.778
-15.1958
44.2254
38.3057
-18.8157
-14.5621
-14.8098
49.1143
-18.6564
-33.9831
-15.375
-41.4002
-15.5285
-1.839
35.9639
-9.71089
-9.97731
-38.2527
-20.105
-19.4343
-47.1755
-91.3052
51.5914
55.3244
-27.5614
37.9952
-33.8278
36.3916
-20.9771
-105.178
53.1201
49.2541
51.6742
-20.0408
-46.2968
-9.28853
-16.6109
56.249
-22.9732
51.0013
-78.2963
-85.5335
-70.9924
29.5893
-22.6794
-13.6942
-11.3269
-3.59564
-13.178
-47.561
41.8687
-12.5276
-1.82536
-33.4827
-10.8054
-4.01035
58.4758
-29.5368
-30.13
31.5735
33.4779
-3.57579
18.915
-9.54123
-22.5454
-8.16303
26.6774
-30.1794
-48.3372
-62.1221
-6.6793
40.1024
-69.4938
13.9749
0.00357752
-32.7519
52.254
-29.1465
-36.9038
-28.2423
-27.5333
-14.3398
-30.0215
-12.8564
-37.0546
-47.1296
24.2993
0.973771
-4.00698
-1.05021
-8.05085
-35.067
-46.4569
-26.4193
-12.1835
-8.59016
-13.9848
-15.3147
-5.64101
39.9366
-34.1077
-30.9517
21.9009
44.4943
-43.7294
-30.2465
-17.6584
-27.4628
51.7983
-39.6521
-97.1825
-32.3575
-11.96
-67.6397
-65.5573
-59.5601
-28.3768
-27.1255
-11.6461
-41.0636
-29.9067
4.2638
2.30938
-0.0912978
-40.8524
-19.4461
-102.592
-66.827
-26.6434
-26.7648
-99.5044
59.8489
-38.1742
-27.1597
-8.86363
-34.7571
-48.517
-4.43455
-11.8428
-27.7907
-35.6201
-35.39
-30.9229
-15.0228
-31.7772
-25.0938
-18.6996
-33.25
-1.28597
-10.9715
-26.2861
-25.1843
-30.1949
-9.99166
-31.2706
-29.3377
0.385259
13.4952
-32.375
2.23117
-1.8228
3.98689
-0.568478
-27.9693
-0.350809
-30.1011
-22.7007
-18.0542
-86.4856
-38.8344
16.6122
12.0778
-22.3427
-10.268
-29.3699
53.8671
-20.0716
-29.3679
-19.771
-31.9726
-21.8337
-20.4422
-20.5194
-8.13988
-34.3827
-59.7012
-24.9668
-28.141
-11.3725
-38.0008
-8.05057
-3.96718
-20.1163
-18.68
-32.5825
-23.9167
-29.6376
-12.0945
-29.0496
-3.30029
-42.753
-12.4048
-14.6377
-27.5995
-6.21117
-31.5304
-7.07255
-25.3664
-32.5448
-20.1551
-27.3849
-34.5514
-3.36636
-8.97358
-37.4042
-14.0443
-24.7469
-66.4732
-17.3165
-9.05385
-33.7752
-26.2401
-32.5793
-33.3419
2.48006
15.7648
38.3452
-3.44529
-27.8189
-30.382
-29.26
-2.51823
-32.3604
0.748869
-41.329
-19.8552
-20.2393
-39.6373
-43.2645
-34.6574
-18.1338
-26.0684
-14.3131
-14.3597
-11.7293
-25.9693
-24.4676
-27.9472
-34.6068
-28.74
-7.71372
-6.78346
-8.27281
12.3748
-31.9319
-32.597
-24.9736
-29.0496
-13.405
-22.1056
-20.0856
-58.2709
-1.65626
-6.97497
-24.3748
-13.2423
-4.10416
-17.5843
-14.7768
-13.4079
33.8898
33.5404
-14.2588
-27.1365
-49.4618
-17.5718
-17.2193
-8.32249
-43.4294
-34.477
-13.8939
-4.89092
-7.72908
-12.6397
-33.8129
-45.984
-34.0046
-30.1972
-7.45879
-20.1283
38.1414
-110.756
-15.2199
-44.2316
-60.2525
-28.5904
-43.7417
-42.2685
-27.9762
-40.2055
-4.33413
6.52019
-10.9473
-8.60842
1.30108
-53.6134
-34.0627
-1.35665
8.54122
-27.3265
-5.33795
20.0158
14.9827
46.0155
15.7855
1.05715
-22.2416
-28.2066
-1.28658
37.7658
7.04613
9.83992
-28.6077
-49.5221
-27.768
47.9038
-51.9612
4.16292
2.44354
60.322
-82.7261
-31.7465
-27.0528
58.0675
39.9716
62.2825
54.8426
-29.4761
-7.92088
15.182
0.668461
-25.9642
-20.6498
21.7691
52.0909
-50.7095
-2.89204
-3.99578
-2.09269
7.13133
7.29773
-21.8221
-23.2957
-1.17901
2.7812
-7.89838
5.56368
31.3133
-46.4891
33.3545
36.6611
-50.8918
27.2994
-1.40526
-9.90174
-7.58024
1.91328
-9.82767
-12.7268
-30.7359
-16.7717
7.36414
-31.3886
-9.50346
-14.6564
-11.6557
-17.0884
-12.8695
-27.411
-27.135
-20.9375
-27.5899
-37.8541
-36.8847
-29.2715
-13.3406
-59.2016
-23.411
-14.8429
3.27653
-7.98006
-4.1425
-53.6131
-24.0533
-40.1827
-9.54474
-42.7417
-31.3506
-23.1609
-6.2772
-12.676
2.92354
-15.886
-12.5345
-8.8378
-15.0049
1.68026
4.32506
-42.6118
-25.2262
-10.2682
-27.4514
-63.4258
-27.5592
-27.2956
40.4808
-31.4251
-13.5379
60.5425
-27.5137
-27.1646
-12.9873
-25.0491
10.2885
-28.192
-28.7621
-29.1496
-26.1758
-15.8077
-71.779
-48.9327
39.6627
-32.924
-16.5356
-27.769
-27.0701
-10.9536
-15.5273
-36.2516
53.5517
-20.1961
-60.1595
-63.1932
-83.0264
36.6932
-52.1237
-65.5223
-25.2746
-23.8311
41.9103
-32.7057
-19.2202
40.9642
-35.6422
-36.3433
-26.3171
-46.8902
-36.9552
-38.1205
-43.3657
-33.1624
-26.9894
-34.3251
57.8827
-30.9223
-27.6397
-27.5097
-27.082
-32.0414
-7.89363
49.5043
17.5216
-7.21548
-2.10005
-17.2886
-11.9183
-22.4157
50.7967
-27.2301
58.4792
60.9669
60.7899
43.4329
-18.3788
-48.2491
-22.764
34.7777
-44.5703
53.5044
-3.94643
44.5123
-12.7299
-9.40425
8.9253
-13.133
35.0943
18.579
36.7479
-8.77162
60.1705
36.2635
24.6858
30.0543
-44.3402
-50.3267
-69.1152
-62.9328
-14.3192
-64.6283
8.114
-63.7326
-62.5924
-84.3883
-59.4191
-25.1762
-23.9682
-61.9781
12.9103
-61.7242
-61.0755
-28.3484
-22.2823
-34.5808
-23.4818
-73.1155
-0.847202
-59.0795
-13.935
-6.10039
-14.77
-34.8325
-31.3629
38.4423
-12.1316
-40.2918
-7.16782
-16.756
-26.5235
-26.9403
-35.156
-28.5977
-37.9415
-35.4246
-3.52205
-8.85944
25.0487
42.6782
-9.6508
-10.7368
-13.5496
2.2028
-12.0935
-35.5734
-34.3995
-29.92
-11.9507
-20.383
-28.2565
-59.68
-10.0568
-31.4884
-15.0772
38.0594
-47.8939
-0.234417
-4.36312
-1.09296
-2.79394
-27.3827
-1.02669
-8.80437
-8.30293
-62.1633
42.4228
-27.0751
41.5957
-5.64184
19.6389
-9.94891
-23.4982
-31.2116
-13.1918
-16.3009
-24.5729
-13.068
-12.8209
-38.9724
-30.105
-44.4297
-28.9059
1.57569
-12.4453
4.04636
-27.8551
10.5174
-20.3887
6.98907
-50.3946
-13.2286
-3.321
-11.8994
2.43137
12.9219
-6.18301
-33.451
1.72167
35.8778
29.8183
0.045311
-14.2173
6.94074
-40.4249
-44.4757
39.9443
-65.2046
6.50893
-22.1265
56.3542
-15.7862
5.38451
-3.15911
0.86563
-7.59858
-21.8901
2.088
-36.0048
-39.6788
-37.0218
-63.1073
-53.4781
-59.1812
-28.7432
-20.6388
-4.22698
-26.8812
-26.3813
-24.7643
-27.9789
-28.7044
-11.8042
-38.4361
-3.76976
-27.8053
-28.485
-29.3323
-151.625
25.6164
27.601
40.0485
60.5278
23.7325
3.60824
-9.70392
-5.97591
47.8975
46.2328
-33.0107
55.4993
24.3187
-76.6855
-31.9218
8.76445
-49.583
-34.9435
-20.4647
-13.2226
0.831808
-4.09473
-34.6449
31.5764
-27.2096
12.8625
36.4204
-43.4184
-3.30599
-54.9562
12.4126
-25.0249
-30.4703
-24.8886
-3.9416
-59.5335
-53.0631
-27.0676
-28.1031
-28.5887
44.6214
19.5857
31.3373
37.692
17.4749
-4.79798
36.4294
59.0774
5.25597
56.0921
-73.912
5.23223
-10.2576
-4.83104
0.143059
-30.8417
-48.5404
-45.8995
-89.4264
-27.2383
-27.497
-7.07384
-27.5117
-26.9503
-27.8657
-26.1563
-49.4458
-35.7876
3.3968
-27.6987
-7.0941
12.8987
-2.03883
28.8885
22.9231
21.2837
-27.8468
1.98214
-34.64
-28.7012
-41.8859
-33.4232
-39.39
-4.91799
-21.2239
-23.0409
-2.73041
-8.90075
-15.0291
-2.94047
-40.8853
-14.9217
-37.6519
-31.7149
-38.2436
-27.9404
-30.0231
-35.9101
-2.35998
-32.0286
-27.0528
-10.8125
-14.0656
-16.7911
-32.633
-9.86119
-17.4409
-27.1668
-32.3047
-21.4069
-36.8065
4.5917
0.976502
-34.0403
-9.39836
-29.3757
-31.1903
-28.6628
-28.5378
-6.17232
-11.4665
-27.242
-3.26355
-15.3257
-18.4202
-36.1446
-40.0239
2.66978
-5.45184
-9.16315
-21.6442
5.92222
-11.164
-29.2245
36.099
-33.5771
-30.0808
-22.2403
-24.355
-25.6207
-28.3606
-32.2597
-38.2345
-26.897
-8.54879
-51.8412
-55.8207
-25.7623
-31.143
-24.5508
-20.1428
-8.85235
-29.4331
-29.5784
-28.819
-29.7272
-28.8941
-28.5181
-31.9369
-27.4769
-27.6474
-27.3611
-27.2246
-27.6385
-48.0582
-57.5092
-47.4885
-43.3406
-57.8094
-26.863
4.28701
3.414
1.22444
-22.7545
-15.5326
47.9258
49.2277
41.6043
41.3644
48.4787
45.6073
54.3528
-45.2186
-36.255
3.95805
-40.619
-20.7666
-27.3039
-46.3447
-18.2689
-17.0317
-13.0377
-17.0167
9.90166
-2.16443
-71.7255
-58.6349
0.125831
-51.8688
-35.4254
-32.7608
-29.9145
-29.9858
-28.4211
-10.4464
-22.5467
-17.1956
-28.6816
-27.8922
-27.8653
-27.6048
-31.6844
-19.2167
-7.48945
-16.9425
-21.5376
-8.09709
-11.0546
-36.747
-99.7712
-44.477
-13.3512
-19.3697
-48.3791
-37.7274
-34.9576
53.1143
24.5533
-3.50435
-39.1988
53.0062
-27.5982
57.0136
57.5442
55.3265
-25.0856
-38.5221
-29.5647
-39.7485
-20.3661
-16.0896
-36.3671
-17.1162
-21.341
-21.8692
-51.0638
39.3863
-16.3776
35.3408
-42.2677
-54.9267
40.2389
18.7852
3.58019
-26.986
-31.0875
-30.894
-29.0005
-35.7939
-36.3
-12.2166
-3.9208
-19.722
-6.48313
-12.821
-43.0516
-36.1556
-56.8609
-17.5297
-25.8708
44.477
48.2509
54.9456
38.4517
45.1886
28.204
7.89214
3.6592
7.91421
4.60066
32.6673
15.3591
24.0792
-7.69833
-17.0213
52.5185
38.8023
38.0108
43.3452
-6.50662
44.3824
54.9472
49.8011
47.6918
-31.6297
-32.2358
-31.7533
21.0651
-8.87088
-6.66397
-10.3458
33.6223
35.9294
40.7016
-28.1192
-29.3228
36.8475
55.8295
-49.5405
53.4392
57.8296
-28.729
36.0669
19.7902
-116.171
-160.979
-17.0215
-94.6844
19.1351
34.1806
-81.8303
-14.216
-14.0211
-56.8828
-61.9763
-27.9975
57.6982
-32.8103
-44.1441
-0.423705
-30.6726
-28.6667
-30.4931
-33.6359
-22.4884
-22.7984
-45.137
-85.5729
-26.7112
-71.2839
1.86601
32.1406
-36.6905
-46.6257
47.9621
45.7071
30.4404
-27.2475
-38.2298
-37.0338
-40.8593
-34.2789
15.016
-25.6332
-18.8087
21.0617
-28.7869
56.3293
-29.1305
-29.9883
-26.1922
-28.6124
-33.9633
-29.3674
41.0279
-46.7826
-3.13055
19.9352
2.92553
-26.718
-101.283
-32.2362
-33.9989
-57.2387
-67.8436
-63.5482
-29.6493
-38.8637
-14.8764
-38.2415
-86.8506
-28.7428
-30.0758
-32.4401
-29.6626
-28.5214
52.7315
56.9583
30.5264
31.5818
53.5476
52.667
-24.0175
-23.5317
-30.3752
46.0075
58.6326
-9.31671
-6.70475
-5.22991
-14.5498
0.553999
-30.1316
-27.8695
-25.234
-17.7866
-27.5275
-26.8089
-9.03617
-13.5526
-19.8135
-30.5951
-8.47018
-21.6058
-31.9631
4.88127
-3.96094
11.5304
-24.3312
-32.1772
-24.5244
-43.3799
0.80335
-24.579
-31.2759
-25.6034
-24.0848
-26.9164
-27.8683
-27.761
46.2847
-13.7912
-13.9681
-14.282
-9.87747
-32.6342
-27.0776
-41.6704
-19.5329
-27.834
-7.56626
-33.8901
-22.6387
-32.9668
-31.4615
-22.1357
-37.4719
-17.0962
-28.0912
-66.6714
57.7372
45.1189
-29.2451
46.9163
-27.8951
-34.1533
53.4082
-3.03929
-50.4813
-26.6622
-2.76244
38.6236
40.9686
48.952
56.6509
52.2853
-24.2958
-45.8509
-11.8788
-7.42479
7.92398
2.06747
-25.5725
-44.7969
-59.4022
-46.449
-42.3281
-19.1632
-14.3871
-30.5774
-32.9399
-28.9492
-28.0574
-31.9408
-30.0299
-9.18138
-12.6711
-21.0051
-8.87123
-5.79158
-16.5794
-23.0238
-26.4707
-22.0228
-9.42536
-18.2853
-27.1652
-28.7952
4.1616
-20.7707
-48.4501
-18.3041
-16.5212
-43.7588
60.898
49.7972
-13.4595
31.5023
-5.7719
20.767
21.7891
-19.2409
1.26164
-11.393
-11.5758
-21.403
-40.208
-44.1559
-32.5806
-25.9971
-25.4886
-49.9328
-19.5922
-6.66807
-27.7839
-66.1747
-71.7313
18.7853
15.398
22.3468
-32.9424
-51.5975
-19.5661
-37.0515
44.9499
57.9095
45.0463
23.0032
20.1878
61.0216
-3.97458
-12.7521
11.1474
17.8846
27.3722
48.3218
-49.1695
-5.90669
-20.197
-15.1975
-20.0427
-15.4969
-17.7196
-21.8075
-16.9334
-15.6519
-33.5887
-4.28843
-1.08308
-27.9109
-14.2512
-62.0075
-60.3098
11.6468
47.8336
45.2237
-10.4862
-39.4366
45.0175
12.2008
-16.262
15.3687
-20.21
-17.0956
-43.3952
-14.8706
-12.0005
-13.9153
50.781
-44.5259
-52.7783
-32.0917
-11.4345
-38.336
-22.2875
-39.638
-29.9152
-56.3576
-28.7981
35.0613
34.4858
48.183
44.7006
46.5642
43.3523
-70.1186
-21.6873
-30.3118
-8.50853
-21.1047
-49.2535
-19.4469
-36.3645
-12.8134
-47.8448
-30.5393
-16.6636
-2.98502
-27.0697
-12.5921
6.87865
6.22765
3.41695
-29.5548
39.182
36.579
-78.8823
34.3137
0.502813
25.2947
41.207
-27.3037
-18.3316
-7.97707
-32.7237
-26.5936
-9.87552
-15.7666
-30.0554
-27.7077
-35.7456
-66.0879
-50.0365
-71.2877
-22.7102
-44.3936
-67.2489
-10.3901
-8.88319
25.6222
56.8955
-27.5616
7.43605
-27.6525
7.99702
-1.36303
2.68695
42.3595
-64.8626
-24.756
-25.6617
-17.1666
-41.4377
-21.7969
-16.2693
-29.0551
-20.1316
-13.1187
-21.5364
-23.2861
-8.87408
-34.5443
-34.743
-30.1754
-31.343
-20.9105
-29.114
-32.3855
-29.356
-27.8241
-28.9479
-18.5068
-12.7739
-16.13
-17.4844
-31.7627
-14.7273
-26.574
-4.77364
-9.10764
-8.36104
4.0257
-4.27839
-8.08235
-0.172904
-1.3341
2.21934
-36.3081
-1.3514
-36.6753
-28.0494
-11.0578
-5.4351
-11.8087
-20.0218
-44.2433
-6.71055
-8.4258
-39.4865
-26.7006
-31.1294
3.85645
-22.0865
-29.7872
-23.5331
-45.1695
-26.7473
-24.3231
-29.5001
-28.8468
-23.6527
-8.43631
-15.6522
-40.341
-18.9901
-9.29475
-39.6452
-35.4083
-21.5523
-18.5912
-31.3583
-38.348
-25.3872
-9.72787
-12.3131
-32.2512
-29.6228
6.69054
-27.2249
-27.1156
-29.0784
-1.2501
-40.3847
-74.7949
-55.5671
2.21973
-16.0806
-47.4036
2.10172
-6.11373
3.0618
12.7058
-27.248
-13.5239
-85.0752
-63.3026
-17.1798
-27.6139
-27.3618
-41.4549
-30.2758
-34.1063
-39.6686
-43.4804
-33.8774
-31.5862
-24.6807
-24.0962
-29.7048
-15.2433
-40.1994
-2.95216
-2.54358
-23.4583
-49.5763
-7.28968
49.5793
-56.4027
-121.669
-57.4286
-29.1645
-10.4344
64.3281
12.0523
-27.432
-25.4199
-30.2516
-27.2567
-26.3752
-28.3888
-30.2299
-29.1475
-43.0355
-8.79601
-28.7837
-28.6645
-30.3983
-3.28999
2.16856
-4.47449
-47.9257
-30.9103
-174.205
-34.2179
32.5575
-28.1722
-29.2997
-29.5021
-33.1602
-31.6196
56.6981
-43.4659
-27.1989
-35.4117
-27.2744
-27.8049
-33.4319
48.4038
-33.54
-8.08469
-6.09125
-2.73083
-14.0469
-1.73616
-5.34016
-6.0279
-22.5042
-8.08871
-1.90503
-33.8987
36.8172
-30.4279
-24.011
-35.7268
-36.2391
-21.6547
60.637
-4.60233
-35.4694
-0.0617493
5.68117
-2.96569
-29.3102
-16.9034
-64.6425
-40.7989
-60.2256
-40.9494
-81.9208
-26.0683
36.5771
-31.0921
-5.14681
-47.7097
-37.9714
-45.5416
-37.6657
-31.7579
-28.1626
-28.6872
53.6856
-27.5955
-27.2616
-54.7299
40.3075
-59.6132
-27.7594
-27.6832
25.9255
-25.2016
-36.2573
59.859
-33.8704
60.0432
60.9026
-27.0572
-36.5317
35.9273
-36.6748
-28.784
-27.6138
-25.743
-25.9926
-20.1896
-32.2546
-31.6032
-28.484
-67.8416
-63.925
58.6066
-60.2997
45.3436
-32.9355
-17.5957
-4.73757
-34.4015
-27.422
-28.3391
9.3364
4.91352
-1.12483
5.08374
9.8204
7.28013
-24.0522
-61.3292
-64.8214
-26.2827
-121.027
-27.7219
-26.9936
-25.3974
-32.1335
-34.2025
-32.8143
-30.7898
-31.8777
-31.5857
-31.1741
-31.2342
-6.06476
-30.7885
-32.8782
-28.6281
-32.757
-31.4493
-30.7851
-22.314
-23.1357
-20.9159
-23.5254
-36.0753
-41.0042
-18.9477
-20.1968
-13.0271
-5.49458
-20.284
-18.9177
-2.5352
-0.770803
-40.0385
-9.55159
-0.0764757
-6.02626
-30.6144
0.127175
-7.03448
-26.097
-29.1488
-27.6999
-20.4603
-40.0742
-32.041
-21.8661
11.0594
-2.28653
-28.4385
-32.3734
-28.4003
-27.8938
-10.8858
-12.5069
-7.75393
-60.5014
-87.7218
-13.8426
-3.34907
-109.804
-135.491
-20.71
-8.96177
-10.8183
-61.5548
-20.7515
-22.5832
-38.122
-31.6881
-15.1461
-22.2262
-13.7831
-20.9256
-17.4678
-64.0228
-53.6754
-176.238
-45.4347
-36.2133
-44.6417
-35.6353
10.7728
41.6071
39.8559
13.142
-32.2147
2.56436
-23.0291
-22.1414
-26.6179
-30.3673
-28.5499
-33.221
-33.8189
-24.8168
-7.83734
14.9608
-1.22737
-34.5328
-40.6491
-41.4533
-8.95188
-5.28113
-2.97153
-14.7127
-36.9533
-35.0945
31.2878
-13.1306
-21.3676
1.82375
-22.7921
-46.9049
-33.6219
-40.237
-23.5268
-45.1841
-23.5915
57.2963
52.7404
57.9048
55.7904
58.6974
-27.2417
-1.03905
-2.62242
1.59491
-2.79559
-34.0646
-35.9852
-173.7
-110.431
-2.47915
-46.9061
-29.2165
-20.7821
-20.5645
0.996809
14.5957
-0.266646
-17.7422
40.2127
56.0042
-9.86318
-7.24196
29.557
16.4234
-32.1906
-17.947
-42.3722
-35.3755
-24.7383
-15.7286
-21.4587
-24.8505
0.994219
-13.247
-38.5829
-20.3135
-12.9101
-12.931
-9.7889
-11.2821
-21.4827
-2.1271
1.80877
-13.4495
0.170991
0.160065
-18.8563
-15.4913
-15.4242
-166.46
-9.36317
-7.37773
-56.147
-1.91349
-12.9858
-11.6159
51.4158
49.7764
46.4047
40.9536
2.50405
7.65658
7.83158
-0.707827
-3.88616
4.98095
-0.595345
4.78461
-157.453
-14.6807
-56.422
-28.0915
9.41884
-18.1287
16.36
7.88731
-12.4109
-54.5672
-11.3751
-17.7199
8.99945
-10.014
-64.1429
26.7184
22.0425
39.806
9.20742
31.5884
-5.59842
-8.35812
-5.91127
25.6332
30.0263
25.3577
45.084
21.8166
30.4881
31.7609
-6.87901
-1.84978
-8.8715
-21.2665
-1.17381
-17.6492
-16.1736
-22.5342
-44.0863
-13.1665
-16.6315
-13.5865
-12.7657
-55.2009
-67.8884
-116.618
-34.216
-8.90543
-24.1963
-38.1489
-6.54101
-120.017
-77.7846
-62.5918
-28.4708
-5.32352
0.351268
-2.84385
-9.05229
-17.5734
-4.89662
45.4162
-9.41887
57.8304
-1.99911
0.28536
59.0096
46.2127
47.4759
-5.4595
-56.5564
-2.97862
-19.0246
5.17807
13.1784
-3.30268
-16.1214
-13.4449
-15.407
-30.2922
-34.237
-29.015
22.2699
45.5184
47.4993
14.0271
16.8151
1.05144
1.45835
10.6697
26.6965
-4.86942
-25.7422
-43.0927
-30.2714
-30.9654
-30.8995
-35.3026
-50.3162
-93.1717
16.5762
27.1759
-12.262
28.7623
-14.2519
-32.0878
-3.91229
48.313
-62.7117
-19.4593
2.79681
-121.446
-31.6829
-37.1843
-37.3758
-39.6294
-37.1634
-46.3719
-33.1575
-8.31068
6.19108
-40.1483
-36.4321
-42.8983
-19.7068
-8.91895
31.0522
-0.0438433
58.7261
-36.2037
-35.7684
-27.3571
-3.49054
0.281992
29.4763
26.3268
13.3252
12.5917
40.1174
-20.1206
-29.4182
14.5462
8.43456
3.97432
6.52951
31.624
-40.3691
-31.6752
-23.7128
-28.2678
-21.8679
-34.0696
5.27244
-34.9487
-33.4048
-24.7915
-42.1112
-31.6914
-31.9112
-18.5513
-34.7819
-39.8676
-20.0611
-18.4503
1.90136
-14.5043
-24.6177
-32.2613
-30.9236
-33.7983
-28.3545
-24.8754
-31.9866
-29.2735
-27.9078
-32.6537
-33.0735
-27.2619
-15.375
-24.0123
-20.6275
-17.7666
-17.8446
-2.84635
-1.36605
-19.1731
-9.50484
-12.3018
-18.9321
-25.1972
-31.6187
-25.3441
4.15416
-22.9396
-34.4216
-7.70929
-39.165
-32.1893
-29.3582
-13.8063
-0.474955
-12.9102
-4.54233
-10.1299
-8.3904
-11.3129
-13.6662
-7.13093
-11.6352
-13.7433
-11.0682
-11.5944
-33.9561
-30.5081
-31.3481
-29.2091
-19.4517
-10.5155
-0.969776
-28.0465
-13.8857
-27.3118
-12.6091
-25.4085
-3.37914
-10.4721
-21.1854
-30.8471
-28.0175
42.573
-42.9683
-47.4563
40.5223
50.2919
39.247
-30.9957
11.8872
50.2914
26.3584
-13.5583
53.7757
-28.8304
54.3571
-33.0045
-32.7161
-61.7898
-59.6466
-30.1743
-44.4568
-60.0834
-41.9896
-28.2099
-28.0211
-32.129
-44.1189
-30.9536
-35.8308
-9.90586
-27.2692
-4.53245
-30.9187
-28.8629
-64.8237
-7.98206
-8.72346
-29.6432
-37.5986
-72.0572
-6.4115
-36.5638
-14.2065
-10.5358
-28.4118
-16.8929
-11.9781
-43.5852
-72.0458
-15.6178
-46.4587
51.9737
-58.1116
-30.8035
-21.4991
-20.6682
38.5021
48.3163
40.1488
41.2204
53.3859
60.2972
22.9807
60.713
49.9203
47.4443
-28.6905
-27.7857
-32.8356
-27.2579
-32.6898
-45.3649
-27.5977
-31.9972
-36.8578
-35.393
35.2302
35.9565
35.3166
-30.4356
-29.1812
-30.6118
-19.3017
-26.4975
-14.8611
-14.6859
-19.7103
-4.36542
-9.64638
-13.9906
-7.86812
-5.62355
-1.63862
-6.73285
-4.84859
-32.5085
-5.64469
-39.3237
-19.0897
-11.4586
-41.3007
-22.1983
-20.3657
-34.065
-30.4724
-21.1561
-31.8235
-37.3409
-2.75489
-27.0213
-14.4504
37.9954
-27.9912
-19.0763
-29.1206
3.43574
-23.6577
-17.9516
-11.7082
-15.2517
-31.8793
-37.9474
41.6356
-23.1322
-33.0475
-50.943
-49.3279
-28.3954
-30.4467
-27.6502
-34.0513
-30.5412
51.8409
-28.1243
-32.1805
-28.5885
-29.2397
-28.5709
20.8002
1.45607
-28.0977
-29.4746
-32.1529
-4.61963
-27.9986
-26.9894
-28.5735
-24.0086
-51.6925
-46.25
-49.7298
-57.1862
-34.5332
-30.6648
-64.5012
-17.0821
-16.1732
-40.1868
-45.0834
2.09087
13.6013
16.7809
55.4399
14.1375
-10.7449
-15.4166
-19.1546
0.15161
-10.3522
-2.00049
-2.13993
3.71884
15.5273
-29.3987
-28.6966
-27.2964
-39.6834
-39.3142
-30.7452
-25.9128
-22.9671
-12.0495
-16.4177
-5.60614
-12.3485
-13.6056
-21.7811
-20.223
-12.3232
-9.7544
-5.76767
-41.6798
-40.3964
-37.0722
-2.47793
-24.8529
-11.7781
-14.4775
-21.1447
-11.8845
-16.7919
-20.8031
-8.14518
-9.65692
-4.14356
-18.6155
-28.7957
-34.3784
-48.5686
-17.8222
0.491366
-47.4768
-13.6813
-10.4244
-6.03878
-27.7151
-19.8828
-33.3537
-20.2484
-12.1544
-24.2442
-43.5468
-11.9638
-14.4689
-35.797
-15.9434
-18.2041
-25.1012
-32.4821
-30.6804
-30.6766
-25.7529
-17.1564
-17.1992
-14.4485
46.8538
41.6339
51.0491
46.2612
-31.3625
-30.7988
55.2316
45.8656
54.9524
-10.5556
-0.0860653
-9.98644
-13.242
-20.0905
-36.6992
-33.8491
-120.724
-95.2918
-45.2883
-38.2817
-47.6543
-37.7112
-41.1777
-51.6612
-45.4227
-76.362
-78.7928
-75.4215
-92.8808
-89.5489
-94.4281
-89.3386
-93.4058
-102.064
-105.104
-12.1039
4.94406
-26.7802
33.0416
-26.7186
-35.1267
-27.5806
-35.9945
-51.234
-50.0018
-31.4231
-46.6334
45.1504
-123.62
-122.599
-28.7403
-27.453
-27.8141
-28.7758
-27.7585
-33.5614
-32.6578
-39.0467
-26.8838
-40.434
-21.5589
-62.1876
-30.2622
-68.681
-125.023
40.9362
-30.3554
47.8076
56.8153
-27.5347
-28.1498
-31.1631
-9.46893
53.5077
-37.1187
-11.4105
-14.5492
-12.3782
-29.8898
-29.1969
-9.81777
-31.6835
-3.9125
-60.4766
-28.7056
-27.7786
-27.8382
-28.7892
-97.9016
1.30141
-76.0572
5.6779
4.33743
-6.45997
-21.6874
23.2078
26.505
-39.6182
-39.1521
-11.3378
-27.5412
-30.7057
-26.691
-27.1281
-27.1722
-34.4225
49.3346
46.088
-31.0583
-14.8943
-19.46
-13.5588
-14.6566
-12.611
-31.6771
-33.6354
-34.3628
-34.9739
-2.86227
-40.2701
-8.99721
-23.7186
-39.8587
-3.84911
-7.07157
-2.78555
-9.22689
-19.2238
-36.2793
-33.3265
-30.4296
-41.312
-5.82894
6.04598
-14.192
-9.68327
-18.3658
-13.4973
-10.1278
-8.07833
-11.8186
-13.7545
-54.6714
-42.2363
-39.8485
61.1772
-17.6021
-29.3491
-33.8135
-25.3546
-27.3796
58.5746
54.0356
54.4475
58.5876
42.172
40.3654
-31.9384
3.59503
52.2178
-30.387
-19.9922
-40.5292
-55.2432
-18.1187
-5.25912
-25.4291
-17.2564
-47.4724
-37.0172
-51.25
-36.4565
-53.8811
-40.7827
-66.2195
7.10694
26.2525
12.1543
-70.1095
11.3918
19.1533
-0.536723
-15.3819
-57.6893
-28.3492
-34.8876
-34.7156
-67.6951
-24.8475
-44.4351
-19.4975
-59.8825
5.57516
-58.4602
-45.4704
-187.074
-132.234
-25.9835
-6.64543
-85.3294
-20.7891
-24.0047
6.93801
5.73305
54.6001
49.5074
34.5173
-57.9794
-83.4038
-44.6922
-18.8016
-8.55208
-19.9112
-11.7254
-28.9
-7.99205
-30.2802
-47.3588
-39.2254
2.39632
-55.7988
-55.2433
-47.4724
-28.1194
-41.6546
-74.5719
-68.9636
-61.3413
-24.253
-43.2208
-12.6581
-23.857
-35.5548
-14.9002
-11.4606
-5.44829
-7.38284
-8.80413
-19.2663
29.9052
43.3742
49.8862
-22.5232
-13.5321
12.6731
34.7079
44.0549
16.592
42.738
2.72899
-44.2893
-36.7549
-0.12176
3.51359
-18.8359
34.2004
-27.8551
5.75503
-14.0812
-6.06356
-16.4121
-64.2648
-102.052
24.5191
50.2854
45.4529
-7.50238
26.8696
39.7684
-29.1454
-28.7394
-25.1138
-73.0789
-88.1877
31.981
18.2426
31.6229
19.7121
-6.43151
-8.55702
31.2209