/*--------------------------------*- C++ -*----------------------------------*\
| =========                 |                                                 |
| \\      /  F ield         | OpenFOAM: The Open Source CFD Toolbox           |
|  \\    /   O peration     | Version:  2506                                  |
|   \\  /    A nd           | Website:  www.openfoam.com                      |
|    \\/     M anipulation  |                                                 |
\*---------------------------------------------------------------------------*/
FoamFile
{
    version     2.0;
    format      ascii;
    arch        "LSB;label=32;scalar=64";
    class       surfaceScalarField;
    location    "0.0563527";
    object      phi;
}
// * * * * * * * * * * * * * * * * * * * * * * * * * * * * * * * * * * * * * //

dimensions      [0 3 -1 0 0 0 0];

oriented        oriented;

internalField   nonuniform List<scalar> 
7321
(
0.00118373
0.000158363
-0.0020343
0.000692205
-0.0577729
-0.0343528
0.0794206
-0.0518514
-0.0275692
-0.0135072
-0.00824117
0.0321678
-0.0104194
0.00879152
-0.00685823
-0.00156148
0.00136903
0.000686787
-0.0007029
-0.00135292
-0.000616358
0.00198539
-0.000374103
0.00622987
0.00386976
-0.0348658
0.0105395
0.0117936
0.0172194
-0.0118303
-0.0171827
-0.00124214
-0.00152483
0.00392723
-0.00133287
-0.000588595
0.00261076
-0.000689299
0.00420619
0.00386078
0.000133661
-0.00820064
0.00198528
-0.0134862
-0.00179023
0.0132912
0.00106375
0.0315628
-0.0253204
-0.00730613
0.000193133
0.00229418
-0.000629741
0.00124486
-0.00110583
5.41021e-05
-0.000787646
0.00074967
-5.99083e-05
9.78851e-05
-0.000685398
-0.000102248
-0.00126518
-0.00534012
0.0254422
-0.0188369
-0.000979373
0.000614027
0.000287658
7.76886e-05
-0.00762296
-0.00231619
-0.016039
0.0259781
-0.00626799
0.0230973
0.000392823
-0.00102841
0.000960688
-0.000325104
-0.0451914
0.00801599
-6.7236e-05
-0.00111299
-0.00170456
0.00288478
0.00306821
-0.00181774
0.00213199
-0.00338246
-0.00983743
0.0122123
-0.00944332
0.000553365
-0.000364028
-0.000189337
0.0044418
-0.00289067
0.00045691
-0.00200804
0.000349149
0.000148281
-0.000500685
3.25519e-06
-0.0189533
-0.032314
0.0632798
-0.0120126
0.0283431
-0.00207615
-0.00615094
0.0210254
-0.00308088
0.00124197
0.00439947
-0.012553
0.00691157
-0.002392
-0.00295585
0.00135424
0.00399361
0.00255013
0.00790366
-0.00367156
-0.00678223
-0.0224924
-0.0037738
-0.012022
0.0382882
-0.00116226
0.000766553
-8.81938e-05
0.000483903
-0.00618204
0.0361597
-0.0130427
-0.00165067
-0.00645126
0.0211447
0.0111992
-0.0128543
0.000771744
0.00135713
0.00715861
0.000372054
0.0228901
-0.00763302
-0.00521847
-0.0100386
-0.0296478
0.0226631
-0.0234566
0.0304414
0.00101069
0.00240263
-0.0030018
-0.000411525
0.0244246
-0.0274569
0.000763076
-0.000945855
0.00208671
-0.000134904
-0.00100595
-0.00193998
0.000736375
0.000526325
0.000677279
0.000116159
-0.00994612
0.012508
-0.00267803
-0.00183473
0.00220589
-0.000119243
-0.000251917
0.00303287
-0.00059002
-0.0011884
-0.00125445
-0.000473197
0.00220998
0.000952788
-0.00268958
-0.000518062
-0.00458408
0.00485882
0.00024332
0.0111896
-0.0119991
-0.048629
0.0494385
-0.0068069
0.00704752
-0.00435504
0.00411441
0.0556333
-0.0433799
0.0162496
-0.00884468
-0.00950382
0.00209887
-0.0178928
0.011354
0.0126655
-0.00612664
0.0176457
0.0109396
-0.0147191
-0.0138662
-0.00175122
-0.00674024
0.00224712
0.00624433
-0.000551566
0.0310671
0.013777
-0.0145829
0.00373747
-0.00293153
-0.013456
0.0131079
0.00651451
-0.00616632
0.00906058
0.00248688
-0.0038069
-0.0377431
-0.0217074
0.0632575
0.00710227
0.00731446
-0.0131656
-0.00125117
-0.000900976
0.00123233
0.000385304
-0.000716652
3.98338e-05
0.000842207
0.00620907
-0.00709111
0.00068735
0.000300917
-0.00114353
0.00015526
0.00926063
-0.00606445
-0.0035971
0.000400925
0.00260525
0.00244291
-0.00047176
0.00282475
0.000564995
-0.00204099
0.000587511
-0.000600151
0.00205363
0.000423003
-0.000757663
0.00033466
6.15155e-05
0.000361488
-0.00048847
-0.00011927
0.000669255
0.00156996
-0.0026747
-0.00154128
0.00264602
-0.000916159
0.00204149
0.000444629
-0.0670456
0.0690212
-0.0305741
0.0285985
-0.000402452
0.000125247
-0.000216222
0.000493427
0.000754241
-0.000105173
-0.000649068
-0.00346403
-0.000231433
0.00102077
0.00279179
0.00280184
-0.00863304
0.00303941
-0.000654731
0.0148959
0.0559067
-0.0701479
0.00168208
-0.000275521
-0.000618193
-0.000788362
0.000756172
-0.00056762
-0.000188552
0.00076571
0.000288185
-0.000297723
-0.0026198
0.000177686
0.000825106
0.00161701
0.0146331
0.00157738
0.000986865
-0.0171973
-0.0127767
0.0130082
-0.00990345
0.00967193
-0.0269939
0.0264805
0.0388687
-0.0383552
0.00158802
-0.000634031
0.00140842
-0.00236242
0.00292395
0.00149286
-0.00398774
-0.000429078
-0.0588046
0.0413456
0.0361182
0.00653479
-0.042653
0.000872815
-0.000254312
4.93294e-05
-0.000667832
-0.0975709
0.0136468
-8.77182e-06
-0.00117433
-0.000525579
0.00170868
-0.00209303
0.000190707
-0.00122704
0.00312936
0.0107771
-0.0119986
0.0109894
-0.00976792
-0.01305
0.00441193
0.0153356
-0.00669753
0.04743
-0.0595987
-0.00961618
0.0111993
0.00584785
0.0063909
-0.0218549
-0.000190502
0.000139267
0.000278542
0.0127845
-0.00115579
-0.00716108
-0.00446758
-0.00854492
-0.00165788
0.00923746
0.000965334
0.0114868
-0.0331183
0.00447388
-0.00672052
0.00408546
0.00430621
-0.00167115
4.13859e-05
-6.39623e-05
-0.000115354
0.000137931
6.17436e-06
-0.000264667
0.000299879
-2.03915e-05
-4.35708e-05
-1.6983e-05
0.000198836
-0.000202244
0.000255861
-0.00026667
-0.00021068
0.000274096
-0.000325437
0.00026202
-5.82273e-05
-0.000152452
-0.000189202
-0.000358998
-0.000148132
0.000696331
0.0031725
-0.000355786
8.03248e-06
0.00437309
-0.000234044
-0.00177597
-0.00236308
0.00598637
-0.0192971
0.00311812
0.0101926
-0.00257617
0.00164882
-0.00253668
-0.0200221
0.00939752
-0.00178482
0.0124093
0.00114534
-0.000704422
-0.000440913
0.00516544
-0.00817996
0.0121396
-0.00912507
-0.00074125
-0.000747926
0.00148918
0.0149535
-0.00998773
0.00427681
-0.00924263
0.000985867
0.000110026
-0.00300355
0.00190766
-6.0622e-05
-0.00124053
0.00149875
-0.000197599
0.00211493
0.000820713
-0.000800103
0.00947955
0.0114832
-0.00435625
0.00505067
0.000145717
0.00404416
-0.00924055
0.00905263
-0.0136751
0.00294092
0.00168151
-0.00376566
-0.0104457
0.00512593
0.00908543
0.000651987
-0.000102669
-0.000549318
1.05173e-05
0.000775929
-0.000134459
0.00040933
0.00034034
0.000394411
-0.000349776
-0.000104544
0.000543495
-0.000134165
-0.0102776
0.0109492
-0.00172605
0.00105447
-0.000348404
-0.000792639
0.000555904
0.000585138
0.000259193
0.000536573
-0.000252271
-0.000803707
-0.00244792
0.00297866
0.000272967
-0.00111491
0.000481836
0.000530401
-0.00360525
0.0024193
-0.00424429
0.00198835
-0.007371
1.12833e-06
0.00538152
-0.00088261
0.00130665
-0.000108661
-0.000315383
0.000106135
-0.00099829
-0.000222752
-0.000743364
-0.00315666
0.00217641
0.00172361
-0.00466986
-0.0128181
0.0265348
-0.00904691
-0.0087033
0.00731145
0.00962215
-0.0082303
-0.00287204
0.000393727
0.00247832
-0.0227876
0.0144415
0.0129531
-0.0046071
0.00053093
-0.000621323
0.00783175
-0.00852435
-0.00732045
0.00801306
0.00150175
-0.00560137
0.00198453
0.00211509
0.000160465
6.63005e-05
-0.000162882
-6.38835e-05
-0.00517094
0.00167925
-0.000470089
0.00396178
0.00151384
0.00671803
-0.00162603
0.00325285
0.00422168
0.00145649
-0.00893101
-0.00464385
-0.0145909
0.0217849
-0.000837243
0.00108526
-0.000248013
-0.000958551
-0.000468789
0.000590097
-0.00119105
-0.000585578
-0.00300736
0.00478399
0.000105525
0.000298034
0.000623867
-0.000271823
-9.28502e-05
-0.000180142
1.79083e-05
0.000162234
-0.000740631
0.00126193
-0.000521301
4.80892e-05
6.21967e-05
-0.000110286
0.000311692
-0.000365788
0.000102185
-0.000809289
-0.00218605
0.00505437
-0.000570969
7.49322e-05
-0.000186042
0.000682078
-0.000444559
-0.00012641
0.000285009
-0.000169961
-0.000115049
-0.000447825
0.000305733
0.0003977
-0.000255608
-0.00171422
0.000845854
0.00195054
-0.00108217
-0.00373166
-0.00204047
0.00458919
0.00118294
0.000551093
-0.0103155
-0.0142464
0.0240108
-0.000381906
-0.000995531
0.000599842
0.000777595
0.00142394
-0.000708803
0.00135203
-0.00206716
-0.00627986
-0.0641179
0.0191105
0.0512872
-0.00421612
0.000138417
0.000263931
0.00381377
-0.00263066
0.000395391
-0.00101959
0.00325486
0.000594219
-0.00134676
-0.00346357
0.0101221
-0.0110156
-0.00857202
0.00946549
-0.0135657
-0.0152637
-0.00101047
0.0298399
-0.00117866
-0.0033197
0.00240533
-0.00166216
-0.00337845
0.00489541
0.000145201
0.00764976
-0.00647083
-0.00255792
0.00137899
-0.00313689
-0.000635535
-0.0320747
0.019902
0.0186942
-0.00652137
-0.00292732
-0.000323517
-0.000407573
0.00365841
0.000403789
-0.000411059
0.000891715
-0.000884445
-0.000212927
0.00118674
-0.000963294
0.00660088
0.00857221
-0.00764704
-0.00752606
-0.00401339
-0.00726609
0.0164449
0.00272262
0.00422899
-0.000350721
0.0117276
0.00102639
0.00397152
-0.00334885
0.000666321
0.00467088
0.00200914
0.00171432
0.000857638
-0.0045811
0.00118569
0.000612942
-0.00128019
-0.000518447
0.00502774
-0.00325065
0.00327358
-0.000129774
-0.00031805
-0.000656722
-0.00870701
0.00462585
0.00473789
-8.6397e-05
0.00011499
-2.85931e-05
-0.00787208
0.00498736
-0.00392902
0.00681373
0.00583635
-0.00572442
0.00462014
0.00212981
0.00682741
-0.00895722
-0.00242974
-0.00172278
0.00629554
-0.00214301
0.0039196
-0.00706613
0.00139531
0.00922228
0.00331406
-0.0122099
-0.000326424
0.000280225
0.000184481
-0.000464706
-0.0025957
0.00594277
0.00402087
-0.00736794
0.000524733
-0.000149279
-0.000375453
0.000776207
0.00146893
0.000823073
0.0013214
0.000594197
-0.00306923
0.00115363
0.00268476
0.00538742
-0.00436859
-0.00370359
-0.00571551
-0.000192624
0.0029843
0.00292383
-0.000788457
-0.000523166
-7.1452e-05
0.00138307
0.0022479
0.000410824
0.000837731
-0.000840526
-0.001467
0.00220154
-0.000888784
0.000154243
-9.94491e-05
-0.000592502
0.0018316
-0.00113965
-0.00187272
-0.00032983
0.00991723
-0.00771468
-0.0119905
-0.00938525
0.00510554
0.0162702
0.00252384
6.79399e-05
0.00252396
0.00261671
-0.000946278
-0.00419439
0.000133645
0.000501881
0.000548205
0.00213763
-0.00114145
0.000779582
-0.00177576
0.000139726
0.00935966
-0.00314431
-0.00635508
0.00252413
-0.00215871
-0.000328224
-3.71948e-05
0.00843258
-0.00208993
-0.00700592
0.000663273
0.00450399
-0.00222856
0.00022052
-0.00249595
0.00252451
-0.00396105
-0.00237491
0.00381145
-0.0563684
0.0307341
0.0130202
0.0126142
-0.00243419
-0.00137915
0.00238411
0.00142923
-0.000106851
7.45382e-05
3.2313e-05
0.0135186
-0.00451646
-0.00535333
-0.00364881
0.0015977
-0.00314178
0.0021383
-0.00393601
-0.0106519
0.00635
0.0082379
-0.000513954
0.000700739
-0.00155637
0.000723769
-0.00199236
0.00282496
-0.00318174
-0.00035283
0.01089
-0.00735546
0.00460653
0.00277958
-0.00340945
-0.00397666
-0.00160113
0.00941652
-0.00232137
-0.00549402
0.000140007
-0.00733695
0.00479493
0.00240201
0.00279644
0.00967367
0.000130528
-0.0126006
0.000516191
-0.00204901
0.0056863
-0.00415349
-0.000754289
-0.0036986
0.00126621
0.00318668
0.000169995
0.00202381
0.00259436
0.00940102
-0.0064233
0.00597688
-0.00895461
-0.00146806
0.00513398
-0.00130105
-0.00236487
0.009523
0.0148203
0.00489413
-0.0172001
-0.00558684
0.000244566
0.000673036
-0.000400209
-0.000517393
0.00252488
-0.00200229
-0.00154775
0.00102515
0.00202364
-0.00169429
-0.000329351
0.0114594
0.0127092
-0.0136658
0.000407842
-0.00197334
0.00193252
-0.000367025
0.00541713
-0.00143051
-0.00459206
0.000605445
0.000721801
-0.000434441
-0.000287359
0.000164348
-0.00882009
0.00358123
0.00507451
0.00277324
-0.00128735
-0.00130284
-0.000183054
-0.00724222
0.0100253
0.0320167
-0.0347998
0.00108394
-0.000246043
1.29815e-05
-0.000850877
-0.00161362
-0.0141325
0.0229
-0.00715387
0.00659574
0.00320159
-0.00828523
-0.00151209
0.00104178
0.0011956
0.000507219
0.000304532
-0.000430706
-0.000381045
0.00102337
-0.00263085
0.00238369
-0.0108644
0.00408185
0.0171973
-0.0104147
-0.00742475
0.00852906
0.000293048
0.00999249
0.00497385
-0.00617482
-7.07747e-05
0.00115487
0.00334107
-0.00442516
-0.00484234
-4.58898e-05
-0.000439413
0.00532764
0.0163694
0.0057753
-0.0128841
0.00287207
-0.00224741
-0.00452074
0.00389608
-0.000247864
0.00599375
-0.00252568
0.000400399
0.000568908
-0.00128444
-0.00213253
-0.00034804
0.00100875
0.00198622
-0.00264693
-0.000731638
0.00253409
-0.00147242
-0.000330035
-0.00415824
-0.000424975
0.00227463
0.00230859
0.00176909
0.0025213
0.00399019
-0.00828057
0.0123039
-0.019326
-0.013905
0.0209271
-0.00515775
0.00577921
-0.000301634
-0.00031983
0.0234584
0.0037321
-0.0175381
-0.00965248
-0.000577548
0.0011258
0.000163955
-0.000712206
-0.00701744
0.013516
-0.00257664
-0.00392189
-0.00159451
-0.00361827
0.00572897
-0.000211023
0.000837416
-0.000626393
-0.00312698
-0.0034162
0.00906769
-0.000846199
0.000631038
-0.00232881
0.00254397
-0.00272965
0.0140027
-0.00375642
6.10034e-05
0.00257286
0.00112256
0.00322056
0.00102489
-0.00431623
-0.000735476
0.000919338
-0.00149204
0.00130817
0.000200733
0.000148416
-0.00237612
0.000206619
0.00216951
0.00445918
-0.00903363
0.000808788
0.000603143
-0.000748035
0.00029876
-0.000153868
0.00279534
-0.00391793
-0.00386344
0.00498603
0.00217647
-0.00567908
0.000210246
0.00329236
-0.000668924
-0.000597889
0.00116849
9.83191e-05
-0.000160434
0.000451007
0.00288193
0.00116619
0.00428985
-0.00256723
-0.0101228
0.0084002
0.00164855
-0.0002636
-0.00200209
0.00061714
0.020413
-0.00314955
0.000801958
-0.00133782
0.00170043
-0.000594598
-0.000861266
-0.00125448
0.00179071
-0.00172529
0.00118905
0.000906305
9.99015e-06
-0.000423401
-0.000492895
0.000198971
-0.000187688
-0.000201785
0.0016973
0.000755661
-0.00390585
0.00145288
-0.00106574
0.00242954
0.000447402
-0.0018112
0.00987499
-0.00690306
-0.00214997
-0.000821972
-0.00130997
0.00269651
-1.44071e-05
0.000119122
-0.000239167
0.000650102
-0.000864065
-3.12768e-05
0.000895342
0.0148914
0.00581667
-0.013432
-0.00727608
0.000517637
0.0020056
0.00081735
-0.00164178
-0.00118118
-0.00485155
0.00402872
0.00433815
-0.00351532
0.00294813
-0.0151778
0.0289285
-0.0166989
0.00311675
-0.00103466
0.00229101
0.0242014
-0.0268688
0.0082091
-0.00554169
-0.00242107
0.00207168
-0.00131277
-0.00023544
0.000584686
-4.3514e-05
0.0126566
-0.0550647
0.0155723
0.000342113
-0.00289561
-0.000550612
0.00310411
-0.0018563
0.0157201
-0.00491909
-0.00894474
0.0264103
-0.00630304
-0.0087533
-0.00173111
0.00226692
-0.000390088
-0.000310327
-0.00042324
0.000808499
-0.000550643
-0.00211556
-0.00249155
0.00323341
0.00297209
-0.00804101
-0.00369746
-0.0032984
0.0150369
-0.00197707
0.0571001
-0.0495364
-0.0328104
0.0252467
0.0147796
-0.0108501
-0.0216637
0.0177343
0.0002161
-0.00100224
0.000786141
0.00349172
-0.00146479
0.00401816
-0.00604509
-0.00511463
0.00644683
-0.000806524
-0.000961246
0.000918216
0.000849554
0.00672513
8.45229e-05
0.000642905
0.0011116
-0.00183903
0.00173037
0.000733933
-0.00209424
-0.000370063
0.00045497
-0.00043414
-0.000331157
0.000814074
-0.00157217
0.00328206
0.00359759
-0.00876783
0.00525476
0.00121701
-0.000821064
-0.000395946
-0.00577609
0.00750425
-1.29108e-05
-0.00171525
0.0299765
-0.0230332
-0.0126001
0.00565672
0.0164884
-0.0601729
-0.0484241
-0.0137619
0.0213366
-0.00983579
0.00226107
-0.00236601
0.0039177
-0.00210782
0.00055614
-0.00323069
0.000952972
0.00233873
0.00115698
-0.000506172
0.000458469
-0.00110927
0.0764935
-0.0425826
-0.0133873
-0.0205236
-0.00407859
0.00259913
-0.00618936
0.00766881
1.09922e-05
0.00225942
0.000762457
-0.000863773
-0.000160864
0.00400551
-0.00298087
0.00381924
-0.00192463
0.00830249
-0.00679184
0.00667544
0.00514414
-0.000903171
0.00180948
0.00181072
-0.00995085
-0.000976227
-0.00221249
-0.00121648
0.00440519
0.00928565
-0.00398616
-0.00701371
-0.00836293
-0.00151167
0.00987461
-0.019678
0.011468
0.00253545
0.00567456
0.00329374
0.00350163
-0.0126852
0.00588981
0.00371795
0.00905779
-0.00294661
-0.00982913
-0.00500694
-0.0076868
0.0108374
0.00386172
-0.00963945
0.014357
-0.00857927
0.00119361
-0.001489
-0.000329821
-0.0011085
0.000850484
4.37418e-05
-0.000206875
0.00436545
-0.0133564
0.0091306
-0.000139664
-0.046604
-0.0611014
0.0281625
0.0186651
-0.0051619
0.00649692
0.00195873
-0.00355034
-0.00794804
0.013588
-0.00208961
-0.00452764
0.000896354
-0.00121106
0.00119013
-0.0039378
-0.001696
-0.00310331
0.00305392
0.00174539
0.00114677
-0.000538257
-0.00162333
0.00101482
0.0022656
-0.00115914
-0.00110647
-0.00143917
-0.00531892
0.00539836
0.00135973
-0.00250056
-0.0048199
0.00081996
0.00650051
-0.00085329
0.000378872
0.000457882
1.65356e-05
0.0018702
0.00651779
-0.00514129
-0.0032467
0.00221536
-0.000653148
-0.00139786
0.00570626
-0.00275303
-0.00141107
-0.00154216
0.0209941
-0.0299218
0.0207602
-0.0118325
0.00331365
-0.00138113
0.00184885
0.00730795
-0.0155595
0.03171
0.00359479
0.00396032
0.00582916
-0.00223437
0.000227938
0.000319929
0.0114013
0.00252664
-0.00995284
-0.00397514
0.0104227
0.000963611
-0.00742639
-0.00287901
0.0162586
-0.00595323
-0.0106388
-0.00884193
0.00131969
0.018161
0.028045
-0.0026042
-0.00779513
-0.00221962
-0.00137978
0.00292886
0.000670537
0.00019398
-7.08465e-05
2.53534e-06
0.00081765
0.00113966
-0.00195985
-0.000769234
0.00174685
-0.00118855
0.000210939
-0.00108571
0.00322025
-0.0047652
0.000504806
-0.000296124
-0.00763343
-0.00364432
0.0247034
-0.0210591
0.0118534
0.00153233
-0.00398816
-0.00326369
-0.00276849
-0.00303084
0.00906301
-0.00667948
-0.00901511
-0.000259286
0.0159539
-0.00244766
0.00315498
-0.00118422
0.000476899
-0.0245761
-0.00115794
-0.0195471
0.0452811
0.00194217
-0.00204334
0.0121745
-0.0120733
-0.0163831
-0.00546306
0.0252301
-0.00338388
-0.0234114
0.0219304
-0.00316291
-0.00498087
-3.60674e-05
0.00421323
0.00597113
-0.00685483
-0.0104538
0.0113375
0.0107807
-0.00872232
-0.00326836
0.0114151
-0.00677229
0.00987786
-0.0100965
-0.00423394
0.0044526
-0.0039218
0.0108369
-0.00309297
0.00318662
-0.0164347
-0.00302146
-0.00156944
0.00252103
-0.000130875
-0.0182353
0.0331746
-0.0143882
-0.01159
-0.0153961
0.0220903
0.0048957
0.00091929
-0.000330529
-0.000588762
-0.000474904
-0.000537812
0.00101272
0.00355888
-0.0038388
-0.00109239
0.00137231
-0.0007709
0.000688667
0.000627041
-0.000544809
-0.000849612
-0.000340703
0.0018771
0.014045
-0.0119831
-0.0019269
-0.000135032
-0.0181365
0.00206546
-0.00414986
0.0202209
-0.0158863
-0.0037298
0.00878349
0.0108326
0.00110686
-0.000674673
0.0082814
-0.00871359
0.000370605
-0.0145358
0.000678946
0.00210802
-0.00595612
-0.0029588
0.0054631
-0.0153216
0.00544457
-0.000523756
-0.00621328
0.00129246
0.0618459
-0.0101927
-0.0574519
0.00579874
-0.011516
0.00550917
0.00371173
0.00229512
0.00125414
0.0162795
-0.0251247
0.00759112
-0.00797255
-0.0034733
0.00643891
0.000868762
0.0111267
0.00106963
-0.0130651
0.00072902
-0.00600387
-0.00527023
0.0142171
-0.00294302
-0.0043486
0.000317844
0.000683236
0.00334752
0.0021212
0.0089161
-0.0120974
0.00106006
0.00462406
-0.0045785
0.0025273
0.00105248
-0.00784226
-0.00152283
0.0083126
0.000579453
0.00243403
-0.00169209
0.014241
0.000737248
-0.012002
-0.00160549
-0.000387423
0.000484518
0.00150839
-0.000319115
-0.00267401
0.00054546
-0.0563722
0.013123
0.0387675
0.0044816
0.00110783
-0.000683547
-0.000424282
0.00101567
4.2439e-05
0.0424189
0.0136759
-0.0623747
-0.000120091
-0.00266467
-0.000946895
-0.00223827
0.00123618
0.0505603
-0.0658045
0.0152442
7.44659e-05
-0.000331982
0.000257516
-0.0463014
-0.0548068
0.0501998
0.0509084
-0.0290008
0.0382407
0.0287373
-0.0379772
8.03113e-05
-0.00816343
0.0143528
0.0003296
-0.00107191
0.00230984
-0.00156753
-0.0015398
0.00395434
-0.00248177
-0.0326335
0.0207958
-0.0256843
0.037522
0.00598801
0.00298328
-0.00531008
-0.000233638
0.00020742
2.62183e-05
0.00118991
0.000837268
-0.000777064
-0.00125011
0.00146115
0.000192301
-0.00238893
0.00798788
0.00373971
0.00272154
0.00183331
-0.0011273
-0.000396625
-0.00030939
-0.00299941
0.000906995
0.00209241
-0.00130544
0.000868322
1.34474e-05
0.000423673
-0.0181379
0.00479584
0.0182073
-0.00486519
0.000229282
0.0012184
-0.00377659
-0.028994
0.0455447
-0.0127741
0.00275605
-0.0107286
-0.00144088
-1.50033e-05
0.00220633
-0.000750448
-0.00369434
0.00321449
0.000642217
-0.000162369
0.000147793
0.00011817
-0.000265963
0.000846157
-0.00181209
0.000246515
0.000719415
-0.00387377
-0.00175141
0.0102776
-0.00465244
0.000586782
-7.44717e-05
-0.00051231
-0.00216043
0.00147978
0.000680646
0.00673356
-0.0045604
0.00415528
0.000675021
-0.000484313
0.00160126
0.00243933
-0.000447741
-0.00359285
-0.0839655
-0.00129671
0.0852622
0.00108489
0.000453728
-0.00137815
-0.0113434
-0.0469451
0.011353
0.0469355
-0.0587726
-0.00568871
-0.0195042
0.0144258
0.00617858
0.0210065
-0.0416108
-0.0407682
-0.044655
0.011289
-0.00380058
-0.00343775
-0.00405067
0.0547228
-0.00551829
-0.00401195
-0.0321524
0.0187209
0.0174435
-0.0112437
-0.0321756
0.035658
0.00693375
0.0057275
-0.00137225
-0.0661634
0.040555
-0.0151598
0.020648
-0.00571776
-0.000869202
3.82466e-05
0.00654872
-0.0010769
0.00127025
-0.00472099
-0.0610975
0.0649718
-0.00387432
-0.0205523
0.0138537
0.0032705
0.00342812
0.103869
0.023221
-0.0591956
-0.0678947
-0.046371
-0.00106837
-0.00167607
0.0156611
-0.00119341
-0.00251701
0.000686626
0.00302379
0.0143702
-0.000183074
0.0406552
-0.0159262
-0.0226974
-0.00203161
-0.00198992
0.00326285
0.00368443
-0.00495737
-0.00159979
0.0056889
-0.0961537
-0.0559405
0.0909967
0.00417744
0.00177455
-0.00299167
-0.00296033
0.0066753
0.00375695
0.00829409
0.00964895
-0.00716433
-0.0159009
0.0134163
0.00295022
-0.0042824
0.00114457
0.000187608
0.00783987
-0.0110789
0.00283705
0.000401956
-0.00546104
0.00823044
-0.0209073
0.0132959
-0.0221543
0.0033974
0.0218775
0.0235963
-0.032178
-7.35358e-05
0.000103968
-0.00265024
0.00198474
-7.796e-05
-0.0027133
-0.00185257
-0.00161214
0.00315283
0.000311882
-0.02284
0.0101225
0.0241181
-0.0114007
-0.00798373
-0.0143012
0.000365698
0.0219193
0.00253489
0.000979604
-0.00105817
-0.00245632
-0.00179678
-0.0035773
0.00352151
-0.0042932
0.0165361
-0.016946
0.00470304
0.00299843
-0.00442336
0.0261798
-0.0151485
0.0188155
-0.0298468
-0.0251313
-0.0279319
0.0247757
0.0282875
0.00246968
0.00418373
-0.00340056
0.0256824
-0.0222137
-0.00515226
0.0149255
-0.00456668
-0.000638317
0.00117046
-0.0122897
-0.00178751
0.00620512
0.00730892
0.00402619
-0.00335082
-0.0103256
0.0112736
0.00892695
0.00205235
0.0116604
-0.0053635
-0.00834928
0.0159305
-0.00282309
-0.01822
0.00511263
0.00115658
-0.00169884
0.000264906
0.000277355
0.000364151
0.00723338
-0.000288609
-0.00071652
-4.19538e-05
0.000574259
0.000201671
-0.00011818
0.000250489
-0.000825625
0.000693316
-7.90612e-05
0.000682105
-0.00107795
-0.00335702
0.00325547
-0.000805146
0.000906693
-0.00627235
0.00170946
1.86252e-05
-0.000646404
-3.27018e-05
0.00817445
0.00169513
-0.00222565
-0.00764393
-0.000133567
0.000357951
0.000630022
-0.000854406
3.16458e-05
-0.00041589
0.000326016
0.00149848
0.000723635
-6.42297e-05
-0.00648335
-0.00172457
0.000402523
0.0078054
0.000617624
0.00479427
-0.00340125
-0.00201064
0.000243638
0.0164564
-0.00948985
-0.00721021
-0.0122683
-0.00380373
0.00612593
3.70216e-05
0.00167078
-0.0017078
-0.000606934
0.0141831
-0.0111751
-0.00240104
-0.00201127
7.93782e-05
0.0026319
-0.000700011
0.00085411
0.00132331
-0.00102084
0.000849219
-0.000585054
-0.0204749
-0.00171596
0.0206268
0.00156398
0.00566464
-0.00297003
-0.000750642
-0.00194397
-0.000881742
-0.00266491
0.000315957
0.000369123
0.00189567
0.000260085
0.00657641
0.0067309
0.000737698
-0.000679481
0.00526579
-0.00113437
-0.00345193
-0.00778173
-0.0184097
0.0126842
0.00130102
-0.00504588
0.00217624
0.00156862
0.00847781
0.00211943
-0.00143391
-0.00365092
0.00296541
-0.000349102
0.000285992
0.000337207
-0.0067899
0.00465082
0.00709845
0.000883461
-0.0101653
0.00199041
-0.00366101
0.00106616
-0.00353465
0.00119839
0.0012701
0.00196609
-0.00173278
-0.000810851
-0.000116031
-0.00150573
0.00162176
0.0113416
-0.0102221
0.00566538
-0.00678485
0.000575493
-0.00063838
6.28869e-05
-0.00240013
-0.00186861
-0.000582811
-0.00738072
0.0152672
-0.00108702
-0.00198731
0.00108067
-0.000286344
-0.00226133
1.13912e-05
0.000773039
-0.00105995
-0.00484726
0.00182245
-0.0013023
0.00432711
0.000951361
0.00100209
-0.00269682
0.00323184
0.000267677
-0.00433407
0.000834553
0.0314894
0.00235691
-0.0281328
-0.00571356
-0.00210288
0.00331392
0.000652565
-0.00231402
0.000827394
0.00195503
-0.000468402
-0.00123072
0.00146689
0.00115225
-0.000859726
0.00120399
0.00152593
0.000283369
-0.000381628
0.00118315
0.00039992
0.000737293
-0.000253195
-0.000884018
-0.00453047
-0.00661181
0.0131946
0.000267045
0.000200685
-0.00113665
-0.00805407
9.64194e-05
-0.00433203
-0.0039388
-0.0106898
0.0181906
-0.00260662
-0.00269159
0.00157119
-0.00121485
0.00233525
4.89125e-05
0.00066778
-0.00180243
0.00108574
-0.0128252
-0.0286205
-0.000465575
8.36692e-05
-0.00100852
0.00288331
-0.00211396
0.000663223
-0.000215191
0.00103075
-0.000874066
-0.000689843
0.000533163
7.92168e-05
0.000459249
0.000124757
-0.000673719
-0.00120593
-0.00113329
0.00301294
-0.00173719
0.000434029
0.00062944
-0.00375762
0.0105638
-0.00262877
-0.00120753
0.000397034
-0.000880161
0.00169065
-5.6863e-05
-7.50362e-05
0.000131899
0.000525317
0.000573849
0.000834167
-0.00193333
0.000385749
0.000706937
-0.000522456
0.000267569
0.000926467
-0.00017295
-0.00180349
0.00104998
-0.00650147
0.0155476
0.00981899
-0.0188652
0.0287837
0.0354747
-0.0273458
-0.0369126
-0.000144776
0.000142446
0.00027788
-0.00027555
-0.000227817
-0.000404113
0.000487154
0.000216912
0.000579389
0.0081113
-0.00270268
-0.0114646
0.0181919
0.00646514
-0.00409184
-0.00926463
-0.00789297
-0.00245811
-0.000478133
0.00190561
0.00103063
0.0110875
-0.00411322
0.0115965
-0.00318178
0.00622831
-0.00699231
0.00192728
-0.0130714
-0.00061061
-0.00154212
0.00476943
0.00150644
0.00035747
-0.000900046
-0.000963859
-0.00150817
0.0157132
-0.0169876
-0.00415373
0.0105026
-0.0088354
-0.0926967
-0.000278248
-0.0149641
-0.00691196
0.062747
-0.0128881
-0.0614794
0.0150092
0.00804008
-0.0591009
-0.00158877
0.0014584
-0.00822636
0.00939704
0.0298549
-0.0251929
-0.00592717
-0.00981702
0.00892473
0.00850256
-0.00761027
-0.000221614
-0.00848854
0.00609863
0.000278401
-0.000898326
-0.0038171
-0.00385726
0.0189878
0.00196311
-0.0127381
-0.0082128
0.00707418
-0.00184071
0.00055028
-0.00578375
-0.0082668
0.0349401
0.00354028
-0.00235752
-0.00155652
0.000373764
0.00273282
0.000505094
0.00954493
-0.0127828
-0.0087207
0.000968723
0.00988179
0.0114653
0.00173956
-0.00171055
-0.0024584
0.0012275
0.0102835
0.00900689
-0.00287491
-0.000344397
0.00114236
0.000708471
-0.000892253
0.000304819
-0.000265856
-0.000206788
-0.000595022
0.000469828
-0.00533066
-0.00117879
-0.00499651
0.011506
-0.000187692
0.00076635
0.000452088
0.02816
-0.06278
-0.0294979
-0.000457578
0.00112445
-0.000919765
6.9296e-05
-0.000273979
0.00239701
-0.00427912
0.000978411
-0.000954769
0.00267093
-0.00269457
0.000434206
0.000735915
-0.00151452
8.12265e-05
0.00269891
-6.88868e-06
0.0252335
-0.00885909
0.00722226
-0.0136185
0.0391945
-0.0135587
-0.0332587
0.0276614
-0.0252791
-0.00538999
0.00300766
0.0115992
0.002699
0.000861072
-0.00530694
0.0116579
0.00779098
-0.014142
-0.00496578
0.00256477
0.0276262
-0.00670153
-0.00965059
-0.011274
0.000231058
-0.00622411
0.00191447
-0.00337443
0.00920686
-0.0032333
0.0036927
-0.00160773
0.00194375
-0.00483617
0.0060858
0.000386137
0.00151013
-0.00399914
0.000366447
-0.00149412
0.00112767
-0.0167341
-0.00224023
0.00738438
0.00217682
-0.000915194
-0.0021257
-0.000565157
0.000931604
-0.000550909
0.00111
-0.00156518
0.000560908
0.00045336
0.000710889
-0.000764483
0.00109188
-0.00103828
-0.000695495
-0.00107834
0.00098847
0.00078536
0.000926147
-0.000618316
-0.00100333
-0.00103812
0.00193328
-0.00018427
0.0203635
-0.00461556
-0.030694
0.00678775
0.00302111
-0.00538284
-0.00442602
0.00867291
-0.000418786
-0.00146638
-0.00292267
0.00665814
0.00087105
-0.00669651
-0.00458653
0.00356639
0.00771666
-0.00205209
0.000232189
0.00175928
0.00221559
-0.00108615
-0.000315364
9.36542e-05
-3.84895e-05
-0.000312334
-0.000675573
8.53434e-06
-0.000500921
-5.00179e-05
-0.00230745
0.00285838
-0.000140338
-0.00318994
0.00282936
0.000479608
0.00171173
-0.00054279
-6.70815e-05
-0.00128804
-0.000168339
0.00183005
-0.00485197
0.020041
0.000980134
-0.00556304
0.0307299
-0.0141774
-0.0120789
0.00570735
0.00580635
0.000565166
0.00277137
-0.00211679
-0.0104084
-0.00165008
0.0130386
0.00632069
-0.000520561
0.00953546
-0.0159985
0.0195873
0.0235172
-0.027106
0.0105715
-0.0125054
-0.00660432
0.00853822
0.0106249
0.00482959
0.00305562
-0.0185101
0.019722
0.00360802
-0.0188034
-0.00452656
-0.0212336
0.0116763
0.0201821
-0.00883799
-0.0155584
0.00280799
0.0215884
-0.0044797
0.00500903
-0.0029638
0.00243447
-0.00170951
0.00487979
-0.00173004
-0.00144025
-0.00178881
-0.00255117
0.00589902
-0.00517104
0.00475872
-0.00352971
0.00378001
0.00106082
0.056615
-0.0576758
-0.00650481
0.0104696
-0.00310316
-0.000861631
-0.0163037
0.00170351
0.00445004
0.0101502
0.00924117
-0.0102451
0.000916931
-0.000910541
0.00200275
0.0584513
0.00802932
-0.059419
-0.00706168
-0.00105994
-0.0073829
-0.00032499
-0.000115689
-0.00347268
0.0022267
0.00136167
0.00485632
-0.0101484
0.00290011
0.0307506
0.0275523
-0.079035
0.0207321
0.00285171
-0.00133774
-0.000450573
-0.00106339
-0.00966206
0.00724265
0.00536032
0.00182111
0.000920685
-0.00382751
0.0354607
-0.0250932
0.00143358
0.00153473
-0.00325808
0.000289768
0.0016974
0.00121953
-0.0023045
-0.000612426
0.00359875
-0.000747044
-0.00751093
0.00262735
-0.000328752
0.000714603
-0.000385851
0.00185119
-0.000494591
0.000849292
0.000937311
0.00370819
0.00242868
-0.00678174
-0.016838
-0.00537965
0.00400936
0.0182082
0.00169131
-0.000120522
0.000419618
-0.00166676
8.05794e-05
-0.000151009
-0.00930244
-0.00167752
0.000100936
0.00119281
0.00038377
-0.0102966
-0.00263653
0.0154598
-0.0194765
0.00449802
0.0113272
0.00365129
-0.00565355
-0.0182293
-0.0037898
0.0118346
0.00564481
-0.00774433
-0.00973507
-0.000365972
-0.0106245
0.0147084
0.0153833
0.00751971
-0.000788942
0.00232703
-0.0078929
0.0116408
0.0283039
-0.00867532
-0.00330046
-0.00166343
0.0136392
0.000507634
0.00995403
-0.00262991
0.00127844
0.000647785
-0.000502292
0.000211117
0.00222312
-0.0011558