/*--------------------------------*- C++ -*----------------------------------*\
| =========                 |                                                 |
| \\      /  F ield         | OpenFOAM: The Open Source CFD Toolbox           |
|  \\    /   O peration     | Version:  2506                                  |
|   \\  /    A nd           | Website:  www.openfoam.com                      |
|    \\/     M anipulation  |                                                 |
\*---------------------------------------------------------------------------*/
FoamFile
{
    version     2.0;
    format      ascii;
    arch        "LSB;label=32;scalar=64";
    class       volVectorField;
    location    "0.0563527";
    object      U;
}
// * * * * * * * * * * * * * * * * * * * * * * * * * * * * * * * * * * * * * //

dimensions      [0 1 -1 0 0 0 0];

internalField   nonuniform List<vector> 
3918
(
(-1.75289 -2.17252 -0.349925)
(9.82184 -0.333068 -1.12093)
(12.371 0.151476 0.236756)
(12.0102 0.117793 1.00684)
(10.9155 0.418706 -1.65425)
(2.77162 0.986461 -7.5878)
(2.60124 0.442328 -10.9189)
(9.62176 0.289073 2.03003)
(10.5302 -0.226366 -1.0444)
(6.58452 -0.96508 1.93508)
(8.20946 0.276817 -4.16166)
(-1.11029 -0.995228 2.36664)
(-0.935378 -2.51229 0.418871)
(13.1832 0.43687 -0.090845)
(11.9541 -0.0829137 0.764829)
(6.71328 -0.14282 -5.77457)
(5.28657 0.232739 -6.43457)
(-0.158751 -1.91703 0.535566)
(-0.118564 -2.05145 0.423071)
(5.44093 -0.250524 1.1175)
(1.51426 0.619072 -3.62061)
(10.9531 -0.0160789 1.23421)
(10.8022 0.403163 -0.211035)
(-0.253055 -1.07081 1.85182)
(11.0072 0.648946 0.357267)
(-2.18048 0.555306 2.33414)
(7.6806 0.534224 -2.69011)
(12.1033 0.316397 0.234728)
(-0.161017 -1.22022 1.13225)
(-1.48462 0.593265 1.24195)
(-0.626544 -1.59882 0.317129)
(12.0005 0.259308 0.778934)
(12.0021 0.0283488 -0.0461021)
(5.44901 -1.55312 1.82602)
(10.3989 -0.266654 1.7147)
(-3.98871 -3.12294 1.40381)
(10.4556 -0.0878537 0.895716)
(12.3673 0.408735 1.50119)
(3.14302 0.972267 -3.79524)
(11.996 0.559193 0.0487962)
(11.4148 -0.128069 3.29599)
(11.6928 0.401134 -0.068086)
(7.75816 0.308871 3.41891)
(11.8197 -0.149992 2.15572)
(11.0621 -0.139885 0.617289)
(9.1901 0.424664 -5.31455)
(10.6244 0.687651 1.8343)
(3.88695 0.905938 -3.32324)
(-1.65902 -2.21513 1.08172)
(12.8081 0.525655 -0.24543)
(5.82788 0.680512 -4.75812)
(0.406442 0.130092 2.05445)
(11.9771 0.333495 -3.54435)
(-2.29565 0.222145 1.69269)
(11.9164 0.0373085 0.152945)
(6.76671 -0.018061 0.895823)
(11.9172 -0.0634432 0.470752)
(7.88822 1.36408 0.131733)
(10.9334 0.603295 2.67375)
(6.95342 -0.00938032 2.01393)
(9.42753 0.498413 -3.28895)
(12.0124 0.16674 -0.0359739)
(10.3327 0.0231108 2.04006)
(11.0357 -0.0180772 2.61609)
(8.22139 1.77403 4.77709)
(11.9785 0.0194809 -0.432417)
(7.95514 -0.174293 2.6251)
(-1.54305 0.330924 0.579935)
(8.10309 -0.0517307 1.49899)
(-2.04832 -0.148996 0.479163)
(9.02936 0.495419 3.56788)
(12.6824 0.410022 -2.93785)
(12.6948 0.876142 -2.08648)
(8.40422 0.211515 -0.612184)
(-1.58145 0.589867 -0.814514)
(-0.924338 0.889533 -0.468519)
(0.946162 0.12553 0.109824)
(-2.55823 0.265281 0.659415)
(-1.97809 -0.165223 1.60788)
(11.6192 -0.41313 1.06291)
(-1.34088 -0.156045 0.733578)
(0.97364 0.880907 -4.88106)
(0.467092 1.00176 2.40248)
(4.95774 -1.01469 2.65631)
(12.6612 -0.172503 -0.0763458)
(-0.319751 -0.161174 -1.90682)
(-0.176704 -2.31894 0.518674)
(-0.225205 -2.18777 0.475986)
(9.9975 -0.101757 -1.50471)
(12.1399 0.286338 -0.351981)
(8.23689 -0.133459 2.18392)
(11.9108 0.0653132 -0.903041)
(-2.2159 -0.0471611 2.58918)
(7.00076 0.743627 1.87988)
(11.1375 -0.0984957 -0.363574)
(10.2518 0.545279 0.199822)
(-0.217758 -1.09726 1.6401)
(10.7927 -0.108246 0.220182)
(-0.033994 -1.00744 1.96118)
(2.45767 1.10046 1.69674)
(12.315 0.182401 -0.108019)
(12.3361 0.24448 -0.0806862)
(12.8433 -0.342676 0.176754)
(12.2501 0.241056 -0.208729)
(12.3677 0.25562 -0.307905)
(-0.29519 0.378395 0.634315)
(11.3045 -0.0166384 1.6454)
(6.99551 0.293492 3.89077)
(9.61148 -0.0415939 1.1288)
(3.3705 1.14007 0.58874)
(0.00879243 0.117765 0.562266)
(-0.749701 -0.101917 0.9906)
(0.0879165 0.193921 0.153906)
(-0.453153 0.141747 0.567197)
(-0.929145 0.0961783 0.829503)
(-0.44142 -0.380619 0.525205)
(-0.295264 -0.38403 0.35281)
(-0.552622 0.0112124 1.46343)
(12.3652 0.76248 -1.39579)
(9.0732 0.667609 0.362015)
(10.8135 0.00550443 1.52917)
(3.63896 -0.033478 2.69084)
(5.32839 0.765641 -0.843111)
(-1.27968 -2.23228 0.333964)
(10.7953 -0.0386297 1.43255)
(4.07398 1.41439 -0.00692802)
(3.49918 -0.802163 -0.725732)
(11.8746 0.871907 -4.02355)
(3.46076 0.863863 -0.537399)
(7.07945 0.895224 -2.50356)
(10.4327 0.463934 -0.977637)
(5.27437 -0.356343 2.66917)
(10.703 0.36717 4.16969)
(12.5594 0.325881 -0.903525)
(0.386692 1.74915 -1.24931)
(0.564725 1.82371 -1.90347)
(-0.169156 -1.74589 0.500644)
(-0.371758 -1.81075 0.152428)
(-0.167277 -1.76078 0.400477)
(9.7573 -0.208729 1.27915)
(2.34581 0.937543 -0.647904)
(-0.264157 -1.71016 0.432382)
(-1.64514 -2.22454 2.14007)
(1.94922 1.35868 -2.09787)
(9.09935 0.433876 0.880469)
(12.1034 0.300095 0.191333)
(1.30994 0.711394 -6.01051)
(2.36801 1.15596 -1.49727)
(11.8953 -0.0368252 -8.94829)
(8.84303 -0.241064 0.637853)
(12.6012 0.287026 -0.312435)
(-0.0691529 -1.33796 2.82752)
(6.06092 -0.918404 0.0961534)
(3.95055 -0.753112 0.187291)
(13.2626 0.227455 -0.30609)
(13.5877 0.77341 -1.27101)
(-3.00484 0.639636 2.70882)
(13.0656 1.80464 -6.36404)
(9.836 0.522721 -1.48227)
(11.4768 0.636182 -1.18464)
(10.8578 -0.048643 0.843604)
(-0.337824 -2.01553 0.58739)
(-0.689812 -1.99311 0.882695)
(1.64735 -1.41206 1.7592)
(-0.573341 -0.223491 0.61058)
(-0.473425 -1.57828 0.842803)
(-0.233593 0.205967 0.214322)
(-0.985197 -2.04921 0.0429297)
(-0.157637 -0.198498 0.302584)
(-0.352808 0.245117 0.635774)
(5.68101 1.20475 2.63478)
(-0.203003 -1.52159 0.550423)
(-0.145851 -1.63606 0.455443)
(-0.17504 -0.595061 0.331523)
(-0.178233 -1.07471 0.570409)
(-1.68919 -0.502896 1.49583)
(-3.13153 -1.47148 0.882851)
(11.0366 0.527683 3.40029)
(1.37927 1.02947 -3.94844)
(6.62939 0.77805 -3.40105)
(11.4216 0.562684 0.975855)
(-1.64609 -1.01701 0.234737)
(-1.38381 -1.3788 2.1595)
(-2.57343 -0.793527 0.56054)
(6.43853 -0.321894 0.0795925)
(11.4906 0.158949 2.20444)
(3.36046 1.2884 1.62203)
(12.8964 0.3913 -3.45753)
(-0.443038 -2.72997 2.80789)
(6.82891 0.965934 -0.66191)
(11.7546 0.0413938 0.440834)
(4.15173 -1.09776 1.4085)
(2.96658 0.850049 -2.05893)
(1.94193 1.48117 -1.17319)
(12.9643 0.678488 -1.87849)
(9.22651 0.263247 1.60151)
(13.1344 0.53339 -1.62623)
(10.3321 0.0857321 0.948717)
(8.37666 0.211664 0.960329)
(10.6266 0.767884 -2.7221)
(5.16175 -1.21121 -0.260281)
(2.9263 -0.508932 2.37647)
(-0.13127 -1.31878 0.431333)
(13.2554 0.244901 -1.73639)
(-0.386682 -0.127926 0.0956106)
(8.56939 -0.0330772 1.97578)
(8.58873 2.31974 2.81607)
(9.41832 -0.15587 7.21382)
(3.20083 -0.444849 1.63736)
(9.10734 0.338366 -2.94005)
(12.8987 0.247229 0.206851)
(-0.773159 -0.964264 0.295474)
(11.941 0.46543 -2.2935)
(-0.877876 -2.19595 0.244544)
(7.28341 0.419894 -3.34238)
(9.77535 -1.5424 -8.89361)
(12.8925 0.686382 -0.773069)
(13.5444 0.333569 -1.17317)
(-0.599657 -0.217593 2.28378)
(7.88648 -0.237186 -6.38008)
(3.04223 0.458371 -0.356069)
(1.42863 -1.14278 1.9172)
(-0.0827605 -1.53682 2.0509)
(7.72855 -0.506311 0.774971)
(9.52916 0.239085 1.37612)
(-0.80635 0.309042 2.35915)
(5.48027 0.948192 1.39939)
(-1.52803 -1.47227 -0.337631)
(11.4773 -1.00493 -4.43644)
(8.37218 0.0376903 2.38055)
(10.8151 0.822616 -0.125356)
(-3.45423 -2.95009 2.07575)
(9.1038 1.41 -5.8087)
(13.2758 0.277682 -1.29592)
(10.4584 -0.338346 0.406172)
(7.8075 0.565692 0.816228)
(-0.190752 -0.387116 0.140337)
(12.3772 0.417598 -1.23609)
(-2.41334 -1.28039 -0.900299)
(11.2029 0.323354 -0.853543)
(-1.11292 -2.30419 0.373109)
(13.3254 -0.0243109 -1.63076)
(12.7075 0.441834 -0.511354)
(12.6572 0.369215 -2.67023)
(11.4373 0.676282 -1.39238)
(6.49755 0.686061 0.265215)
(10.8712 0.594603 -1.32343)
(11.7844 0.900187 -3.305)
(10.0641 0.94536 -6.17673)
(7.16259 0.752625 -0.874803)
(13.3021 0.178246 -0.433686)
(3.17849 0.32691 1.668)
(9.82649 0.377763 1.67436)
(10.3697 0.519252 3.0704)
(-0.802846 -0.0448758 1.56867)
(5.45423 0.565901 -0.979994)
(6.85009 -0.631611 0.547723)
(11.0783 -0.00479869 3.37418)
(5.57285 -0.329967 0.105785)
(13.7276 0.558328 -2.26938)
(-0.270876 -0.213912 1.45061)
(4.50052 -0.503188 -0.657121)
(0.557306 -0.649967 1.94187)
(12.1928 -0.0027424 0.0503403)
(1.07043 0.557849 -5.62757)
(10.0868 0.290466 3.09373)
(6.59548 1.02282 3.36676)
(6.93104 0.768432 -3.02941)
(2.14894 1.38297 -2.49738)
(7.10468 0.507193 -3.0632)
(5.55711 -0.832672 -0.795092)
(13.3807 0.632378 -1.08427)
(11.2442 0.381374 -1.56324)
(12.4538 0.339205 -3.98745)
(12.6246 0.272168 -2.49876)
(9.88729 0.672646 3.56662)
(3.40324 -0.650139 2.27772)
(9.60231 0.0110503 0.483718)
(12.3013 0.348829 -2.42403)
(9.16041 0.524665 -3.03294)
(12.0354 0.350017 -4.26599)
(12.2315 0.227329 -6.23559)
(-2.58935 -2.63783 0.637967)
(10.1854 0.417978 -2.44078)
(11.9147 0.422973 1.89417)
(5.88672 0.29835 4.53814)
(11.41 0.0681311 1.15528)
(4.81115 0.455589 0.679711)
(10.843 0.596055 -0.90402)
(11.6386 0.821664 -2.28061)
(1.95345 -2.07451 -0.756955)
(13.2938 0.209543 -1.00033)
(10.1209 1.6514 -7.90463)
(10.1899 0.526003 -1.1861)
(13.6738 0.189809 -3.1933)
(12.5263 0.609553 -3.87041)
(5.1254 0.997816 -0.254937)
(-0.612854 -1.75319 0.305631)
(-0.0560566 -1.16749 2.4604)
(12.7542 0.241822 -1.33881)
(-0.956729 -0.748179 0.755289)
(10.935 0.45768 -3.78061)
(10.2843 0.315184 -2.82273)
(-0.883055 -0.744646 1.54469)
(12.0067 0.707439 -1.07348)
(0.0259327 -1.07556 1.94489)
(9.44313 -0.129377 4.24364)
(6.5026 0.657941 -3.28952)
(11.8912 0.14743 -0.273385)
(13.2768 0.40599 -3.73025)
(-1.09994 -0.108758 1.54635)
(4.91435 0.298658 -8.26501)
(-0.297981 -0.066093 1.65434)
(-0.508424 0.35571 0.342707)
(12.7307 1.00539 -4.45874)
(4.98405 1.42834 -8.20438)
(11.9483 0.369805 -1.37511)
(7.2716 0.471905 -2.87622)
(1.96311 0.471334 -0.0313606)
(5.91937 1.88323 -0.981746)
(11.8088 -0.180591 2.87883)
(-0.353398 -2.26938 0.806967)
(-1.51665 -0.0270752 -0.149864)
(1.78883 -0.0576776 1.99314)
(7.80334 -0.220528 -1.53272)
(7.39392 0.35055 0.548861)
(10.3176 -0.151688 1.11235)
(12.677 0.595716 -3.71346)
(-0.371455 -0.951289 0.992129)
(11.0358 0.210552 -1.46213)
(4.60579 1.25374 2.02346)
(10.9538 0.796815 4.19319)
(11.3367 0.310807 2.53865)
(-1.60782 -0.833794 0.84446)
(-0.44752 -1.41394 0.997388)
(6.14653 0.707481 2.80966)
(6.55181 0.0830548 0.667651)
(12.8055 -0.00647708 0.396412)
(5.33676 -0.305901 -0.152668)
(12.3605 0.537862 0.0567549)
(11.8282 0.205177 -0.238094)
(-1.99112 -0.229667 0.497238)
(8.23294 0.525692 0.727684)
(13.0595 0.286644 -1.34869)
(5.90849 0.676948 -2.7838)
(7.17847 0.517462 0.618145)
(0.559035 -0.673055 2.00638)
(7.54479 0.609622 -6.13559)
(-0.801532 -1.33474 0.965646)
(4.05944 0.910842 1.77679)
(7.42561 0.733524 1.13734)
(-0.313403 -0.107176 2.71878)
(7.30785 0.174525 2.96597)
(12.5212 0.255497 0.777613)
(10.3775 -0.0334587 -1.37405)
(11.7156 0.432151 -0.227655)
(-3.82023 -0.212817 -0.110316)
(13.7674 0.572259 -2.87692)
(-1.54122 -0.62912 0.640525)
(12.6468 -0.258428 0.623702)
(12.8792 0.317426 -1.52245)
(1.10337 0.374045 1.63594)
(0.270691 0.762403 2.02087)
(9.94756 0.457749 4.79836)
(2.28763 -0.646443 2.62137)
(-0.248801 0.00851431 1.90441)
(9.96126 -0.126896 1.1712)
(0.775308 0.147272 0.0960767)
(3.24424 -0.320984 2.27498)
(9.43065 0.133282 3.52503)
(12.0624 0.381736 2.45256)
(9.27826 0.318781 2.31395)
(10.4287 -0.222872 4.02489)
(9.24648 0.601861 4.03958)
(10.8016 0.137333 2.2999)
(-0.0164409 -0.0889791 -1.76664)
(5.52247 -0.399143 0.728778)
(-1.7569 -0.250199 0.593066)
(11.8376 1.40375 3.3885)
(10.8764 -0.0611251 -0.632542)
(10.9027 -0.230671 1.09856)
(6.38668 -0.256416 2.40723)
(10.6276 0.263917 1.91159)
(12.2956 0.323088 -2.76709)
(3.51171 -0.578629 2.96694)
(-3.5504 0.212697 0.4145)
(-1.78805 -0.33756 0.362451)
(0.0778789 -0.171163 2.60745)
(0.0677368 -0.793239 2.7883)
(7.33068 0.0963647 2.25196)
(-1.44632 -0.0889064 0.559256)
(2.19442 0.388155 0.802508)
(1.29116 -0.254664 0.217539)
(9.23241 0.404602 0.683122)
(12.6464 -0.0782707 0.968845)
(5.89495 -0.16768 -0.0857169)
(5.56261 0.0876596 0.224635)
(10.6989 0.0821687 1.4806)
(8.15709 0.181849 0.690887)
(7.18703 0.0850462 0.6475)
(-0.886217 0.59784 0.101081)
(12.1153 0.18625 -0.368547)
(13.2396 0.114924 0.0138338)
(9.8084 0.483575 3.45894)
(6.52504 0.21262 2.07326)
(6.92944 0.0962016 1.22311)
(12.6084 -0.0316588 -5.6765)
(-0.80827 0.764729 0.371058)
(-1.22911 -0.517931 -0.123104)
(8.33469 1.7031 -0.082213)
(-1.8627 -1.8189 1.041)
(13.262 0.727444 -1.50907)
(11.9532 0.148642 -0.0611022)
(4.72191 0.56023 -0.53839)
(13.3114 0.282934 -1.2134)
(10.0458 -0.0810289 1.81425)
(0.628693 0.158397 1.29071)
(11.885 0.191115 0.21403)
(12.8435 0.384779 -0.445866)
(11.4719 0.0415441 0.715328)
(10.5572 -0.113111 1.24902)
(4.32062 -0.23349 1.82412)
(12.1494 0.368783 -0.190262)
(12.573 0.372145 -0.184185)
(4.66252 -1.76414 -0.0986576)
(11.7063 0.160714 0.509761)
(9.98732 0.261454 1.90884)
(11.5186 0.105667 0.488616)
(8.67944 -0.0274595 2.1014)
(7.17718 0.838218 -2.84036)
(10.9179 0.71762 1.73474)
(12.4664 -0.149258 1.21819)
(-0.17067 0.284645 1.85526)
(0.570427 0.732878 -4.08196)
(8.07907 0.598578 -2.77108)
(1.38212 0.670003 -4.60809)
(4.93447 0.408439 -9.15646)
(12.7048 0.335128 -0.404004)
(11.874 -0.0993209 1.50519)
(12.4478 0.248008 0.383439)
(11.7729 0.361969 -1.13918)
(13.3071 0.445999 -0.540124)
(4.39624 -0.267405 1.16722)
(10.3305 -0.185026 3.00772)
(6.63915 1.73008 4.29031)
(12.7499 0.264733 0.765731)
(10.8774 2.0896 3.97141)
(11.4321 1.06503 1.67635)
(7.9487 1.49865 4.27022)
(5.4893 -0.777478 1.86777)
(-3.21681 0.729013 0.614984)
(13.3681 0.425841 -0.700014)
(-2.88669 0.64242 -0.507412)
(13.0227 0.300693 0.351359)
(13.5918 0.357187 -2.67884)
(12.2443 0.351499 0.0206007)
(12.8136 0.265891 -8.81122)
(9.24968 1.22297 8.95094)
(8.14313 1.22749 -1.26643)
(-0.742599 -0.0746248 0.860157)
(12.2563 0.294603 -0.220697)
(1.11729 0.82535 1.25991)
(-0.882712 -0.947514 1.16906)
(11.582 0.372811 0.850088)
(-3.61636 -1.74077 1.23448)
(-1.71759 0.602291 1.52689)
(11.8751 0.0720615 -0.263135)
(-1.36833 -0.150356 0.439852)
(12.4281 0.437773 0.055851)
(11.9542 0.555136 -0.49479)
(-0.166533 -2.06295 0.551135)
(10.6526 0.796129 2.0499)
(11.2482 -2.46999 -4.22173)
(-2.34403 -0.0670113 2.834)
(12.0331 1.08283 -0.0260743)
(7.25784 0.880639 2.57959)
(0.499623 0.875082 0.116071)
(-0.941611 -0.753712 0.258169)
(9.83225 -1.09963 -1.93163)
(10.551 0.0961352 4.38116)
(-0.530328 -1.55254 1.96619)
(-0.529258 2.06862 3.33759)
(-0.539744 -1.95974 1.4457)
(11.8197 0.378077 2.14727)
(-1.7143 -0.199425 0.631117)
(11.9183 0.822526 0.452527)
(8.86321 1.03634 7.76868)
(-0.697321 -1.13658 1.12694)
(6.11158 1.03794 -0.200897)
(-1.32317 -0.236176 0.540313)
(-1.55243 -0.0983652 -0.329432)
(1.44855 -0.548905 0.202267)
(0.415175 0.992718 -0.45731)
(1.61065 1.33959 2.9951)
(8.01804 0.681391 0.435284)
(0.22021 2.05868 0.300429)
(-1.52428 -0.603567 0.145944)
(12.3277 0.0507158 -0.0297724)
(7.78754 0.262074 -2.23372)
(12.3488 0.161158 -0.385282)
(12.5694 0.15004 0.0157055)
(11.411 0.453464 -1.19406)
(10.6873 0.0216546 -1.44693)
(3.24127 -0.32672 -0.403457)
(12.6846 -0.260509 0.395799)
(11.8145 0.0891576 1.33813)
(6.21966 0.0683408 -1.31958)
(3.40854 -0.221633 -0.842512)
(10.6624 0.0329934 -1.38684)
(12.5866 0.221083 0.110734)
(12.5303 0.300866 -2.62301)
(11.8147 0.365852 -2.89833)
(11.3486 -0.0981017 -0.241263)
(9.18229 0.763806 1.88867)
(12.3129 0.785472 0.867282)
(10.7646 0.524427 0.362422)
(12.4893 -0.0176165 0.0905039)
(11.4173 0.377013 -3.13964)
(12.1033 0.416429 -0.0360663)
(9.67042 0.040804 1.08978)
(11.4658 0.353279 -2.63333)
(3.64357 -1.20694 -0.637459)
(11.6281 -0.0280106 -0.295676)
(3.12292 0.207167 1.36347)
(10.869 -0.429583 4.82116)
(6.334 -0.424266 1.63975)
(-3.18638 -1.96124 0.462378)
(11.1366 0.73334 -1.0856)
(11.3099 -0.146327 3.14702)
(11.4013 -0.269519 3.64401)
(11.2495 -0.39292 3.08787)
(9.86878 -0.401307 -2.29087)
(6.08625 0.953126 -1.62238)
(11.578 0.452175 -6.08139)
(6.11872 -0.179594 0.515801)
(11.8839 0.01874 1.18401)
(10.3975 0.276797 -6.29398)
(11.1993 0.360149 -4.93877)
(11.206 0.460672 -0.382136)
(11.5215 0.418309 -3.70196)
(7.72667 -0.183944 -1.63896)
(11.9035 -0.00881622 1.02247)
(11.6265 0.556904 -1.37912)
(11.5255 0.412655 -0.178687)
(9.98612 -0.172451 1.39182)
(9.48499 0.118185 -2.754)
(9.41163 0.262287 1.67725)
(5.23386 -1.41996 3.10676)
(12.2673 0.351511 -1.43034)
(12.4955 0.190472 0.893364)
(12.4103 0.16282 -0.0706943)
(7.12435 0.514734 -0.801196)
(7.78176 -0.922307 2.17962)
(3.50859 0.734069 -3.173)
(0.529263 1.55916 -2.68863)
(-0.878185 -1.10607 1.1808)
(1.74133 0.0552889 -3.47629)
(12.4008 0.759363 -1.08013)
(12.0239 0.398076 -3.0499)
(1.76035 1.27848 0.835364)
(4.76068 -0.431461 1.20215)
(-0.62623 -0.629029 0.922854)
(-0.567377 -0.53648 0.641211)
(0.389571 1.47447 0.588149)
(2.83378 0.453966 0.714942)
(12.386 1.44684 -6.67963)
(12.3698 0.216402 1.09078)
(12.674 0.458043 -0.532741)
(-2.92541 -3.36351 0.261102)
(12.4553 0.411105 -0.581269)
(12.0281 0.283904 -5.08844)
(5.18146 1.04118 -0.0751276)
(2.62427 0.491436 -2.00505)
(12.6282 -0.000888524 1.85741)
(12.6569 0.4745 -0.559302)
(13.9171 0.196894 -3.78719)
(4.83998 0.546022 -1.30442)
(12.7005 0.356586 -0.214626)
(0.793877 0.453907 1.01693)
(12.2596 0.134526 0.804414)
(8.63954 0.551304 -3.3257)
(8.93803 1.21437 8.47374)
(9.48793 0.496258 -5.95652)
(-0.605461 -0.353634 0.942204)
(7.76508 0.277912 1.63319)
(9.02202 -0.0246398 2.77991)
(1.69681 -1.19543 3.45109)
(2.42834 0.537786 1.94061)
(7.17629 -0.614897 -0.476234)
(4.64177 0.568176 -0.409608)
(9.38524 0.156785 3.42569)
(-1.60231 0.0149039 0.164462)
(1.83807 0.115295 2.26725)
(12.7692 -0.00851671 0.932884)
(6.98208 0.250321 0.689942)
(-0.912436 -0.755503 2.14314)
(-0.370546 0.435104 -1.05725)
(8.33473 0.551842 0.291045)
(9.56153 -0.217769 -9.34707)
(13.5476 0.373351 -2.68884)
(12.0787 0.121263 0.258391)
(10.2566 -0.969177 -4.03366)
(1.33476 -0.452718 2.37975)
(-0.493582 0.902737 1.23081)
(0.471622 1.29361 -0.0218691)
(5.58364 0.670095 -1.28776)
(-0.599115 -0.585632 1.41443)
(10.6511 0.552039 1.46787)
(-0.97902 -0.731086 1.16757)
(10.082 0.167635 1.2557)
(1.42857 -0.381356 2.65663)
(10.272 0.62998 4.08671)
(-2.46601 -0.667208 0.78489)
(4.43146 0.945678 -2.78405)
(11.9301 0.305304 1.31877)
(0.605284 0.54924 -3.03191)
(3.32568 0.0671484 0.57102)
(-1.52403 -0.282285 0.612798)
(-1.17012 -0.472853 1.03199)
(-1.28858 -0.227403 1.03681)
(2.0088 0.588862 0.434483)
(-0.796957 0.775119 0.766263)
(5.57455 0.547632 0.853997)
(4.93724 0.924575 -2.6665)
(-0.824552 0.638597 0.389733)
(5.72456 0.556442 -6.25917)
(-0.558112 -0.961407 0.3069)
(-1.29733 -1.62675 0.137592)
(-0.694919 -0.948372 1.10511)
(-2.74775 -2.72298 0.752003)
(9.00182 0.663437 1.41118)
(11.2703 0.0504345 0.274311)
(-0.951113 -0.430411 0.699789)
(-1.21331 -0.544864 0.859894)
(-0.949705 -0.611997 0.42618)
(8.01744 0.885286 2.99104)
(11.5047 -0.155003 2.00526)
(7.32869 1.01312 2.76832)
(11.3907 -0.263502 2.90332)
(12.7382 0.192432 -3.50643)
(12.9245 0.072048 -0.00415685)
(12.8306 0.0207613 0.0944847)
(12.1513 -0.0624214 1.1533)
(5.71416 0.496026 2.59707)
(-1.82419 0.0513638 -0.12968)
(10.2987 -0.263453 1.85516)
(8.35426 0.408756 1.77169)
(11.3319 0.0461699 0.297867)
(11.0521 -0.246855 4.00348)
(10.6196 -0.0428078 0.250461)
(10.8345 -0.0406022 0.276001)
(-0.986197 -0.129595 0.83618)
(10.4772 0.548492 -1.09732)
(7.52262 -0.357817 1.1461)
(11.8852 0.259419 -0.78175)
(11.7853 0.263566 -0.855731)
(7.22525 0.431222 -1.17665)
(1.56783 -0.254452 0.160112)
(3.36949 -1.54515 1.01503)
(5.10249 0.151819 2.7609)
(11.6963 -0.591337 2.21327)
(4.2359 -0.107516 0.93904)
(12.418 0.00690065 0.749208)
(9.84113 -0.149277 4.63511)
(10.3324 0.481835 7.90635)
(10.7434 -0.27162 3.9312)
(10.6248 -0.0793561 7.23749)
(9.70382 0.184892 4.42785)
(-1.63492 -0.0638801 0.325621)
(-1.71961 -0.13338 0.337492)
(-1.46555 -0.2511 0.325522)
(7.71874 0.805023 0.784247)
(-0.870318 -0.51702 1.37286)
(11.1805 0.470247 1.01144)
(-1.14447 -0.378759 0.880223)
(-1.65449 -0.269797 0.491232)
(-3.14778 -1.7758 0.461988)
(1.98644 -1.49662 1.56546)
(-1.69746 -0.0638606 0.049769)
(1.42445 -0.593518 1.75706)
(6.2414 0.190553 0.603879)
(7.46492 0.152123 0.586686)
(11.4644 0.0021888 0.94847)
(6.01217 -0.431722 -0.10828)
(8.90405 0.137392 2.90961)
(11.9002 0.200924 1.2368)
(-3.19588 0.239921 -0.00349623)
(5.55859 -0.0930845 -1.39497)
(12.9404 0.477248 -2.05675)
(13.3643 0.312854 -1.60659)
(0.691677 -0.277636 1.32142)
(13.3374 0.31426 -2.12664)
(13.1972 -0.492327 -7.21741)
(5.97424 0.252762 -1.42352)
(11.2365 -0.217186 1.56055)
(8.87493 1.20945 -1.76447)
(4.46905 -0.0992006 -0.919669)
(-1.34212 -0.833407 0.940923)
(-1.81614 -0.645729 0.719444)
(0.380971 -1.29526 1.82702)
(-0.988551 -1.07735 1.35964)
(-1.22618 -0.618745 0.680674)
(0.530627 -1.08955 1.69325)
(5.40391 0.110704 -1.25828)
(12.4884 0.445641 -2.07885)
(12.8297 0.439472 -1.62408)
(13.0947 0.407775 -2.23722)
(11.3125 0.519984 -2.11745)
(3.51371 1.01681 0.731078)
(2.9959 0.336915 0.920278)
(2.39855 0.52973 1.4161)
(1.96455 0.808502 -2.72793)
(8.55381 0.45751 -4.39458)
(8.69643 0.780131 -3.68935)
(6.65371 0.682343 -3.95953)
(5.82988 0.602873 -4.00042)
(7.05591 0.719448 -4.6062)
(12.3643 0.168309 0.0434857)
(12.2015 0.181239 -0.265385)
(12.1562 0.1495 -0.0062642)
(11.0115 0.408595 -1.32026)
(7.18049 0.326136 -4.22132)
(12.0177 0.160005 -0.0575918)
(12.296 0.188767 0.0608856)
(11.921 0.314775 -0.0808419)
(13.2565 0.340395 -1.06633)
(12.1749 0.320942 -0.1946)
(11.5675 0.387971 -0.274349)
(11.9167 0.313012 -0.0867325)
(11.7252 0.377871 -0.14085)
(4.73126 -0.201156 2.68401)
(3.12997 -0.357047 1.51822)
(4.00886 -0.535712 2.44101)
(12.4066 0.457053 -0.159311)
(3.47119 -0.409775 2.54772)
(12.3908 -0.0785432 0.0231188)
(9.43305 0.18876 5.65009)
(12.7052 0.279674 0.699487)
(8.49364 -0.53826 1.21591)
(10.7765 0.708053 -2.88752)
(12.1753 0.267995 -0.324748)
(4.61944 0.602867 2.29447)
(10.0478 0.66808 -3.27803)
(-3.79449 -2.91418 2.15114)
(11.1284 -0.191361 -0.944965)
(-0.106289 -1.78821 2.40402)
(7.85551 0.841526 4.81332)
(-2.48035 -1.87236 0.944855)
(12.2961 0.139741 0.00658918)
(7.73076 0.67287 -3.20846)
(7.8923 0.758687 -3.36392)
(0.117565 -1.6598 2.43093)
(13.2652 0.271717 -1.89143)
(-1.4991 -2.45848 0.535026)
(5.64518 0.604671 -5.9025)
(2.65003 0.911382 2.79589)
(2.98735 -0.227128 2.48042)
(9.42301 -0.0949545 2.1273)
(-1.12364 -0.64685 1.77873)
(-1.9449 0.710048 0.638833)
(2.06615 -0.338269 -0.0246443)
(9.47198 1.11846 -1.37458)
(12.3559 0.218519 -0.390795)
(12.2648 0.245474 -0.696166)
(7.68185 -0.581002 0.381671)
(12.8975 0.426684 -0.0469762)
(11.2457 -0.171324 3.50959)
(11.1073 -0.20279 3.69854)
(10.8126 -0.517576 3.64357)
(8.31268 -0.617596 3.31567)
(10.1857 0.292091 1.60125)
(11.3981 -0.485642 2.68608)
(12.9189 0.1795 0.075755)
(6.02156 0.845334 -4.22373)
(6.43841 1.05128 -5.38125)
(11.2439 0.209865 1.62673)
(7.45199 0.801508 -2.55761)
(7.88855 0.850295 -4.86653)
(13.3197 0.369061 -2.94367)
(-1.92693 -0.165329 2.38466)
(3.2561 0.871008 -1.73635)
(7.05035 -0.228496 -2.25507)
(9.74174 0.448783 -1.28083)
(9.58019 0.450666 -1.28791)
(11.5934 0.263955 -4.34208)
(10.1845 0.462314 -1.94971)
(11.1895 0.252735 -0.701243)
(7.45443 0.651344 -1.94339)
(10.0976 0.636819 -4.80222)
(5.6723 0.954357 -1.81771)
(13.7872 0.442278 -3.3144)
(11.8121 0.348789 -2.42762)
(7.60119 0.92068 -5.3287)
(13.9297 0.723148 -5.09104)
(10.5415 0.73161 -5.62758)
(11.8893 0.169649 -0.122889)
(12.0959 0.242465 -0.914675)
(12.4365 0.410519 -0.522642)
(12.4839 0.458193 -1.06204)
(12.6833 0.387014 -0.503025)
(12.7668 0.35519 -0.905367)
(12.2992 0.36613 -0.852424)
(10.4993 0.47007 -3.39074)
(8.12675 0.964218 -1.82646)
(7.36315 1.60093 2.02675)
(8.8307 0.206484 0.761666)
(-0.229518 -1.06643 2.65694)
(12.2426 0.63194 0.200836)
(7.90267 -0.0247051 0.955409)
(8.89417 -0.000375902 1.77034)
(12.7361 0.429694 -0.0628952)
(9.41147 0.0571837 2.26572)
(11.3204 -0.0252593 1.11193)
(1.77283 1.04932 -3.24309)
(11.782 0.838171 -1.95164)
(10.1674 0.386896 0.35504)
(12.456 0.311346 0.012535)
(6.54031 -0.299852 0.846846)
(10.5459 -0.0506244 0.213803)
(6.97527 -0.606942 -0.745156)
(13.7457 0.63491 -3.32693)
(12.2162 0.408561 -3.26291)
(13.7591 0.489354 -2.48495)
(12.6762 0.247721 -2.54508)
(12.039 0.563396 -1.86074)
(13.4627 0.478204 -1.61568)
(11.8352 0.66554 -3.50384)
(11.4826 0.631483 -3.39067)
(13.5027 0.633243 -2.9832)
(10.8585 0.490098 -5.13564)
(6.78129 0.664565 0.572797)
(12.0352 0.692117 -4.8263)
(-2.99421 -4.1294 1.70517)
(11.2063 0.309209 -3.46966)
(12.1078 0.23558 -0.535513)
(9.60567 0.782322 -2.34476)
(13.5537 0.302083 -2.49711)
(11.0385 0.593246 -5.15843)
(10.1673 0.779327 -1.99327)
(9.33683 1.62009 3.49448)
(0.528717 -0.821676 0.914372)
(-1.81298 0.408158 2.63694)
(12.5778 0.0745863 0.438526)
(8.26615 0.643163 3.05704)
(7.93439 1.47823 4.84913)
(5.48771 0.746849 0.865796)
(11.8521 0.73424 -3.44846)
(11.3369 -0.196138 1.84524)
(12.8415 1.03757 -3.78264)
(10.9418 0.602744 -0.363305)
(11.4804 0.262274 -0.774147)
(11.4431 0.712161 -3.70543)
(11.0245 0.793533 -3.92951)
(11.0587 0.809318 -8.09711)
(11.9001 0.825948 -3.77046)
(12.0264 -0.0702776 0.869875)
(8.7853 0.406936 -11.1919)
(3.25841 0.409351 -0.400276)
(12.249 0.878914 -0.34306)
(5.20523 0.105356 0.152197)
(5.24097 0.2383 0.131821)
(13.1756 0.525289 -1.51318)
(12.097 0.191146 0.550346)
(11.8654 0.235562 0.473107)
(12.3762 0.971967 -1.22536)
(8.12358 0.628304 -1.19881)
(12.1799 0.317989 0.102341)
(12.0532 0.3395 0.0861243)
(5.84108 0.698064 -0.261307)
(6.69426 0.669831 -1.08504)
(11.9726 0.669477 -3.68058)
(12.1312 0.599084 -0.755855)
(12.1322 0.446552 -1.41589)
(4.14856 1.16877 -2.63312)
(3.52086 -0.327957 2.61519)
(-2.2132 -0.998253 1.9777)
(11.7301 0.21979 0.689988)
(13.6292 0.371898 -1.10598)
(11.9746 0.15352 0.591314)
(11.0903 0.864409 -2.64884)
(5.87947 0.885165 -4.33568)
(11.6795 0.637045 -1.6181)
(11.7044 0.402671 -0.283322)
(13.4446 0.597327 -2.63617)
(12.4103 0.302071 0.0326337)
(11.7694 -0.264416 2.29795)
(6.37661 0.0800225 0.929376)
(8.65377 -1.918 -1.22274)
(3.34786 -0.152012 3.59947)
(4.02375 0.772738 0.540201)
(-0.349717 -1.53183 0.923129)
(6.92916 0.395995 -1.07002)
(13.335 0.651472 -1.766)
(2.22141 0.842474 -7.49438)
(12.4996 0.38082 -0.0987837)
(10.8926 1.1219 -5.14288)
(1.42134 1.4884 -3.29668)
(4.70611 0.520739 -0.271659)
(4.63036 0.561181 -2.19969)
(12.3847 0.750139 -2.61519)
(13.3271 0.65785 -2.45363)
(11.5405 0.731448 -2.36125)
(11.5834 0.140982 1.17797)
(1.11375 0.885141 -2.807)
(12.4693 0.738669 -3.55128)
(2.32318 0.915913 -3.9222)
(1.57128 -0.790558 0.294314)
(2.52099 2.75436 -1.70507)
(5.11508 1.33144 0.427933)
(1.43339 1.28873 -9.05422)
(12.6239 0.213384 0.177357)
(11.8659 0.350654 0.0911788)
(11.687 0.906229 -2.69449)
(6.09198 -0.849851 1.59245)
(0.437908 -0.724806 1.78058)
(8.62022 0.291758 1.17046)
(5.6231 0.659224 -2.92021)
(11.7446 0.301402 0.0456734)
(11.0018 0.576252 -1.95981)
(12.233 0.344335 0.769777)
(11.8832 0.364494 -0.748824)
(11.4897 0.441969 -2.31423)
(0.0155952 1.73812 -0.106576)
(13.0673 0.383717 -1.62455)
(-1.78825 -2.14399 0.598146)
(2.54339 0.334989 -7.22296)
(7.28146 0.798024 0.333833)
(11.0507 0.369192 -2.33685)
(8.14561 0.321913 -4.43046)
(11.2134 0.445249 -3.03223)
(11.6176 0.350221 -5.10321)
(11.3279 0.904518 -2.83672)
(2.86294 0.559969 -8.04062)
(13.1711 0.408231 -0.334033)
(13.7731 0.72162 -4.25906)
(2.89046 0.299079 0.401108)
(11.1953 0.618642 -3.48278)
(6.88549 0.593865 0.396102)
(7.63556 0.700054 0.155476)
(9.65695 0.504767 -1.84135)
(10.7707 0.690291 -2.5201)
(10.586 1.32429 2.30452)
(4.21088 0.750957 2.1113)
(4.82747 -0.0628249 0.479036)
(4.74799 -0.243139 2.09931)
(-0.750747 -0.901675 1.24987)
(-0.220979 -1.58615 1.97218)
(11.1488 0.268398 3.59536)
(-1.96769 -2.52812 0.551658)
(12.4847 0.982129 1.16731)
(-3.16604 -1.84397 0.729379)
(6.25004 0.654493 1.01421)
(4.67707 1.20245 -8.37501)
(11.0675 0.466014 -2.94539)
(11.1681 0.759937 -2.36792)
(5.23978 -1.17718 0.552833)
(10.8844 -0.154502 0.807668)
(-3.46649 -2.64435 1.02283)
(8.04011 1.46268 -12.4986)
(0.297803 -0.397665 2.03975)
(11.8534 0.405814 -1.64938)
(11.2065 0.269903 -3.48754)
(11.6714 0.373102 -3.82116)
(12.0212 0.390683 -2.51389)
(10.7323 0.38439 -3.92356)
(4.18499 1.06098 -5.26567)
(13.3266 0.127177 -0.669268)
(11.3703 0.577099 -6.87938)
(8.40251 0.46722 -3.42773)
(5.90272 0.459328 -2.1153)
(13.406 0.259748 -0.584677)
(-1.04226 -0.0136241 1.45274)
(10.0157 -0.216204 1.97741)
(2.89674 -1.22235 1.19447)
(0.54687 0.733164 -4.68788)
(5.29384 -0.712918 0.87378)
(0.375871 1.16227 -1.65254)
(-1.92711 -1.09526 1.91511)
(11.0795 0.141032 1.06263)
(13.8654 0.642719 -3.76901)
(5.56269 0.808186 0.450528)
(6.64306 0.116939 -0.0139568)
(-1.34702 -0.304573 0.268307)
(-0.067126 -1.63176 2.18853)
(11.9386 0.384344 -1.24866)
(10.3359 -0.254328 1.2412)
(6.00082 -0.300876 2.73257)
(10.4213 0.614211 -2.26041)
(10.9697 0.38563 -0.600903)
(11.0929 0.552854 -0.95464)
(13.5595 0.273388 -2.39231)
(12.334 0.177728 0.327939)
(9.95921 0.314678 -2.76352)
(3.89114 0.283614 0.297326)
(12.2454 0.190706 1.11929)
(-0.180531 -0.697311 0.545286)
(10.3169 3.40432 -3.38776)
(2.14837 0.746412 -0.760229)
(3.94197 0.339607 -1.10598)
(-0.197153 -1.55585 0.577176)
(11.3223 0.0439579 0.396258)
(2.72832 -0.896607 1.78102)
(5.21415 0.567787 0.0282128)
(9.08004 -0.522282 0.78513)
(11.8835 0.622962 2.79857)
(-0.379865 -0.070597 1.90599)
(-1.79973 -0.712416 -0.346599)
(-2.32571 -0.421815 -0.69519)
(-1.38091 -1.04128 0.427054)
(12.1432 0.461625 -1.28798)
(5.29413 -0.169124 2.46103)
(8.73323 -0.422925 2.01662)
(8.80336 -0.0607507 1.81174)
(-2.63668 0.507961 0.0776293)
(11.1131 -0.0939271 -0.417787)
(12.4866 -0.0248075 -0.141609)
(-1.38768 -1.07598 1.48469)
(12.8134 0.0447695 0.213138)
(-1.47709 -0.160438 2.62477)
(12.1955 0.338091 2.15916)
(4.16817 1.033 0.844174)
(-0.694319 -0.147069 1.91293)
(5.26264 -0.377981 0.375616)
(9.51127 2.1638 4.29833)
(3.33927 -0.181108 1.27446)
(11.2796 -0.270442 0.759789)
(9.43168 -0.386414 4.22294)
(10.9105 0.26945 1.68475)
(9.37004 -0.284555 -1.41951)
(-0.741266 -1.14088 0.415686)