/*--------------------------------*- C++ -*----------------------------------*\
| =========                 |                                                 |
| \\      /  F ield         | OpenFOAM: The Open Source CFD Toolbox           |
|  \\    /   O peration     | Version:  2506                                  |
|   \\  /    A nd           | Website:  www.openfoam.com                      |
|    \\/     M anipulation  |                                                 |
\*---------------------------------------------------------------------------*/
FoamFile
{
    version     2.0;
    format      ascii;
    arch        "LSB;label=32;scalar=64";
    class       volScalarField;
    location    "0.0625936";
    object      omega;
}
// * * * * * * * * * * * * * * * * * * * * * * * * * * * * * * * * * * * * * //

dimensions      [0 0 -1 0 0 0 0];

internalField   nonuniform List<scalar> 
3948
(
602.912
230.74
86.9887
652.145
670.894
62.6447
663.763
696.122
120.512
48.9737
85.5963
56.0886
263.074
230.843
487.451
786.293
477.701
127.846
525.864
103.793
116.712
668.777
98.0204
77.0643
109.169
601.123
101.322
463.18
119.824
106.566
176.676
679.475
508.38
244.731
891.962
79.9607
1004.14
638.9
1148.29
1194.05
795.771
365.717
556.292
575.444
75.8135
568.43
522.012
548.099
1368.63
1173.19
103.387
1448.42
617.415
1618.12
1088.82
776.295
51.6217
228.175
860.219
98.2531
438.657
571.423
217.656
199.067
185.796
264.98
281.343
304.568
81.209
1375.2
539.905
331.946
1217.89
51.058
88.7526
74.3835
83.2914
113.343
785.474
122.159
323.676
330.74
226.246
90.8643
345.275
331.058
509.545
310.194
424.736
51.2779
423.881
71.1615
217.024
134.889
63.7774
235.285
296.088
424.641
55.551
67.3807
78.4993
156.654
178.383
62.4767
80.1427
123.736
65.8843
203.046
747.934
403.369
376.053
585.779
109.002
132.319
521.7
98.6581
117.593
445.757
371.028
1925.58
371.449
63.3493
461.934
662.067
107.631
60.5419
410.022
452.708
681.166
301.964
116.731
57.021
266.617
381.952
73.3674
898.545
90.9085
200.106
466.967
96.2142
410.262
86.8115
56.6751
71.0826
243.052
75.8366
110.515
77.876
818.315
129.857
63.5662
175.539
63.5005
281.996
55.4919
66.7711
67.5199
172.112
373.427
235.357
73.8972
246.899
61.871
57.9362
50.7373
75.3565
541.01
786.38
339.831
502.044
406.837
88.2639
106.942
889.348
907.435
60.3827
114.854
543.97
88.4818
67.1792
249.876
840.662
539.183
483.625
63.772
465.688
394.364
86.8793
191.081
103.22
170.869
100.743
64.391
242.642
106.645
54.7803
74.2703
333.672
59.4535
74.4934
61.9889
66.8551
1061.88
57.2145
308.796
175.751
280.761
1199.48
233.659
258.032
59.4592
633.698
65.3783
101.085
86.102
1282.84
136.121
667.742
715.642
80.9989
800.189
267.323
300.097
79.1428
111.114
86.5699
137.274
178.117
52.9162
443.379
533.238
874.524
211.98
259.175
500.351
621.516
116.453
316.385
89.5768
1458.97
122.404
311.202
85.5649
255.961
533.226
79.1817
132.412
315.132
95.767
52.4075
61.467
73.1174
50.1575
175.824
538.322
347.819
350.589
1108.28
95.2538
78.046
140.924
520.322
370.053
1380.18
638.197
246.021
376.773
167.101
405.157
847.246
86.2019
88.7211
91.0588
529.294
646.249
267.901
233.692
432.633
229.092
562.468
113.311
164.799
1252.8
872.629
191.304
65.6051
169.69
238.316
460.357
243.209
538.541
254.021
201.181
204.601
702.958
158.515
269.182
959.423
237.529
799.914
637.064
1453.69
76.1154
360.209
295.176
69.892
66.1926
212.162
656.158
169.915
52.7561
144.123
189.312
744.467
57.0157
66.3596
574.408
1044.43
525.969
526.439
926.99
223.052
186.197
628.29
84.1165
68.2868
82.4192
65.5185
145.204
56.3855
452.005
623.786
1589.32
317.745
1188.44
57.3573
1691.6
121.741
630.845
768.165
774.806
409.559
781.151
500.927
258.658
359.195
787.257
690.937
342.362
466.794
140.331
335.041
573.552
783.848
298.097
84.1227
78.2413
190.828
65.8068
101.724
379.57
71.1892
830.019
387.106
194.725
500.43
86.0317
66.7905
81.0836
84.2039
95.193
167.576
211.954
350.343
382.315
478.249
536.49
466.536
108.782
113.141
254.255
162.901
112.391
202.424
371.116
395.118
411.293
552.507
279.76
216.709
202.111
129.2
207.144
174.869
63.8502
63.9505
61.2494
59.542
60.2066
1694.67
66.4405
65.9322
66.3181
67.1274
56.9158
65.2309
902.262
113.376
989.061
148.935
55.0138
53.1038
116.137
60.2839
118.538
72.5805
84.6558
66.4441
128.904
57.4196
55.4832
61.9861
748.029
1119.54
536.822
381.309
55.6477
1100.71
55.4137
164.774
382.045
495.19
315.255
184.41
1109.75
507.952
530.574
539.394
680.001
288.267
98.8345
124.829
1926.96
270.399
250.114
117.093
814.491
107.591
565.137
105.086
751.346
204.221
153.255
52.3313
1034.71
70.0848
98.9333
71.1398
111.433
96.022
203.826
108.392
74.6166
339.375
102.239
335.991
332.632
153.181
237.766
1405.53
953.676
585.276
838.85
242.522
166.105
176.526
196.706
66.8658
79.1274
334.027
217.709
330.847
132.784
50.2607
49.0555
49.286
55.192
149.743
154.817
125.432
347.778
264.547
216.474
231.464
128.189
646.333
667.665
620.254
243.705
526.083
579.757
109.174
197.591
559.185
153.573
66.8668
73.1917
767.39
104.806
139.808
65.4621
81.5692
79.3252
537.456
266.41
540.919
194.309
56.2741
867.686
453.779
498.279
882.602
773.753
127.898
756.91
722.14
569.338
228.875
134.064
103.173
222.681
1097.29
80.3728
72.0571
71.0309
89.8639
191.146
557.676
127.918
50.7534
73.9923
62.1711
330.696
393.256
567.612
676.048
432.446
79.1538
68.0849
65.3622
66.1227
317.846
59.3862
52.1481
68.7983
164.544
195.224
153.307
191.478
88.2364
73.4858
147.201
470.732
181.843
463.504
54.1434
430.559
413.983
469.863
429.332
491.435
55.5443
54.4268
71.7841
80.6809
71.6773
56.4385
55.4539
57.3824
315.616
306.652
53.7155
309.929
392.852
299.051
251.859
305.842
270.066
52.6488
47.4026
52.6421
64.3395
304.562
74.6399
297.032
184.591
233.519
96.0565
221.937
382.923
382.542
336.911
146.533
167.507
53.1174
48.9031
51.2318
47.2148
91.3312
812.087
901.914
1116.85
1082.82
75.7949
69.725
75.1408
64.5731
77.6394
263.437
55.1986
107.587
120.827
115.572
81.3724
149.492
351.154
116.953
203.743
206.172
54.0355
205.937
81.4825
87.2636
217.877
77.2563
55.1285
68.8496
111.343
67.0383
63.5021
286.671
74.9148
54.1631
242.953
408.857
62.3507
170.015
155.695
286.402
133.323
137.888
206.715
227.81
171.391
114.417
53.6145
125.718
133.773
75.6848
465.585
759.883
366.557
436.611
110.246
273.792
2145.93
153.88
50.2579
131.024
62.9575
99.3443
57.4716
56.0266
73.0493
87.0601
69.5284
609.214
436.126
242.424
98.7531
81.4168
116.178
50.5223
564.368
807.265
536.799
372.692
261.251
65.7446
791.545
65.7849
641.148
341.922
661.688
59.0878
185.25
513.68
336.982
627.363
663.986
65.239
84.9413
719.801
432.177
157.636
77.1086
310.209
150.753
79.858
163.339
346.987
114.179
200.104
115.408
1205.68
568.117
106.592
122.137
192.151
675.689
115.123
416.338
64.5874
191.191
46.6101
891.548
161.779
68.7805
1122.76
1199.45
467.652
119.953
475.859
468.161
1320.72
104.481
212.953
859.904
521.384
534.743
492.8
466.952
180.421
551.536
888.243
1274.75
792.599
922.937
73.6726
211.038
472.479
74.4778
364.69
493.447
180.348
768.248
327.54
113.899
284.283
95.4953
49.228
559.425
114.426
93.3306
410.85
756.432
253.39
69.3702
80.7363
51.4329
50.5966
53.1617
1442.09
81.3004
536.3
472.84
611.94
59.2055
306.497
80.0124
127.855
62.7484
85.4362
77.5304
314.048
612.398
64.0115
330.441
75.6298
48.428
122.796
671.802
778.891
180.312
843.728
856.448
114.173
503.166
289.461
464.219
124.077
90.6274
51.3211
85.4173
884.64
714.478
86.1787
257.202
740.216
277.407
124.787
110.535
425.406
273.29
911.994
62.7698
114.855
1126.47
1116.88
957.92
373.508
685.251
1412.39
257.887
677.228
588.376
364.834
843.555
245.312
277.736
1154.4
1149.91
66.0719
1246.78
110.003
412.184
1005.22
92.391
410.32
68.9772
69.2542
445.63
921.444
637.774
941.351
400.88
65.0304
88.3193
853.539
108.004
114.766
139.52
119.751
173.446
119.273
161.674
529.339
196.778
166.842
70.7222
237.331
118.417
92.9797
1249.74
290.59
193.813
457.556
454.517
583.9
476.911
84.2248
136.59
492.591
182.85
727.322
73.5496
135.685
556.279
729.447
399.538
535.466
505.448
331.524
503.634
1010.17
64.4703
506.621
693.001
669.701
612.861
65.9127
460.443
176.73
795.959
852.33
882.691
892.673
70.3344
70.8581
85.5224
1295.76
1386.94
551.879
430.244
250.738
710.088
349.607
452.404
54.568
166.934
58.0638
126.184
53.4388
68.0614
77.5986
50.8089
609.524
170.477
573.021
1164.69
481.601
113.894
72.3414
155.554
441.754
62.3991
127.297
611.787
599.717
90.5131
57.7491
139.269
896.84
855.676
802.167
92.0785
473.13
60.6607
65.0026
72.5258
414.448
885.181
231.897
86.9087
65.609
485.306
820.729
124.24
68.2756
207.364
94.7762
65.3404
442.159
492.129
328.515
548.277
632.041
149.297
349.793
376.531
1260.34
276.467
97.7967
73.888
68.5057
235.434
214.367
552.905
644.293
49.8894
87.8847
176.775
109.761
102.781
387.134
69.042
206.226
137.924
79.7571
149.197
77.1965
76.9782
113.932
90.0384
67.3352
86.8308
65.4474
556.554
367.801
297.04
488.181
719.611
646.302
284.079
344.079
64.7548
749.757
230.335
298.236
1762.98
1411.08
70.7025
79.073
51.7584
297.706
96.7283
141.188
65.5956
46.0921
129.768
500.131
1058.94
180.994
61.5024
231.919
506.356
77.7856
75.9514
116.959
71.1321
522.021
103.4
513.753
1076.56
61.5693
87.4376
202.278
121.964
76.7331
58.117
314.847
598.163
139.073
163.727
840.209
72.0759
741.325
115.173
133.537
184.196
343.853
93.5122
282.347
185.697
143.012
496.337
458.674
706.885
1429.72
388.726
174.725
210.232
905.892
1040.29
995.588
2280.51
647.785
64.7692
82.5029
855.316
331.186
173.285
93.5121
314.032
276.153
220.543
702.136
2428.11
1103.74
510.736
79.5342
382.538
135.501
531.417
490.192
392.691
350.562
346.378
572.147
417.279
77.9138
53.5568
64.0755
408.529
428.541
661.614
570.365
240.691
599.37
626.159
579.51
59.1487
206.13
83.4171
147.716
266.271
461.889
782.425
474.888
431.326
154.981
565.102
409.983
84.5768
1543.59
136.275
54.0015
67.7329
140.477
49.9145
59.4548
47.1816
518.086
291.449
526.453
150.734
1402.7
315.062
635.044
99.6916
94.3798
78.6942
65.9892
351.944
360.096
688.194
82.2107
682.487
321.775
667.873
908.83
78.8595
75.5128
265.594
527.352
602.721
330.663
400.997
173.569
474.869
852.833
1385.9
2020.32
227.775
766.361
80.738
71.9273
59.714
546.444
1093.65
562.989
1474.29
774.288
111.315
545.072
59.1841
488.21
571.557
511.965
545.557
241.666
312.165
460.674
50.9585
527.598
72.8267
89.5436
317.506
1523.93
784.641
388.6
310.485
1235.16
195.771
1277.81
398.905
559.17
621.135
550.911
450.51
1045.07
758.754
728.015
78.172
1250.04
51.1474
88.2011
503.772
240.568
215.926
188.843
205.133
199.662
262.016
581.714
601.89
651.524
372.114
680.86
726.877
634.807
397.049
418.583
506.521
468.797
566.351
403.223
318.906
401.277
424.089
543.038
70.5821
358.924
455.579
119.438
60.8966
431.384
922.266
138.261
79.0075
434.356
267.21
216.88
72.7361
237.104
301.281
530.075
247.35
376.219
187.364
237.568
400.499
424.574
110.693
485.197
781.996
372.726
788.878
116.014
58.8193
50.5403
155.927
257.413
282.262
296.127
156.527
156.462
498.569
217.655
52.6468
939.672
705.55
613.703
479.266
520.928
150.564
717.141
312.096
350.548
819.853
491.11
1039.98
538.345
436.264
1165.15
1170.36
611.393
1489.83
379.693
463.012
592.427
482.635
842.892
147.537
485.793
917.178
123.665
312.058
330.328
224.815
208.61
54.0335
457.642
568.521
164.709
526.529
53.2133
1025.09
805.32
245.366
1693.01
935.857
112.107
69.514
243.179
62.3409
74.9964
117.981
87.4708
98.1284
61.03
50.2577
568.267
71.9612
225.736
47.5158
56.7665
1477.47
75.7331
95.7698
1344.2
118.175
367.517
1087.64
134.025
276.579
493.973
989.738
277.906
544.674
1620.47
271.279
807.331
745.755
465.608
1054.65
461.222
950.911
640.723
477.803
75.406
281.626
401.11
133.318
784.176
768.313
153.28
1210.22
374.476
419.565
1169.98
360.026
666.723
78.2552
47.2121
812.981
563.224
511.538
747.469
781.512
492.873
70.2279
576.331
730.365
850.649
61.5657
264.853
88.514
396.643
46.9615
160.376
298.674
92.5384
247.517
75.7521
49.8698
86.7512
176.612
57.4847
57.938
1289.16
49.8291
969.255
347.334
63.2307
260.801
450.119
61.4558
715.858
245.631
54.6118
935.935
210.468
280.406
90.329
793.785
71.3537
774.394
79.421
917.495
682.925
667.127
130.972
124.353
188.588
181.224
498.481
177.256
78.2078
265.822
790.719
787.518
624.484
961.522
75.3697
62.1916
74.3195
398.007
83.2216
446.056
61.2736
149.496
543.018
554.794
732.821
415.069
885.6
487.976
376.03
475.968
573.283
799.766
913.804
753.696
93.2701
101.733
424.24
90.3083
147.508
726.746
268.401
83.299
78.7292
499.453
507.275
92.7104
399.571
50.2187
417.606
102.893
107.571
275.347
328.586
196.94
595.058
546.942
408.232
501.197
183.589
1052.91
53.619
325.164
50.7359
763.621
61.3214
55.8998
46.9351
425.79
302.449
96.021
88.5943
1093.71
168.678
88.0573
199.331
117.101
874.331
661.611
81.0346
51.9363
236.573
82.7375
966.068
130.937
109.309
324.808
64.7845
402.574
388.926
851.152
68.2363
760.201
139.328
57.1385
54.1216
191.557
64.5403
68.1436
295.301
64.8523
59.8091
54.6021
225.799
128.253
422.434
799.745
58.5933
421.425
63.8481
1038.38
83.723
128.725
108.757
89.9777
95.8139
158.458
72.1324
73.6577
160.942
182.98
86.3768
69.6336
124.614
123.247
76.7216
101.144
128.613
78.9319
71.6515
63.0998
82.5658
210.481
1030.59
644.073
1377.39
1570.41
581.453
629.457
686.385
607.193
734.005
212.731
430.86
76.8835
51.3084
650.278
162.07
74.7558
100.215
111.174
146.63
95.1238
76.7656
150.866
250.309
567.479
1242.91
139.56
188.917
64.7256
67.8172
888.586
524.094
177.721
276.405
1267.51
567.137
700.639
476.199
314.516
442.32
51.0581
92.6725
63.2988
54.813
311.645
672.779
759.236
750.137
991.644
577.359
314.311
80.998
615.707
335.941
609.271
515.803
731.664
1351.78
590.553
687.248
832.719
559.271
479.013
895.581
127.998
91.9312
76.3235
204.473
649.354
60.6593
69.2956
55.298
110.365
1492.84
93.6275
941.201
223.816
1577.28
351.764
136.809
154.646
485.988
330.373
467.759
46.2979
1516
1402.11
726.269
700.609
590.498
199.038
107.014
55.2061
115.246
1375.09
1097.12
288.997
129.68
1147.72
57.4976
132.915
675.109
586.49
405.888
386.91
394.327
197.704
1029.55
447.702
171.448
1666.65
858.565
441.246
844.745
1119.55
583.021
681.757
272.77
851.08
769.55
461.132
370.57
1257.98
459.494
382.893
230.293
1136.48
1066.88
828.855
70.3625
50.0456
46.5258
63.5401
63.7424
679.364
269.233
135.312
620.344
119.246
757.462
130.273
1045.85
86.9347
501.435
626.695
378.618
59.0817
105.989
614.938
49.9736
124.038
507.726
630.712
297.252
149.776
160.883
341.632
169.273
724.86
61.8965
86.5747
661.483
55.7443
64.4176
84.3031
66.4331
63.6549
78.4112
194.349
172.469
196.751
301.133
56.09
73.4989
168.313
595.766
50.5483
50.6134
232.827
836.364
821.385
699.93
110.331
98.0507
183.394
97.18
82.8328
315.571
63.7093
527.097
286.395
285.207
260.622
101.124
269.057
276.586
1120.63
289.034
132.499
1857.09
241.342
237.472
85.8848
296.29
688.928
1152.58
791.801
1112.24
384.496
86.6107
1046.98
1093.13
787.493
233.538
441.409
469.901
212.919
105.059
362.746
236.044
100.059
78.6195
128.675
237.689
397.983
743.325
135.175
79.8573
125.589
151.344
1051.56
274.535
1063.3
309.119
646.581
255.77
66.6766
1263.04
625.233
737.318
470.511
175.069
334.324
704.632
702.394
1023.54
599.58
974.011
627.023
747.711
733.216
599.63
647.429
897.537
68.6681
63.5857
204.501
831.017
153.579
258.946
940.349
214.884
709.365
655.211
577.684
526.694
627.152
423.906
73.2406
560.045
235.072
969.379
770.097
315.888
283.465
282.188
181.711
55.9222
142.353
154.445
230.987
66.2447
62.007
63.9128
223.135
160.162
93.5821
521.338
492.494
263.305
90.3066
143.923
523.896
123.728
97.2352
90.4296
82.7562
674.426
600.492
63.5939
647.849
729.713
694.878
1186.63
968.763
702.893
1356.98
744.424
63.064
655.479
60.1585
1284.97
122.136
1071.85
508.181
783.228
506.705
678.997
180.249
361.364
442.682
1259.63
212.373
44.9312
75.7356
985.577
58.6929
65.3621
59.8076
422.211
226.049
61.3116
1166.58
991.39
659.77
867.104
766.736
879.771
377.364
99.9922
108.367
265.638
55.2457
992.601
172.672
304.345
1115.49
368.472
258.378
238.305
387.887
310.688
503.215
450.729
215.689
200.263
117.199
882.477
2235.44
270.837
340.762
187.623
186.08
90.72
164.651
79.9982
584.989
131.199
188.066
270.311
226.312
243.115
116.524
202.617
107.802
157.895
138.716
70.0108
56.381
222.879
123.282
54.5007
195.929
55.3393
236.143
237.231
311.36
788.003
878.148
1440.07
730.88
871.082
1138.24
2101.03
691.228
869.618
2102.66
378.758
125.481
1028.41
704.159
1220.99
113.248
719.589
960.128
1549.69
1337.42
1511
418.563
253.09
96.7419
130.549
197.634
192.758
384.626
754.221
971.724
700.213
164.306
616.515
49.8184
113.961
154.026
75.9244
155.591
77.9304
67.1567
65.034
499.038
306.534
192.617
425.881
73.8813
184.757
447.485
387.792
476.347
1083.65
127.968
559.41
360.661
70.8418
67.9253
198.537
188.984
133.941
158.459
223.721
630.104
92.8006
149.441
194.46
72.5875
62.9942
239.783
85.2759
267.224
109.202
111.924
571.771
456.24
49.396
314.881
389.228
161.379
83.7377
860.148
619.482
185.074
950.95
307.759
289.752
168.425
240.022
111.083
66.6141
264.781
143.245
228.097
142.542
226.776
405.145
677.797
76.853
66.8317
279.749
187.919
743.905
1027.25
872.871
811.581
865.401
66.2838
70.1549
65.2006
66.6205
70.4904
64.7651
324.303
769.336
854.142
742.363
802.121
502.439
706.274
484.085
798.652
470.957
211.007
319.099
404.644
611.072
726.675
577.644
561.757
535.057
620.472
611.75
495.336
611.54
535.135
752.28
579.078
581.41
323.646
607.303
660.645
565.144
527.818
548.049
923.856
265.869
72.6114
345.009
517.038
868.217
740.63
77.6667
77.9744
59.3894
251.02
62.8397
913.801
1068.94
1072.97
54.394
1368.92
890.384
291.168
666.559
441.908
387.736
422.669
214.728
155.07
626.503
140.265
109.197
203.485
480.738
101.157
129.644
210.265
172.932
360.733
347.647
117.959
706.528
484.105
650.108
55.8147
72.1196
93.5658
113.404
59.5892
58.203
134.126
84.8861
377.955
52.4546
150.774
58.4617
89.9117
96.8095
219.144
89.9935
82.6469
147.022
61.3291
68.204
78.5536
135.567
788.508
103.788
105.114
64.0567
182.613
62.1964
252.354
81.49
276.935
174.653
154.067
726.449
891.08
90.403
330.922
599.476
456.106
94.2884
67.5449
98.4728
95.5824
192.661
855.644
269.892
67.0498
819.325
1429.63
1186.89
168.962
124.547
354.8
723.039
225.564
691.053
436.573
722.627
759.777
653.337
1068.3
2369.05
100.946
256.16
212.44
70.2089
58.8406
58.1199
135.238
89.1356
68.0927
67.1789
66.1349
397.006
350.189
256.663
318.643
221.17
181.338
81.4807
227.975
180.945
373.215
541.56
582.715
85.66
53.7879
81.4479
681.902
1206.92
198.75
829.372
642.133
977.352
531.634
292.153
210.456
59.2592
609.96
363.353
60.4811
202.157
351.61
238.259
204.072
480.367
491.183
603.457
542.819
54.5076
55.0385
55.9152
54.6292
228.583
86.974
1003.18
98.8061
67.7367
75.8453
50.155
119.076
647.666
291.353
424.504
809.23
335.231
253.557
365.809
131.363
96.7912
85.024
211.536
341.816
56.8538
76.9146
768.199
151.31
897.223
625.722
474.677
388.098
1446.99
119.401
1196.67
139.506
655.117
137.765
80.5983
651.874
159.667
602.878
120.98
600.163
748.924
876.369
745.055
1286.89
338.683
1695.96
1004.1
978.589
1297.87
290.153
277.484
105.225
112.379
652.739
395.607
546.651
148.488
440.382
132.495
148.742
316.446
85.6654
84.3949
200.106
377.718
91.8147
457.929
99.923
182.404
45.0501
94.2707
135.577
150.896
383.032
94.0452
88.5707
217.625
93.9354
201.694
75.5919
76.2804
194.422
325.096
366.135
58.1444
49.9061
93.9234
55.5043
53.0239
107.938
68.0615
204.899
124.238
194.008
247.556
196.857
432.841
392.298
281.425
1877.28
422.038
386.963
68.3407
78.7181
74.2462
69.9159
68.6316
138.272
80.5666
46.6695
68.6872
65.5478
93.7881
113.338
80.4626
54.5876
50.8037
77.6287
46.3664
51.0503
50.2927
87.7632
53.0499
66.7965
242.396
70.8682
250.891
386.44
1078.57
354.915
331.295
883.992
370.61
964.845
486.385
427.145
480.597
708.277
118.782
189.723
192.784
147.58
246.818
233.507
308.987
383.198
185.238
342.72
147.723
75.5204
71.0988
71.0317
348.717
77.2692
339.913
95.0958
788.806
97.0109
49.8785
1023.66
77.3055
115.743
477.95
71.393
64.9659
297.84
1434.65
81.7713
72.5657
51.1444
59.8904
58.5529
60.4577
58.4905
439.77
62.6444
69.0554
243.037
384.497
236.314
188.984
516.591
558.316
688.641
1902.78
535.882
90.0179
50.6695
51.1256
48.1598
69.0732
103.989
52.0031
630.092
263.374
332.2
147.555
115.276
104.214
255.141
125.169
122.399
535.525
675.762
286.884
73.8866
63.9038
375.211
246.197
247.587
493.668
432.759
76.9612
64.9182
119.502
434.117
348.568
336.577
188.403
70.0964
65.532
1296.49
1185.35
1971.05
1449.39
822.214
596.304
137.707
135.908
99.4012
722.675
655.371
438.986
558.514
523.239
592.471
1006.18
147.535
156.083
176.193
568.322
648.767
566.708
615.423
305.868
645.658
161.628
161.973
351.036
268.981
58.3306
473.131
566.726
1108.05
548.86
757.197
398.604
55.9672
537.26
57.0448
105.295
90.6314
91.944
173.466
80.6259
491.749
65.4585
113.206
702.432
138.18
303.47
317.27
1152.64
158.318
228.153
467.918
221.6
298.617
232.674
441.194
389.157
387.721
547.475
468.372
571.245
516.33
435.333
494.207
417.472
758.203
510.345
775.761
300.7
599.538
551.609
221.633
202.189
1158
1180.56
495.314
642.802
1594.25
886.977
659.334
1764.83
918.699
118.207
173.131
512.212
736.381
998.526
663.808
636.967
903.658
204.54
54.55
378.488
1931.74
978.963
369.831
476.323
541.563
151.651
111.017
197.225
80.0116
337.773
158.164
358.229
1092.25
51.5348
1034.83
986.124
79.5662
374.336
213.784
56.9463
89.3857
100.193
405.523
1462.46
373.077
371.259
101.505
87.4366
1222.05
94.9852
91.4044
69.5068
116.798
183.827
448.555
360.657
249.66
150.595
298.104
69.3671
67.6146
69.695
67.6875
105.258
321.019
230.819
478.637
476.162
561.588
401.4
197.765
63.3577
588.398
58.9706
55.8559
73.0252
69.3005
59.7189
103.885
100.192
91.3915
204.664
76.7115
460.687
666.525
57.7553
97.7035
68.7706
92.7117
572.074
459.924
304.346
238.763
435.906
76.6792
1589.32
72.4177
2027.45
65.0276
743.098
160.44
188.573
110.849
82.9788
87.4634
370.753
77.5516
81.7117
96.4501
86.9146
82.4298
59.7265
56.5477
1962
108.499
60.5999
868.869
502.055
765.076
65.2691
385.571
61.4913
56.1263
64.6154
353.836
86.6204
56.0737
51.3279
52.3542
352.473
210.649
348.708
300.495
593.859
140.879
280.461
1181.07
68.5624
366.7
605.746
245.244
349.208
888.796
69.4331
114.964
709.851
195.931
423.073
412.744
120.856
335.098
596.329
571.5
1417.71
385.275
636.285
977.28
366.185
64.8259
194.384
73.4559
131.199
984.2
792.918
335.686
630.078
744.203
306.276
452.645
678.667
1286.45
1116.56
616.064
777.576
627.851
891.274
814.987
1516.32
896.812
456.743
697.993
595.882
628.071
53.2389
54.0653
182.587
192.931
815.924
749.56
303.011
440.299
83.5242
70.2587
331.908
118.409
1581.77
344.36
477.043
561.49
338.793
526.336
378.975
1018.61
332.692
428.084
784.417
438.955
351.313
568.52
360.21
204.438
682.417
164.391
254.739
438.515
378.369
483.059
658.944
364.376
467.681
847.337
995.52
425.743
266.037
184.91
310.038
538.323
176.295
87.6949
105.334
124.854
91.4992
229.867
138.452
148.301
95.6076
167.415
236.473
137.785
1076.88
127.538
387.221
365.179
705.919
996.41
1266.51
1066.42
702.476
361.669
599.75
763.901
606.625
522.334
864.788
568.81
412.117
1491.83
807.354
579.527
535.049
316.418
78.6227
190.889
196.564
319.963
80.9204
64.2012
93.369
74.8935
456.657
650.446
265.979
325.159
369.308
308.984
67.7453
62.1352
50.1748
94.2365
71.4977
62.9525
97.7524
49.5679
73.4979
611.359
125.277
53.3263
54.2216
53.4662
444.25
107.296
262.097
1597.84
62.7172
267.948
594.204
685.728
670.065
638.635
463.505
538.961
64.8265
55.2225
55.3685
54.9586
55.2094
66.3786
184.502
1059.82
687.999
443.179
837.846
695.181
529.534
874.54
314.602
68.7819
305.654
47.2563
631.617
674.624
461.309
61.5785
67.4701
117.187
67.1187
87.415
423.907
270.483
417.978
63.3977
70.4035
67.2137
63.0868
453.079
94.4255
106.021
82.9835
97.3695
86.3364
160.755
207.802
94.2581
367.178
330.616
206.29
80.1643
72.2224
107.156
321.259
443.603
685.74
213.72
73.9519
117.241
125.196
72.9821
57.2279
52.673
127.282
70.021
65.2066
73.1671
227.615
149.824
277.149
120.66
507.399
72.5397
90.3463
102.317
64.3705
62.2721
1050.38
48.1918
814.805
85.582
176.169
848.601
75.7057
66.0206
97.168
99.5086
78.8912
1130.99
1096.68
1090.9
768.439
558.178
92.5046
60.6034
1587.42
784.188
922.265
77.7741
275.449
357.468
333.532
97.5713
126.471
201.845
66.8938
70.0779
145.968
864.376
568.158
556.32
624.2
66.6008
310.008
134.235
61.3303
88.7588
228.003
84.4362
56.4086
670.637
374.767
70.129
67.3201
50.8496
132.438
72.2561
287.918
69.4316
224.242
1725.18
928.071
410.684
490.619
218.429
189.63
125.273
595.858
89.5636
494.947
808.062
424.928
149.507
90.6307
100.225
333.656
1099.34
330.807
94.0057
275.296
414.001
541.761
749.983
202.584
1001.84
687.45
1337.99
865.377
782.201
410.359
947.081
166.366
1688.63
425.704
104.74
104.963
129.387
54.1464
1368.26
445.115
216.146
230.428
556.468
813.003
1385.67
627.772
365.308
437.682
157.778
321.884
73.1224
175.216
339.002
379.291
735.141
220.748
243.432
491.654
349.511
899.744
487.711
440.758
191.418
293.599
516.075
505.432
529.761
757.926
377.339
603.509
1356.63
923.257
204.029
1085.16
430.256
152.056
158.395
126.32
86.7072
764.947
173.953
56.2519
59.6091
91.2877
61.5359
134.049
86.2983
765.474
133.383
970.127
331.99
537.882
1024.35
64.9672
314.951
80.2834
464.59
337.854
344.769
223.194
66.9982
78.7767
76.7286
72.8948
66.069
79.7505
63.2941
53.7268
128.223
48.1393
46.4205
54.2251
61.1541
63.2371
84.8424
226.511
285.325
458.54
133.79
524.243
325.478
380.297
270.739
91.7271
69.7761
113.944
90.2732
443.449
204.53
381.715
362.329
252.307
471.482
497.66
77.3081
74.2436
187.037
85.1316
642.046
867.429
144.558
89.068
104.411
107.466
101.506
150.718
175.937
128.794
277.263
469.523
478.449
83.7001
623.027
201.28
362.363
305.037
367.075
247.378
523.308
735.516
103.385
235.942
651.417
490.058
711.579
154.096
531.895
644.701
609.964
597.097
370.139
620.91
386.775
447.616
187.47
627.033
100.654
233.968
842.107
573.791
373.172
355.208
86.1976
82.1869
1557.21
77.9318
79.6308
64.4797
49.6463
46.8671
82.6426
124.139
71.3937
78.3316
77.5767
101.591
288.259
652.1
119.483
94.5518
472.399
312.38
588.625
280.918
504.793
241.848
231.392
70.0158
57.3208
56.0049
80.2549
58.3504
50.7177
146.272
1058.55
1873.93
256.343
573.725
66.5385
94.788
68.5986
361.324
72.8255
63.9442
453.032
419.735
421.681
372.97
78.3556
673.659
1198.63
594.23
471.217
116.718
83.3547
89.087
81.5852
633.638
83.9949
74.5216
839.885
219.681
563.515
630.041
86.4843
85.0627
140.55
73.0682
208.87
250.684
603.985
696.39
109.108
78.2042
74.4628
77.7326
569.878
584.081
140.721
700.872
111.76
620.965
111.453
338.462
130.383
100.213
463.411
747.126
162.465
100.243
86.4272
251.108
198.347
754.722
677.211
606.743
1114.93
516.047
503.32
70.7742
608.297
226.133
503.399
158.434
130.581
69.4046
1192.26
79.7119
294.251
634.489
1048.12
790.065
220.462
94.0416
352.43
460.142
382.592
523.672
144.168
107.427
244.362
381.288
201.039
62.5986
78.7099
95.8239
69.2288
84.501
57.1244
117.017
159.874
150.632
475.587
763.265
1370.7
885.001
1289.98
932.09
1381.97
585.053
1253.72
426.451
591.373
1241.03
1637.54
1548.86
1584.12
1306.41
672.688
193.805
1165.72
1414.88
874.913
820.424
746.319
852.496
223.385
840.487
1160.99
47.6696
789.776
153.72
1231.16
1230.04
266.743
503.32
684.155
808.2
388.971
414.109
272.579
561.591
660.282
95.6045
424.026
109.401
60.8901
68.7702
102.246
83.9398
73.22
46.515
128.581
563.517
67.4904
531.31
187.089
106.669
99.4757
371.697
162.398
315.825
143.766
375.681
812.462
348.51
230.092
1063.49
51.9488
145.581
619.379
541.821
444.384
743.034
450.929
331.713
354.053
114.149
56.3157
455.943
59.758
274.2
53.3784
66.9027
132.562
97.4897
72.6992
776.879
742.96
773.252
853.099
811.535
553.679
755.626
492.932
602.152
493.843
476.801
502.606
625.121
468.814
1953.24
365.959
365.187
465.697
187.369
78.0546
725.629
369.848
770.892
160.305
174.989
510.813
411.671
594.536
523.642
287.225
346.552
486.583
1007.87
102.82
726.583
195.044
693.384
439.62
1119.53
316.751
217.072
236.397
413.46
416.443
474.528
422.787
416.17
234.32
404.856
736.152
742.81
231.545
75.9305
62.3057
57.0515
54.5104
99.285
418.514
375.872
429.135
412.478
133.256
223.402
85.2857
171.676
88.4229
200.353
77.5929
63.5973
52.3385
52.287
57.0792
225.524
67.7782
523.399
98.8585
87.4511
79.2035
1079.45
72.1826
152.075
817.454
747.28
311.89
125.527
162.531
354.102
55.0224
376.871
234.516
820.544
500.145
682.95
616.47
684.598
2099.55
79.1297
340.21
161.227
777.747
54.4472
1671.75
1393.02
336.325
1096.45
762.061
650.678
810.66
431.425
188.013
546.368
165.867
227.951
103.255
216.319
116.363
82.2579
63.305
171.227
79.3415
392.945
131.506
100.138
113.9
409.611
100.019
90.0527
59.8789
69.9998
88.9799
288.328
74.7703
344.511
341.616
563.033
138.475
105.914
90.0545
80.0609
77.2404
529.312
578.19
160.64
54.3982
46.3514
49.7392
57.9009
57.561
94.5012
109.844
64.6652
240.632
225.278
49.2774
331.492
49.3188
574.475
2860.86
109.917
55.8057
116.193
272.768
334.398
292.084
612.599
616.762
309.766
541.38
82.237
62.765
75.9583
50.7499
168.668
454.338
106.832
525.625
532.788
338.56
840.192
1153.92
78.928
97.8725
441.38
344.098
161.648
157.814
59.5894
111.995
45.6098
127.96
216.746
133.967
123.198
577.612
1391.78
1411.2
648.947
670.935
124.394
68.6389
83.369
69.065
161.175
77.6003
161.614
1326.01
674.245
863.132
873.874
927.387
71.2465
70.9619
66.4899
113.522
735.697
445.18
510.334
121.512
446.842
262.408
287.869
283.236
125.183
417.661
547.456
356.71
293.495
422.027
95.359
238.05
215.55
187.689
181.96
295.447
113.281
92.7655
264.968
202.798
59.8499
120.672
683.621
328.2
713.66
63.0775
55.4808
72.7175
53.6742
65.736
117.011
66.4885
83.6336
46.6254
124.731
53.3078
57.3308
54.2733
91.1566
85.7061
72.4051
786.707
624.236
570.753
286.428
344.168
76.3546
137.129
96.6098
155.155
241.526
323.388
251.133
1697.97
568.098
223.776
329.882
524.959
947.673
557.818
108.093
236.354
180.161
156.732
629.044
46.6817
1482.07
306.339
257.385
68.6851
127.706
70.9884
77.3084
97.9685
51.6708
67.4433
67.7505
67.7541
90.4701
102.284
167.568
85.2864
64.2327
1067.29
531.222
660.958
357.469
340.402
252.605
652.804
1377.88
540.477
77.2766
1646.82
1205.08
521.583
77.1517
663.35
1150.49
1334.83
1281.34
938.51
556.732
122.717
87.3501
808.935
506.355
789.983
648.993
695.879
92.5914
100.967
81.5669
104.657
503.923
66.0969
67.9833
1031.59
310.881
608.267
1100.43
386.079
711.164
471.493
161.135
158.392
744.445
382.884
422.296
772.14
982.366
125.578
88.0616
123.019
221.554
217.232
510.608
1129.78
480.238
1282.33
559.494
62.0283