/*--------------------------------*- C++ -*----------------------------------*\
| =========                 |                                                 |
| \\      /  F ield         | OpenFOAM: The Open Source CFD Toolbox           |
|  \\    /   O peration     | Version:  2506                                  |
|   \\  /    A nd           | Website:  www.openfoam.com                      |
|    \\/     M anipulation  |                                                 |
\*---------------------------------------------------------------------------*/
FoamFile
{
    version     2.0;
    format      ascii;
    arch        "LSB;label=32;scalar=64";
    class       surfaceScalarField;
    location    "0.0263738";
    object      phi;
}
// * * * * * * * * * * * * * * * * * * * * * * * * * * * * * * * * * * * * * //

dimensions      [0 3 -1 0 0 0 0];

oriented        oriented;

internalField   nonuniform List<scalar> 
7606
(
0.000613223
-0.00116732
-0.000252748
0.000806848
-0.00220659
-0.00375522
0.000539189
0.00542262
-0.0334493
-0.00374995
0.0335652
-0.000973887
-0.000419134
-5.2308e-05
0.00144533
0.000976385
-0.000500006
0.00107692
-0.0015533
-0.00240879
-0.00609331
-0.00199766
0.0104998
0.000273431
-0.000270934
0.00183001
-0.00308796
0.0189986
0.00822399
-0.0183789
-0.00884368
0.00131791
-0.0031197
-0.00962154
0.0114233
0.00182003
0.00499071
0.0122084
0.00102443
-0.00427258
-0.000258513
0.00350666
-0.00173742
0.000854757
0.00155159
-0.000668923
-0.00164478
-0.000704606
0.000611964
5.3023e-05
-0.000724481
1.84186e-05
0.00065304
0.000654936
9.25623e-05
-0.00042304
-0.000324458
0.000153694
0.000430487
-0.000793488
0.000209307
-0.0162547
0.0108636
-0.00402925
0.00942031
0.000904277
0.000647739
-0.00060748
-0.000944536
0.00128307
-0.00180465
0.00828887
-0.00776729
-0.00779594
0.00947676
-0.000397752
-0.00222834
0.000168719
0.00229683
-7.96354e-05
0.00319401
-0.0425029
0.00278276
0.00387456
6.59866e-05
-0.0067233
0.00638915
-0.000927309
-0.00469744
-0.000764405
-0.000405522
2.9187e-05
0.000506742
-0.000130407
-0.00594577
0.00792965
0.000798875
-0.00161466
0.00692788
-0.00114597
-0.00416725
0.0219059
0.00894274
-0.000462853
-0.0021821
0.0024271
0.000217847
-0.00355027
0.00225622
0.00265655
-0.00136249
-0.000215246
-0.00206869
0.00255561
-0.000271669
0.00170724
-0.000867636
-0.00224836
0.00140876
-0.000563823
0.00187767
0.0023638
-0.00367765
0.00102744
-0.000402614
-0.000367388
-0.000257441
-0.00978435
0.0040959
0.00198791
0.00370055
0.000345796
5.91883e-05
-0.000404984
0.00132459
-0.000860403
0.00122284
-0.00168702
-5.82162e-05
-3.25878e-05
0.000356394
-0.00026559
0.000398328
9.50434e-05
0.000276923
-0.000770295
0.000537273
-0.000441819
7.2606e-05
-0.00016806
0.00227667
0.000874423
-0.000710604
-0.00244048
-0.00201574
-0.00122338
0.0024192
0.000819922
-0.00216897
-0.000660001
0.000813224
0.00237539
0.00232689
-4.72386e-05
-0.00465505
-0.0004915
-0.00172573
0.000993855
0.000362515
-0.000794861
0.00259369
-0.00216135
0.00276877
1.29508e-05
-9.81892e-05
2.31676e-05
-2.32051e-05
9.82266e-05
-6.02063e-05
0.00022668
0.00010727
-0.000273743
-0.00373516
0.000551786
0.000153227
0.00303015
-0.00018038
2.19847e-05
-0.000173024
-0.000494283
0.000420787
0.000246521
-5.28115e-05
0.000181914
8.60208e-05
-0.000215124
0.000379737
0.000176073
-0.000608621
-0.000196288
0.00028429
0.000557547
-0.000645549
0.00465847
0.00836143
-0.00831572
-0.00470417
-0.00126633
-0.00251545
0.00255318
0.0012286
0.000411809
-0.00041281
-0.000356474
0.000357475
0.0125702
-0.00293499
-0.00700688
0.000452391
0.00453166
0.00161084
-0.00659488
0.00212112
0.00281062
0.00174117
-0.0265323
0.026189
0.0003433
-0.00282445
-0.000475245
0.00252953
0.000770158
-0.000447015
-0.0028559
0.000478471
0.000197278
0.00123945
-0.00121763
-0.0002191
0.00209188
-0.00198645
0.0110668
-0.0111723
-0.000944165
0.00993525
0.00319806
-0.0121891
-0.00334406
-0.0015363
0.0022002
0.00268015
-0.000260223
-3.35886e-06
-8.49404e-05
0.000348522
0.00290695
-0.00421825
0.000292431
0.00101887
-0.00056348
0.00020237
-0.000416705
0.000777814
0.000552644
-0.000280551
-0.000241442
-3.0651e-05
-0.00185651
0.0027511
-0.0117964
0.0109018
-0.0164031
0.0117998
0.00619913
-0.00159581
-0.0034853
-0.00674238
0.00186895
0.00835874
0.0118958
0.0140741
-0.00758718
-0.0183828
0.0013827
-0.00364677
0.00230558
-4.15149e-05
0.000557447
-0.000372746
-0.000204045
1.93434e-05
0.00243683
-0.000239747
-0.00265993
0.000582283
-0.00020583
0.000428969
-0.000805422
0.000524141
0.000166872
-0.00010873
-0.00493963
-0.000172889
0.00724861
-0.00213609
-0.0064802
-0.0043268
0.012822
-0.00201499
-0.000415787
-0.000186636
5.32003e-05
0.000549223
1.84576e-05
8.98964e-05
-0.000661759
0.000116094
0.000551977
-6.31286e-06
0.000587487
-0.000386804
-3.38107e-05
0.000165458
0.00521974
-0.00170603
-0.00367916
0.0271905
-0.00617564
-0.0117156
-0.00929922
0.00558647
-0.00391125
-0.000442635
-0.00123258
0.00361004
-0.00540876
0.00223605
-0.000437324
0.00128872
0.00245828
-0.00153334
-0.00221366
0.000627439
0.00541404
-0.00581759
-0.000223897
-0.00346364
-1.41951e-05
-0.00871786
0.0121957
-0.00130142
-0.00308652
0.00355107
0.000836869
-0.00424688
-0.000114235
0.00209276
0.00226835
0.000455017
3.81371e-05
-0.000119215
-0.000373939
-0.00984475
0.000477863
0.00944482
-7.79338e-05
-0.000160043
0.00129189
0.0043959
-0.00552774
-0.000487103
0.00848206
0.000100714
-0.00809567
0.00713163
0.000179241
-0.00819745
0.000886573
0.00242834
-0.00106861
0.00301146
0.0020101
-0.00477776
-0.0024209
0.00518856
0.00215494
0.000235629
-0.0030098
0.00061923
-0.000415096
0.00259056
0.000618919
-0.00279438
-0.000342356
0.00165144
0.00188332
-0.0031924
0.0154142
-0.00693396
-0.00575216
-0.0027281
-0.000197902
-0.000249735
0.000687444
-0.000239807
0.00595656
-0.00497607
-0.00470535
0.00372486
0.00555294
0.00221308
-0.00976627
0.00200025
-0.000949921
0.002571
-0.000794303
-0.000826772
0.0631813
-0.0345559
-0.024205
-0.00442048
6.01671e-05
0.00275807
0.000650098
-0.00346833
-0.000957697
0.00303065
0.000122243
-0.011074
0.0125027
-0.000192925
-0.00123582
-0.00330963
-0.000483649
-0.000412636
0.00420591
0.00319657
-0.00155759
-0.000484354
-0.00115463
0.000612798
-0.00117177
0.000234656
2.98383e-05
-0.000264494
-0.00208132
0.00179285
-0.00426059
0.0074167
0.00344342
-0.00614518
-0.00471494
0.00288828
0.00179154
-0.0025959
-0.00208392
-0.000479068
0.00156359
0.0016547
-0.00183993
-0.00217772
0.00236295
0.00586088
0.0017822
0.00140707
-0.00147545
-0.000299491
0.00497151
0.00109101
0.00107589
0.000431455
-0.00259835
-0.000173381
-0.00116691
0.000561183
0.000779107
-0.00346083
-0.00285655
0.0020705
0.00296411
-0.00120464
-0.000558418
-0.00120105
0.0318206
-0.00704526
-0.00887971
-0.0158956
-0.000461809
0.00143784
-0.000232185
-0.000743841
-0.000912164
0.000290358
-5.31997e-05
0.000675006
-0.00816006
0.00792059
-0.0021169
0.00235637
0.000230225
-0.000837249
-0.000283174
0.000890198
-0.00338133
0.00164942
0.00257922
-0.000847312
0.00217359
-0.000681353
9.25215e-05
-0.00158475
-8.36193e-05
-0.00197731
-0.000755369
0.0028163
0.00412416
-0.00500635
0.010584
-0.00970179
-0.000789393
-0.000185592
0.000115942
0.000859043
0.000671899
-0.00534061
-0.00143653
0.00610524
-0.00962388
0.0145054
-0.00966729
0.00148557
0.00228736
0.000554256
-0.00432718
-0.000978659
0.000626881
0.00050209
-0.000150311
0.00414797
-0.00448032
-0.00288502
0.00321737
0.0139325
0.00239294
-0.0159369
0.000722002
-0.000824583
-0.00188702
0.0019896
0.00202979
0.000196342
-0.00201664
-0.000209497
-0.0137764
0.00145239
0.0146106
-0.00228654
0.00327868
0.000845717
0.00654516
-0.0106696
0.0261486
-0.0277419
0.00159327
-0.00262684
0.00231864
0.00267281
-0.00236461
-0.00125174
-0.000925812
0.00138717
0.00079038
0.00261336
0.00839142
0.0072156
-0.00140468
-0.00182404
0.00438188
0.00659511
-0.00994746
-0.00102954
-0.00160322
-0.00318754
0.00308607
0.00170469
0.00277903
0.0015008
-0.00318882
0.000472219
0.00261354
-0.00458122
0.00149546
0.00405784
-0.0017354
-0.00420332
0.00188088
-0.00169624
0.00327439
-0.00104492
-0.000533238
0.00905223
-0.00805502
0.00307804
-0.00407525
0.00174481
-0.00997845
0.0111722
-0.00293852
-0.000300359
-0.00544304
0.0104019
-0.00961896
0.00860769
-0.00546893
0.00161253
-0.00309667
0.0020873
-0.00060316
-0.000318826
0.000176134
0.000695101
-0.000552408
0.00207249
0.00678537
-0.00676599
-0.000485914
0.00215289
-0.00551209
0.00520142
0.00456339
-0.00425272
0.0181335
-0.00781306
-0.0226982
0.0123778
-0.022254
-0.0278329
0.006392
0.000537678
-1.88664e-06
-0.000235897
-0.000299895
0.000662482
-0.000229627
-0.000709582
0.000276727
0.00164099
-0.00489132
-0.00581398
0.00906432
-0.00601624
-0.00170262
0.00235415
0.00536471
0.0019232
-0.000389915
-0.00403611
0.00250282
0.0116335
-0.0241689
0.0306689
0.00162804
-0.00353308
0.0033906
0.00198957
0.000437244
-0.00241719
-9.62986e-06
0.000458907
0.000201241
-0.000248339
0.00214593
-0.00230098
-0.00377975
0.00567171
-0.00336371
0.00171241
-0.00402042
-0.00670379
-0.00173319
0.00567534
0.00276164
0.000527314
0.00243962
-7.86552e-05
0.00208948
-0.00352707
0.00131959
0.000117998
0.0341454
-0.0247927
-0.00417921
-0.00517353
0.000554552
0.00278379
-0.000619425
-0.00271892
-0.0398006
-0.00699174
-0.00310858
0.00466529
-0.00284214
0.00128543
0.0039743
-4.22068e-05
-0.00349324
-0.000438854
0.00124062
-3.81319e-05
-0.00939959
0.00819711
-0.0154563
0.00828672
0.00686197
0.000307649
0.00194117
0.00247103
-0.0117189
0.00730671
-0.000680929
0.00210407
-0.00438491
0.00296177
-0.00170207
0.0114632
-0.00194532
-0.00198089
0.00328854
0.000637674
0.00416312
-0.000712104
-0.00426724
0.000816226
0.000879353
0.00244259
-0.000633686
-0.000398969
0.00310557
0.00145652
0.00127541
-0.00303258
0.00917387
0.00031407
-0.000397596
-0.000351183
0.000434709
0.00674929
-0.00121483
-0.00507323
-0.00046124
-0.0015155
-0.00266091
0.00243455
0.00174185
0.00876359
-0.00965613
0.00186895
-0.000976398
2.2382e-05
0.0010673
-0.00239109
-5.33831e-05
0.000154669
0.000122424
-0.00022371
2.33973e-05
-0.00126535
0.000263296
0.00145568
0.00191283
0.000783871
-0.00417365
0.00258875
0.00323385
-0.00164895
-6.91834e-05
7.54736e-05
-0.000411812
0.00128309
0.00219199
-0.00383845
0.000363368
0.00179105
-0.00265055
-0.0013226
0.0119256
0.00305957
-0.0296248
0.0146396
8.85578e-05
0.000298094
-0.000489272
0.000102621
-0.00337732
0.00186407
-0.011354
0.00113918
0.000864329
-0.00221496
0.000211452
0.00046133
-0.000119628
0.000317843
-0.000659545
-0.0122256
0.00848303
0.00784289
-0.00410033
0.000252788
-6.70644e-05
-0.00050455
-0.000322473
0.00355028
-0.00223976
-0.000988053
-0.00360067
0.00430625
3.49543e-05
-0.000740535
-0.0116098
0.0117701
0.00414106
-0.00430136
-0.000272564
-0.00198597
-0.0037577
-0.0109809
0.0156705
0.0135273
-0.0182169
0.0158927
0.000700102
-0.00900739
-0.00250246
-0.00962588
0.00930059
0.00282775
-0.000692955
-0.0126949
0.00267084
-0.00218495
0.00104913
-0.00153502
-0.000417841
0.000775821
0.000361775
-0.000719756
-0.000426564
0.000966687
-8.79942e-05
-0.000452129
-0.00460756
-0.00239646
0.00206439
0.00179734
-0.00394491
0.00261978
0.00174939
-0.00108678
-2.48857e-05
0.0012082
-0.000904601
-0.000278711
-0.00116408
-0.00257768
-0.00405418
0.00173515
-0.00491307
0.00719568
-0.00401776
0.00921692
0.00271374
-0.00998949
-0.00015903
-0.00026464
0.00042367
0.00416054
-0.000449867
-0.00520687
0.0014962
-0.00723733
-0.00196684
0.0120433
-0.00283912
-0.00847516
-0.00608813
0.019284
-0.00472067
0.00420399
0.00105265
-0.00594778
0.000691144
0.00125976
-0.00140019
0.00334354
-0.00320311
-0.0113251
0.00034018
-0.0149187
0.000540232
0.000602043
0.0027331
-0.00212768
0.00100759
-0.00161301
0.000283115
0.00600517
0.00628195
0.00473031
0.00200214
-0.00854769
0.00181524
-0.000829951
-0.00256275
0.00453431
-0.00114161
-0.00412294
-0.00300714
0.0028913
0.00423878
0.0122481
0.00466903
-0.00233339
-0.0145838
-0.00232319
0.00505478
-0.00480142
0.00206983
0.00141414
-7.09375e-05
-0.000608883
-0.000734316
-0.0013494
0.00248191
0.00148903
-0.00262154
0.00255806
-0.00204934
-0.00148673
0.00097801
0.000360296
0.00022727
7.49153e-05
-0.00275704
-0.000412212
-0.000212078
0.0059967
0.00209596
0.00207381
-0.0101665
-0.00183551
-0.00126485
0.0012709
0.00182945
-0.00216512
0.00031208
0.00237639
-0.00052335
0.00519987
-0.000531367
-0.00128846
-0.00338004
-2.5957e-05
-0.000367786
0.000393743
0.00067558
-0.000140931
-0.000214773
-0.000319876
-0.0012216
0.000465855
-0.00213018
0.00288592
0.00131622
7.09043e-05
0.000617188
-0.00200431
0.000162072
-0.00372698
1.46368e-05
0.00177012
-0.000628384
-0.000242764
-0.000898974
0.0002284
0.000525794
-0.000643252
-0.000110942
0.000148829
-0.00235177
-0.00114111
0.00167225
0.00238903
-0.00168837
-0.0023729
-0.0265287
8.65801e-05
0.000880487
-0.000890941
-7.6126e-05
-0.00144739
0.00113997
0.00249128
-0.00218387
0.00619371
0.00130905
-0.00391
-0.00359276
-0.00155134
0.000670982
0.00108901
-0.000208651
-0.00388659
0.00137821
0.00264575
-0.000137369
-0.00207763
0.00445916
-0.00188717
-0.000494365
0.000945888
0.000656186
-0.00116111
-0.000440968
0.00255632
-0.000312653
-0.00220016
0.00285146
-0.00246946
0.00181816
0.000422094
0.000181759
-0.000373276
-0.000230576
-0.000672978
-0.000506235
0.00102495
0.000154267
-0.00227144
0.00646388
-0.00436533
-0.0020364
0.00181084
0.00254275
-0.00231719
-0.00262441
-0.0012607
0.00361255
-0.00193388
0.00226098
0.000811603
-0.0011387
0.000579809
-0.00135228
0.00284921
-0.00207674
-0.00664357
0.00151075
-0.0044024
0.00953522
-0.00197895
-0.0015112
0.00132502
0.00140199
-0.00123158
0.00375094
-0.000583479
-0.00112863
0.000764243
0.000947865
0.000386685
-0.000626564
-0.00109092
0.0013308
0.0018416
-0.000814001
-2.38813e-05
-0.00100371
-0.000241259
0.00247279
-0.00267494
0.000443413
-0.000999663
-0.000123327
0.00241171
0.00140279
-0.001021
-0.000381788
0.00279196
-0.000770785
0.000152406
0.000443761
0.000169801
-0.000786944
-0.000103151
0.00047242
-0.000499235
-0.000429305
0.000270275
-0.00566349
-0.0125579
0.00661159
0.00294124
0.00166727
-0.00329228
-0.0117918
-0.00724735
-0.00796341
0.00792633
0.000269851
-0.000232769
-0.0104593
0.00258663
0.0059592
0.00191347
0.00334315
0.0003001
-0.0030887
-2.42385e-05
0.000786399
0.00183272
0.00545204
-0.00694659
-0.000338173
0.012465
-0.000294026
-0.00615014
-0.00602083
-0.00148062
0.00400667
-0.00264424
0.000118186
-0.00128903
-0.00133268
0.000421552
0.00121047
-0.00162095
0.00154966
0.00111498
-0.00489432
0.00113922
0.00264011
0.00431625
-0.0186035
0.000113668
0.0141736
-0.000125528
0.00118909
-0.000159289
-0.000115787
0.000169929
0.000329284
-0.000383426
0.00192096
0.00111262
-0.000925801
-0.00210778
0.000676875
0.00113955
-0.000262306
-0.00155412
-0.00140758
-0.000383638
0.00179402
-0.000470874
-0.00113386
0.000629062
0.000975669
-0.00136775
0.000858821
0.00274929
-0.00224036
-0.000171332
-0.000324961
-0.000259579
0.000755872
-0.00517645
0.00975857
0.00365655
-0.00823866
-0.00504756
0.00660377
-0.000884321
0.0138502
8.10536e-06
-0.00464144
0.00499044
0.00955133
0.00376297
0.00133574
-0.0074219
0.00368112
-0.00315936
-0.00135172
-0.000208504
0.000251554
0.000447901
-0.00049095
0.00053111
-0.000668793
0.000291377
-1.35163e-05
1.50504e-05
0.00222677
-0.00298997
0.00221888
0.00013896
-0.000128613
-1.03469e-05
0.000135929
0.00545635
4.30722e-05
0.000283964
-0.000327036
0.00145517
0.0020745
-0.00214697
0.000717802
0.000119742
-0.000399437
-0.000438107
-0.000400988
0.00144067
-0.00119503
0.000155348
-0.000307016
0.000471801
0.000311257
-0.000476043
-0.00232522
0.00190145
-0.00284608
0.00326985
0.000308588
0.000482836
-0.000529245
-0.000262179
0.00038951
-0.0027594
0.00257747
-0.000207584
0.000663508
0.00430707
-0.000463255
-0.00450732
-0.00102132
-0.00326846
0.000828952
-0.000205308
-0.000272082
-0.00128775
0.00176514
-0.000239893
-8.39422e-05
-0.000380701
0.000704536
0.00108877
-0.000387818
-0.00170061
-0.000541421
-0.000440808
0.002378
-0.00139577
-0.00560679
0.00308768
0.0117549
-0.00923574
-0.000682746
0.00048553
0.00190591
-0.0017087
-0.00132772
0.00234422
0.000469553
-0.00148606
-0.000760366
0.000242039
0.000700602
-0.000182275
-0.00176189
0.00314941
-0.000566232
-0.000821295
-0.00314448
0.00690163
-0.0089336
-0.00393809
-0.0138263
-0.00188887
0.0196533
-0.00138182
-0.0211973
0.0190781
0.00350098
-0.0083712
-0.0134199
0.0193823
0.00373763
-0.000877442
-0.00140502
-0.000561908
-0.00016333
-6.4155e-05
0.00447171
-0.00195323
0.00101999
-0.00353847
-0.000349383
0.000282316
-9.62921e-05
0.00016336
0.0014556
-0.0014906
0.000131927
-9.69269e-05
0.00371566
-0.000584643
0.0122832
0.00215549
0.00035068
0.00176848
-0.00587938
0.00768035
0.00419573
-0.00338241
0.00421113
0.00448435
-0.00531307
0.00472772
0.00138688
0.00202546
-0.00814006
0.00233449
-0.00731102
0.00797107
-0.00299454
0.0040647
-0.0133054
0.00336128
-0.00140461
0.00132817
0.003764
-0.00368756
0.00460365
-0.00711804
0.00110978
5.05588e-05
0.000509698
0.0034729
-0.00403316
0.000608009
-0.00383757
0.00328012
0.00339698
-0.00331764
0.000430365
-0.00221737
0.00165453
0.00100936
-0.00044652
0.000415633
-0.00205365
0.00224602
0.00138797
-0.000982706
-0.00449477
0.0040895
0.0258776
0.0198494
-0.0338014
0.00033016
-0.00252002
-0.000328994
0.00251885
-0.00144118
-0.00100375
-0.000665173
0.00311011
-0.00253023
0.00278612
0.00100202
-0.00125792
0.00447488
-5.5524e-05
-0.00408919
0.000295823
-0.000295533
-0.00056377
-7.08276e-05
0.000754608
-0.000387958
0.000494716
0.000324814
-0.00050942
-0.00031011
-7.79236e-05
0.000116225
0.00042673
-0.000465031
-0.00108976
0.000908651
-0.000114429
0.00121588
-0.000365784
0.00156604
-0.00241613
0.00281751
0.000521855
-0.00212348
0.00183107
-0.00514272
0.00422547
-0.000913825
0.0025017
-0.00179074
-0.00215214
0.00131677
-0.00276937
0.00108681
0.00858875
-0.00335773
-0.00503956
-0.000191459
0.00368473
0.00489273
1.12908e-05
0.00421868
0.00223165
-0.0044601
-0.00199023
0.00693952
-0.00465832
0.00193748
-0.00228014
0.00586194
-9.93582e-05
-1.0253e-05
4.11835e-05
6.84277e-05
-0.0025622
-0.000245704
0.00519239
-0.00327152
-0.00211233
-0.00121252
0.00583133
0.000573584
0.00101331
-0.00205637
0.00215805
-0.00214791
-0.0010643
-0.00168211
0.00216856
0.00083627
-0.00439985
0.00139502
-0.00129947
0.0012412
-0.00118708
0.00124535
-0.000944731
-0.00196027
-0.000740524
0.00364553
-0.000284138
0.000180987
0.00325958
-0.00761072
5.25678e-05
0.00956825
0.00592629
-0.00430652
-0.00923049
0.00268201
0.00186161
0.000541949
-0.00508557
0.00180897
-0.00398151
0.00126055
0.000911985
0.00288646
-0.00356911
0.00336466
0.00475131
0.00156523
0.00341551
0.0532719
-0.0518338
0.0164874
0.0037261
-0.0158972
-0.0450413
0.0484568
-0.0117942
0.00220198
0.0255728
-0.0159805
-0.0155316
-0.0279427
0.0153713
-0.0159455
0.00866485
-0.00809064
0.000617112
0.000500989
-0.000674339
4.98729e-05
0.000542022
4.01862e-05
-0.000412117
0.00106334
-0.000691408
0.00089532
0.00196357
-0.00575971
0.00049928
0.00628486
0.000538437
-0.000620036
7.24937e-05
9.10591e-06
-0.00500747
-0.00661244
0.0058602
0.00259619
0.000622319
0.00105056
-0.00426907
0.000584194
0.00847826
0.00195753
0.00188232
-0.00110849
-0.00273137
0.00450878
-0.00355656
-0.000288711
0.0028521
-0.000940791
0.000684882
0.000165805
-0.000351048
-7.49796e-05
0.00171584
-0.000441212
-0.000342743
-0.000931887
0.000126255
3.9286e-05
-0.000136354
-0.000779927
0.000972953
-0.000385656
0.00019263
0.000591136
-0.000281076
0.000376672
-0.000686732
0.00572223
-0.00696927
-0.00648046
0.0077275
-0.00226493
0.00275711
-0.00155524
0.00106305
-0.00292153
0.00254941
-0.00293752
3.99159e-05
0.00019474
0.00122027
-0.00246422
-0.018387
-0.00379627
0.000633482
-0.000561595
0.000153443
0.000488304
-8.01523e-05
-0.0119318
-0.001602
0.00920695
-0.000276127
0.000758561
0.000260854
-0.000743287
-0.00465657
-0.0115934
0.0043182
0.000781869
-0.000398443
-0.000581328
0.0023231
0.0129766
-0.0115841
0.00876441
-0.0144943
0.0137512
-0.0113931
0.000951241
-0.00330926
-0.00029281
-6.64037e-06
0.000273614
2.58364e-05
0.000158869
-0.00369216
-0.00113823
0.00467152
0.00249805
-0.000548124
-0.0009879
-0.00337087
0.000666603
0.00275972
0.00269885
-0.00250246
-0.00295612
-0.0025946
0.00585576
-0.000501436
0.010707
0.00392458
-0.00121734
-0.0019416
-0.00015873
0.00168523
0.0123207
-0.00621207
0.00248925
-0.00859785
-6.87861e-05
-0.0010709
0.00155634
-0.000416656
-0.0515754
-0.00365037
0.0552258
0.00575391
-0.00131972
0.00128383
0.0038452
0.000624884
-0.00180748
0.0019259
-0.00274284
-0.000279991
-0.000934352
-0.00071954
7.99542e-05
0.000128201
-2.83951e-05
-0.00017976
6.48494e-05
-0.000327821
0.0027248
0.00014483
-0.000298633
4.09363e-05
-0.000887161
0.000846224
6.94038e-05
-0.00102832
0.000222869
0.000736045
-0.00193238
-0.00314334
0.00308148
0.00199423
-0.00247376
0.000486204
5.51792e-05
0.000598556
-0.00375128
0.00134524
0.00126829
0.0024493
-0.00175342
-0.00196417
0.00337904
-0.00149361
-0.000617137
0.00269065
0.000906245
-0.00132023
0.00212045
-0.000584708
-0.000330271
-0.00120547
0.00142428
0.0011547
0.000111662
0.018579
-0.0238182
0.0166293
-0.0113901
0.00676543
-0.00355343
-0.00513724
0.00192524
-0.000428748
0.00379231
0.00435454
-0.0077181
0.003543
0.000304792
0.00441511
-0.00146942
-0.00348338
0.0011613
0.0037915
-0.00116894
0.000296947
-0.000710496
0.00158249
0.000645365
-0.0017921
-2.22131e-05
0.00189253
-0.00178666
0.000539492
0.000460154
-0.000842154
-0.0005359
0.0009179
-0.00135119
0.00266611
-0.00116044
-0.000756518
0.0022139
-0.00127494
-0.00123669
-0.0241796
0.016292
-0.0231995
0.000803741
-0.000951517
0.000359953
-0.000212177
0.000488856
0.000339599
-2.47141e-05
0.00107354
0.00182547
-0.00118317
-0.0007624
0.00330359
-0.00334529
0.000804101
-0.00071333
-0.00136334
0.00340851
-0.00133183
-0.00115879
-0.00105966
0.00150512
-0.00198215
0.000175245
0.00450575
0.000290398
0.00249587
-0.00444093
0.00165467
0.00215084
0.000564253
-0.00229341
-0.000421682
-2.72699e-05
0.000216358
0.00264886
-0.00283795
0.00123158
0.00415933
-0.00410781
8.91933e-05
-0.00363517
0.000791755
0.00275422
0.000924038
-0.00109287
0.000239735
-0.000758079
0.00124359
0.000277783
0.00117599
-0.00314427
0.00460198
0.000734277
-0.00134525
-0.00373652
0.00231868
0.00276309
0.00117759
-0.00146918
-0.002303
-0.00103067
-0.00155572
0.000879805
0.00170658
0.000853232
-0.000576018
-0.000994122
0.000716908
-0.00180912
0.000502319
0.000383117
-0.000838458
0.00288368
0.0100679
0.00918072
-0.00833567
0.000175391
0.000407046
-0.000493879
-0.00061015
0.00119394
-0.000543603
0.000947909
-0.000124374
-0.000933247
0.000109713
3.7832e-05
0.000153734
-0.000498581
0.000448688
-6.08522e-05
0.000169611
-0.00130898
-0.000307933
0.00318514
-0.00156823
0.00051878
-0.000166477
-0.000592197
0.000154614
0.000392058
-0.000417927
-0.000128745
0.0016245
0.000618852
-0.00339629
0.00115294
0.00173124
-0.0013475
-0.000186462
0.000517506
0.00281195
0.000534147
-0.0038636
0.00043365
0.00227629
-0.00219244
-0.000347077
0.000656164
0.0019519
0.000450923
-0.000871973
0.000243145
0.000177906
0.00286435
-0.00323314
-0.00941556
-0.00518927
-0.00458248
0.00842402
0.00134773
0.000948727
-0.00270203
-0.00256816
0.00432147
-0.000892249
0.0109071
0.00398628
-0.00362625
0.00480593
-0.00516595
0.00149034
0.00294936
-0.00348408
-0.000955628
0.00788227
0.0123353
-0.0161528
0.00641175
0.00320351
-0.00859986
-0.0010154
0.000356586
-0.00317275
-0.00277317
0.00558934
-0.00138896
0.00780163
-0.00919699
0.00278433
-0.002355
0.0019295
-0.00133639
-0.00100878
-0.000922888
-0.000616075
0.00254774
-0.000860379
6.79158e-05
0.00254478
-0.00175232
-0.000564726
-0.00157578
0.00298284
-0.00165335
0.00304409
0.00238886
-0.0037796
-0.00508223
0.00909982
0.000106578
0.00676908
0.00348369
-0.0130413
0.00278855
-0.00617221
0.00976824
0.00139441
0.00369444
0.00684043
-0.00376578
-0.0070575
0.0106436
-0.0243693
0.0151156
-0.00305273
0.00758174
0.00658208
-0.00041267
-0.00549551
-0.00608992
0.00627983
0.00379637
0.0114079
-0.00743503
-0.00697508
0.00300217
-0.00385874
0.00241716
-0.00218056
0.00362214
0.00113812
-0.00354424
0.00117143
-0.00655124
0.00892405
-0.00223703
-0.00946727
-0.00327547
-0.00112213
-0.00246357
0.00686117
0.00604392
-0.0030767
0.000413493
-0.00338071
-0.00867951
-0.00206022
0.00513294
0.00147033
0.00292024
-0.00977391
0.0217819
-0.00340569
-0.00396276
0.00420319
-0.00331713
0.00165974
-0.00113182
-0.000144801
0.00098078
0.000398952
-0.0053425
-0.00741402
0.00230505
0.0047143
0.000394674
0.00473025
-0.00370435
-4.51215e-05
-0.0041872
-0.00614401
0.00552145
0.00480975
0.000631579
0.00146457
-0.00628335
0.00444024
-0.00425255
-0.00208716
0.00189947
0.0419125
0.00123175
0.00423019
0.000500502
-0.000290453
-0.000595295
-0.00922063
0.00367192
0.0014765
-0.00235885
-0.00339022
-0.00124803
0.0115375
-0.004768
0.00585064
-0.00947146
-0.00301396
0.00663478
-0.00420466
0.0127505
-0.00269518
-0.000291926
-0.00336759
0.00513601
-0.00123499
-0.00794515
-0.000291322
0.00157071
0.00392214
-0.00342036
0.00173621
-0.00877277
0.0133073
-0.00627075
-0.00502528
-0.00465319
0.0114147
0.00347764
0.000125549
0.000905593
-0.00475584
0.00320819
-0.0108674
0.00262723
0.00387035
0.00436982
-0.00119821
-0.00969963
0.0113574
-0.000459553
-0.0024534
-0.00637816
0.00347306
0.00357408
-0.000668982
-0.0114435
0.0250789
-0.00880729
-0.00482814
0.00130928
-0.00131314
0.0021588
0.0073263
-0.0100058
-0.00876392
-0.00609171
-0.00703528
0.00347086
-0.00369473
-0.00705018
0.00617498
0.0115934
-0.00839044
-0.00937799
0.000478502
-0.00251155
0.000744018
0.000140772
0.00114546
-0.000504706
-0.000781525
-0.000893387
-0.000102403
8.3626e-05
0.000993989
-0.000815877
-0.00074002
-0.000439913
-9.81571e-05
0.00250474
-0.00196667
0.00216681
-0.000762982
-0.00173162
0.000327801
-0.0039623
0.00833874
4.00297e-05
-0.00659493
0.00368944
0.00876501
0.0259875
0.0109228
-0.00971985
-0.0163577
0.0203892
-0.00577177
0.00185308
0.0018175
-0.000812364
0.000888245
0.000848158
0.000146733
0.000819122
-0.000258627
0.000873192
-0.000146027
-0.00050649
-0.000220675
0.000652373
0.000116959
-0.000371003
0.00330976
-0.00852481
0.00195227
0.00690149
-0.00554401
-0.00283046
0.00213623
0.000441486
0.000252742
-0.00665325
-0.00862651
0.0306511
0.00364067
-0.00440534
-0.00812733
0.008892
0.00343127
-0.0022903
0.0010858
0.00144475
0.00572732
-0.00349094
0.0046435
9.60445e-05
-0.00266977
-0.000961249
6.19097e-05
-0.00129344
-0.00423226
0.00285593
-0.00667339
0.0115955
0.000230478
-0.00279887
0.00188926
0.000679132
-0.000525325
0.00323459
-0.000806439
0.000869594
0.0019172
-0.0030266
0.00233282
-0.000527818
-0.00352166
0.000855894
0.00186005
0.000805718
-0.00275832
-0.00203434
-0.00372378
0.00851645
-0.00227328
0.00173615
-0.00298453
0.00265058
0.00493022
-0.00352296
-0.0307588
-0.0080203
-0.0130547
-0.00194947
-0.000619039
0.00181199
-0.00958712
0.00726417
-0.00750863
-0.00251386
0.00126608
0.00206425
-0.00506573
-0.00451135
0.00203983
0.00301346
-0.0107868
0.0192539
0.0031928
-0.00240503
0.00296069
-0.000634885
0.000398362
0.0022394
-0.000682084
0.000885277
0.0482943
0.0095138
0.00327688
0.000206501
-0.00432184
-6.15498e-06
-0.00296048
0.00671561
-0.00874775
0.00515457
0.0030398
0.000524104
-0.000304323
0.00190094
0.00213192
-0.000993066
-0.000788624
0.00242956
-0.00170844
6.7496e-05
0.0038827
0.0118645
-0.0163318
-0.00508704
-0.00334747
0.00963959
-0.00120508
0.00495008
-0.00241021
-0.00474646
-0.00424121
0.00225734
0.000479223
-0.00797648
-0.00771135
-0.0118908
0.00588306
0.024519
-0.0157326
-0.00514579
0.0006883
-0.0206133
0.00455815
-0.00205053
0.00967362
0.000420882
-0.00200506
0.000726681
-0.000349294
-0.00392851
0.00524484
0.00139969
-0.00271603
-0.00113251
-0.00183691
0.000931381
0.00203804
0.000708813
0.00217004
-0.00281869
-0.00215724
-0.00118056
0.00126017
4.69694e-05
-6.79237e-05
6.96616e-05
-4.87073e-05
0.00261845
0.00139352
-0.000477575
-0.00353439
0.00341061
0.00292607
-0.000216107
0.00196445
-0.00284687
0.00109853
-0.00656254
-0.00189372
0.00973166
0.017403
-0.0171312
0.000987773
-0.00125956
-0.0197929
0.0176008
0.0106273
-0.00133595
-0.00306231
-0.00622909
-0.00141866
-0.00294406
0.00451155
-0.00237623
0.00253488
0.00076371
-0.000922363
0.00160764
0.00158325
-0.00235462
0.00118264
-0.000484049
-0.00155897
0.000990017
-0.00173476
-1.89805e-05
0.000763725
0.006134
-0.00770547
0.00329344
-0.00172197
0.000983794
-0.000267093
0.00118649
-0.00190319
0.000239662
0.00334311
-0.000206894
-0.000545663
0.0107252
-0.00720078
-0.00510722
0.00158284
-0.000795314
-0.000343772
0.000360619
0.000157988
-0.000174835
0.00029154
-0.0010611
-0.00221779
0.00298735
-0.00327903
-0.00799826
0.0057652
0.0041479
0.000729922
-0.000994402
-0.00203048
0.000676749
0.00130844
4.52901e-05
0.00187791
-0.0010192
0.0032892
-0.00182066
0.00159066
0.000542082
0.00230375
-0.000495616
-0.00328358
-0.000965608
-0.00312213
0.000927779
0.00315996
0.000344521
0.00307666
2.58552e-05
-0.0010005
0.00241695
0.00143565
-0.00107762
-0.00184332
-0.000276134
0.00324831
-3.09364e-05
0.000216378
0.000445203
-0.000865521
0.00020394
-0.00110579
0.000827777
0.000323124
-4.5113e-05
0.00939099
-0.0120795
0.0024562
0.0113207
0.000199174
-0.000263552
0.000493161
-0.00255422
0.00400381
-0.000646497
-0.00308894
0.00952756
0.00441353
-0.0108522
0.00144088
-0.00187097
-0.000578685
0.0102929
-0.00627638
0.00614788
-0.0101644
0.00592004
-0.0148029
-0.012509
0.0213918
9.3556e-05
-0.00355769
0.00267551
0.00263793
-0.00357114
-0.0029953
0.00379896
-0.0105677
0.00724799
-0.00335196
0.00206038
0.00576646
-0.00576138
0.00533415
0.000589302
0.000231627
-3.41867e-05
0.000128043
-0.000325484
-0.00131561
0.00293174
0.00441585
0.0586858
-0.0037627
0.00574054
-0.0298108
0.0357885
0.000269443
0.00132317
-0.000975505
0.00248372
0.00259631
-0.000189122
-0.00286166
0.00674522
0.0316285
0.000798866
-0.0205743
0.00188568
0.00233095
-0.00104608
0.000233712
-0.00377128
0.00545159
-0.0020768
0.000396488
-0.00336456
-0.000502906
1.49029e-06
-0.000386097
0.000640731
-0.000256124
0.000389583
-0.000250195
4.00469e-05
-0.000179435
0.000285092
-8.4161e-05
0.000376616
-0.000577547
0.000908456
0.00499907
-0.00451955
-0.00101055
-2.62127e-05
0.000852985
0.000183776
0.00101487
-0.000742899
-0.000983195
0.000711222
-3.36904e-05
0.000238617
-0.00399685
-0.00241277
0.00267446
0.00214118
0.0012547
-0.000847032
-0.000455588
0.000624755
0.000677866
-0.00499199
0.00277579
0.000772283
0.00144392
-0.00268173