/*--------------------------------*- C++ -*----------------------------------*\
| =========                 |                                                 |
| \\      /  F ield         | OpenFOAM: The Open Source CFD Toolbox           |
|  \\    /   O peration     | Version:  2506                                  |
|   \\  /    A nd           | Website:  www.openfoam.com                      |
|    \\/     M anipulation  |                                                 |
\*---------------------------------------------------------------------------*/
FoamFile
{
    version     2.0;
    format      ascii;
    arch        "LSB;label=32;scalar=64";
    class       volScalarField;
    location    "0.0689058";
    object      p;
}
// * * * * * * * * * * * * * * * * * * * * * * * * * * * * * * * * * * * * * //

dimensions      [0 2 -2 0 0 0 0];

internalField   nonuniform List<scalar> 
3927
(
-8.05016
22.3478
-119.133
-40.9692
0.82741
-49.6521
42.4643
9.58288
20.0513
-14.3309
9.60358
11.3776
11.4349
47.7274
9.05476
45.279
3.23775
11.4213
10.7282
55.5225
14.7076
24.8767
-28.9685
17.3507
10.9243
10.9965
11.0088
10.9166
42.7352
25.6001
18.6483
15.8693
10.9801
10.9802
11.1902
11.4472
28.1986
11.2083
2.69132
11.5011
11.3122
-31.3558
17.488
24.9066
17.2841
-35.5709
3.45059
55.6871
11.3658
11.6351
11.5236
30.5313
50.5471
14.8512
16.6135
18.1355
-19.8309
46.6602
13.1935
22.8172
31.8414
11.5369
1.87223
11.6432
11.6277
11.5253
11.3335
11.8555
34.107
-10.8366
11.6671
4.6513
8.77635
-4.38847
-29.6652
50.6948
-21.3785
-15.9916
-12.6267
8.03929
-17.982
53.5966
9.92733
9.9763
6.78994
11.2886
10.3959
-55.4566
-37.2723
-20.6195
58.8359
33.2328
-7.59283
11.5602
11.5445
49.1252
-119.941
11.8616
11.7145
47.5831
-24.1278
-63.1035
20.1109
-131.057
-7.71311
11.5939
11.2945
21.0546
9.3937
9.62237
11.0726
57.9305
17.7666
5.18144
-21.2638
56.7797
11.1085
11.1754
-34.4087
10.8605
10.8877
10.961
10.8458
-50.1883
8.0136
-13.677
-13.7895
-12.0021
-10.7084
-13.6032
-12.8692
-41.9259
-59.7434
-149.467
-58.437
-31.0084
-20.6441
42.6166
61.1239
26.7733
-59.6613
-61.1739
0.283567
32.5757
10.9653
-45.1794
-63.9966
-59.7986
11.5335
11.4624
11.3238
11.2034
11.4396
11.2149
1.83325
11.9348
10.0898
-14.551
11.9363
11.1845
11.177
11.2979
11.228
11.1295
60.0908
46.2829
2.21337
56.2198
-22.0831
54.165
31.0222
-76.4185
-62.6507
-37.8018
51.026
-43.8242
-58.1751
36.5883
-44.9914
32.4529
11.0411
-13.9106
11.0754
-72.3047
47.4763
33.0031
11.2424
59.0643
52.7334
11.2069
11.0866
6.61089
58.47
11.2984
11.4481
35.4745
22.8443
-24.5848
-74.5532
11.5352
35.3015
5.97638
10.8065
39.3842
-30.8838
5.86232
-20.2639
-72.8664
0.674981
14.6746
35.7706
55.6151
40.2308
-65.771
-29.4932
-25.7771
-36.51
57.5754
-40.8534
40.4032
-48.2842
22.7769
44.2936
61.4246
55.1983
-72.2287
31.6195
-42.0272
18.074
11.5827
11.7109
11.3791
11.6148
11.745
9.53499
9.90945
36.9045
10.6581
10.4079
23.6932
10.4874
-37.1853
-56.8135
-45.8985
9.51769
-59.8407
11.2347
-26.3087
11.6335
11.3857
42.4295
10.4065
10.3573
10.7156
10.7215
10.7586
24.296
32.0264
29.8045
18.3024
11.7185
28.1029
11.6992
34.4931
27.3594
35.7174
43.8907
43.5453
44.9741
11.5504
42.5922
41.7789
10.2029
2.91875
6.32494
29.347
3.83536
-12.6301
30.4082
13.8358
-46.5833
28.6108
22.6367
33.8572
42.0775
61.4822
-1.72851
51.5283
-42.4561
-11.5717
61.3653
-30.2637
-4.00385
-9.91809
-19.203
-23.3509
55.604
-58.0695
53.3726
-32.2138
29.9242
57.3402
58.919
19.5547
-8.81259
26.8842
-3.81779
29.1348
57.9843
25.1418
29.0379
49.1315
-20.4867
-19.5348
11.0826
8.47483
13.908
-17.3929
4.28848
25.243
-0.0694386
-128.585
-8.15022
-20.9399
10.5922
16.7037
-35.4934
32.1098
42.8228
31.6289
25.2682
11.2973
-69.5006
52.0823
-63.5884
11.2284
60.4103
60.1814
13.098
21.4811
54.22
0.47961
52.11
-7.86075
-2.43303
27.4072
21.8653
-2.34172
2.86341
44.9414
20.3205
-12.343
-96.6136
-48.9257
21.8042
8.81672
10.1989
-53.6441
35.219
10.7983
-19.2512
50.5347
-43.956
27.2959
47.9178
24.9745
-10.571
46.2372
-97.7869
-46.649
27.311
23.9592
7.925
32.5851
23.6905
-12.3391
-17.544
23.7595
59.6096
53.8257
14.3169
49.157
26.0968
31.7605
20.4191
25.0762
38.9927
58.9224
-14.9314
-47.1622
-13.0881
-8.86032
-16.93
-29.556
52.1252
-10.1636
47.1535
-12.6828
-24.8085
-48.8273
13.8853
9.97923
-54.2676
28.8522
-36.9289
27.4654
-33.2347
16.4339
37.8964
-62.139
-19.0983
-8.61612
11.6227
33.206
12.8091
12.3772
-73.5725
48.5338
-62.8897
-16.4103
34.9093
12.5901
22.3102
11.0183
11.2686
37.1663
-41.2773
12.3008
-8.21581
-50.2062
23.738
-20.5298
46.0086
18.5846
18.729
-36.6107
-48.1028
-23.0995
-5.72975
-3.86547
14.6787
19.4513
27.1614
16.1739
16.9008
-31.9447
16.4404
-24.5353
21.3297
21.0715
-52.2732
3.85854
3.37192
58.8547
-14.5725
2.21791
25.9887
35.2518
19.9935
-33.8878
-56.2213
-13.7715
-56.5878
-16.8758
-49.4768
-29.036
-20.0214
-50.1583
-111.939
35.5682
31.7996
25.3322
16.6244
-2.32298
-29.6664
-48.7093
-33.6776
23.1401
11.4059
17.1359
15.9842
-3.00916
14.5058
-15.9071
11.1061
14.8612
36.1072
10.9951
43.8177
23.189
55.7143
10.6742
20.5074
21.7404
23.8817
-32.6511
56.0472
1.56102
-37.9381
37.7836
5.71344
-45.185
-47.5766
-52.52
4.42226
-56.5836
-37.744
-17.8769
-21.0736
-15.8531
-15.6632
-6.88826
-22.4924
-4.46531
31.394
40.2153
54.9728
22.087
12.7945
57.3258
-54.1942
51.0899
11.4878
51.2643
-9.43752
-26.8769
-55.5453
11.574
50.2495
-15.1128
11.1164
6.65219
-18.9669
18.8447
-23.1864
-23.5533
-7.67986
-11.237
-12.3013
-17.773
-11.6942
-15.2395
-20.895
-9.19174
-29.8513
3.059
-26.4404
26.2791
28.6967
11.5549
34.0468
48.8738
47.2472
11.3215
10.8124
43.8027
50.0355
39.6702
-24.709
-15.0267
-8.32636
-8.70346
-20.9708
-11.4343
-0.407181
-25.4447
0.190743
11.0882
21.3103
15.8817
11.6263
-1.82596
12.129
14.4615
3.59992
2.51851
6.68542
5.31436
0.860362
1.54212
20.9182
-3.85232
-5.59249
-2.53196
-1.77068
-2.57334
-3.92883
30.9871
-65.2268
-7.98911
-14.2006
-16.6133
-11.2197
-22.4596
-13.5898
-24.4353
26.8739
-27.3551
-52.6861
-26.2358
55.4731
23.1212
-16.3963
-13.7921
-23.1015
38.6009
-38.7223
-35.9488
-36.3698
-32.4051
-70.9066
-60.277
-9.294
-9.19228
-6.89458
-5.03155
11.2046
-5.48738
-4.99858
-12.0406
-29.8677
-2.24912
-1.25122
-5.22131
-16.6738
-13.4249
-17.0292
13.9166
30.0907
24.3087
37.8505
35.9529
26.83
36.3791
20.2284
7.41562
28.8395
36.6627
34.2277
35.0872
10.34
11.429
12.3336
11.2778
11.5573
10.0336
25.04
22.0616
15.7441
6.97681
-39.0346
-22.4654
-42.9439
11.5518
11.4388
-3.53127
-22.2253
-26.1474
-16.1817
-41.6013
-0.179992
19.9269
36.819
48.2508
-0.6608
-6.36631
7.57964
6.83368
-5.13801
3.26715
7.59641
12.175
12.8907
20.5102
-7.79948
18.0227
13.9737
13.3782
12.4027
-79.5072
-91.4325
-82.6631
-84.262
42.6659
46.0648
57.1295
52.9429
53.1105
52.5201
44.2052
44.9098
-7.77303
23.193
22.9188
-27.3119
-30.1765
3.81016
-4.28665
-8.25896
-8.89214
-8.84657
-8.14168
32.9464
-6.63993
17.6205
11.1689
-8.29799
1.77131
-5.66813
11.462
11.508
11.2243
10.7835
11.015
6.38168
2.91022
8.84892
18.7914
20.3789
21.2249
16.9687
19.1462
16.2898
10.3676
14.8078
-90.0863
-51.2748
-48.961
-86.5951
-57.8988
-37.2212
-40.194
-1.91737
-41.8276
45.2152
39.8871
42.9653
50.11
44.4968
22.3375
58.1703
-7.13685
-65.6968
-62.3237
-52.4328
-63.0025
-54.2341
-43.6834
55.1604
19.4857
47.7048
-16.0868
-104.169
59.5574
59.7909
-26.7665
-15.3713
-21.3423
-37.1195
-19.6649
-92.6789
-34.4597
-41.8933
-23.2257
-7.67247
4.01193
-7.11832
20.2907
11.1619
62.5399
-48.5437
-68.7929
-44.7063
-69.4305
18.3145
17.7335
26.0333
-26.7632
23.7296
26.9998
25.9361
33.378
61.5239
47.3221
11.0546
42.3648
8.40013
31.4402
-58.5873
-28.6155
-29.9148
-31.3344
-61.1536
57.929
-16.1644
-25.5195
55.3443
-10.7743
51.4223
58.2206
-106.195
33.7245
-9.44769
-64.7046
21.5255
22.0202
-71.4549
-71.2078
17.8854
-40.9427
53.0251
27.6846
28.3662
25.1365
55.0559
-46.3379
-58.0435
43.8442
4.51952
-31.6247
-14.2287
20.5478
12.3529
21.0606
21.3422
10.9439
-4.664
10.8201
15.7618
26.5696
56.5544
-66.545
21.1238
54.7888
-8.90956
16.821
31.1742
35.4822
35.2104
42.0129
39.0123
35.0233
32.9609
6.02761
11.8307
33.5635
-20.3456
9.08763
-52.0114
-16.9872
-30.9007
-7.22676
30.313
-56.3353
34.1219
27.9092
24.0167
18.798
-31.2256
36.7497
36.6026
24.6991
22.8683
20.2879
5.81602
-41.7214
21.3303
-7.22765
44.08
-13.385
14.4686
34.2397
-89.5165
-1.84379
29.3587
-13.9695
44.7109
-8.95691
-18.13
30.7858
43.7318
-13.8001
3.04734
1.65388
18.219
-2.26588
-25.8639
44.2003
54.7456
49.2351
21.4228
53.5236
45.4197
-85.1976
51.7522
21.4676
2.53071
8.93426
11.102
11.2645
-15.5477
11.6252
11.5174
9.80035
-28.0879
-14.6737
7.28685
8.69121
15.3821
-76.7913
8.2848
-38.2505
-33.3941
11.5647
-18.388
-16.1104
-48.8494
-49.9177
10.1789
10.1802
20.9947
-19.2781
11.2674
11.3735
43.3391
19.5751
11.2773
2.31675
45.9796
-32.0288
11.6026
-3.06912
11.7156
6.17499
-10.4575
11.906
-16.1736
-11.7199
-33.049
-35.7279
37.9319
-26.7515
45.6509
-9.7606
14.057
16.835
49.5822
14.5097
8.59258
-24.2185
39.3859
-43.486
-45.4542
-27.6926
16.1627
11.0022
11.4642
30.2451
-203.235
17.0367
30.64
22.6258
-14.8427
19.6308
-27.5425
-42.3586
4.12182
-87.9458
13.6324
30.7707
-13.6174
-14.8693
6.45513
-12.6949
30.7028
29.1717
25.7492
10.8187
10.1259
14.02
-122.343
-74.8095
29.0425
1.62347
20.2296
-21.3118
3.5609
-6.94622
-14.3928
13.2339
-6.30368
-27.156
-21.9295
-2.14044
-13.0608
-61.0872
-44.0966
30.5912
-53.7461
6.86094
-67.6258
-69.9324
58.0439
38.4175
7.66563
53.2154
21.6276
61.1138
33.7333
17.3038
43.8287
55.0619
13.3725
-24.8
-22.4097
10.8296
-6.39303
-25.9595
-68.424
48.508
-5.96052
-41.6271
17.8129
-3.67643
-4.2973
-19.128
4.14361
22.4549
55.3464
47.3324
41.4884
38.5065
35.8408
-62.5172
11.9819
-70.2489
-70.0149
19.6578
11.6484
14.2798
15.2024
-63.9791
-17.0416
-127.165
7.00961
1.03674
-74.5698
-20.1599
18.115
-72.1549
-14.2603
9.49688
28.8931
8.58306
-37.3513
-70.7599
4.7134
-7.62102
46.5291
-46.8005
-0.557362
-50.7314
1.70354
16.4665
49.7481
-62.7807
59.0971
18.5647
-44.5625
-38.3481
5.35409
25.6891
-46.7248
-42.0315
-14.7487
-15.1103
48.4393
-42.7343
33.5909
-10.8678
17.1354
13.5134
-96.725
35.1516
-87.0054
-10.1024
48.8932
-92.5657
2.88684
-96.6162
-44.504
47.1123
3.05506
17.9204
15.4727
19.8795
-133.823
-55.975
-72.1645
-41.4848
39.479
6.91575
1.38195
16.5853
15.5411
-60.7029
-77.6286
-50.4417
-34.6287
-81.5887
1.12455
14.5455
17.5909
20.337
-40.2672
2.52021
1.25278
-20.8672
-37.4702
18.3281
26.747
-8.66953
-20.6945
19.7025
31.3667
2.0473
-13.7353
-50.1454
-17.6612
-17.5451
-51.8028
-10.7044
-59.789
-13.5488
-72.2426
-20.8179
-4.35203
-29.7082
-35.7783
-47.4732
-10.0157
-11.6036
48.0982
41.0888
49.4632
49.3915
41.1132
49.5298
47.5157
50.2149
-6.66006
-13.6378
-24.9461
1.81717
-25.6652
-14.7619
20.6327
23.9817
18.7339
20.068
17.5702
14.1674
-3.63132
13.4781
11.3851
15.8367
4.04815
-167.437
-20.4097
-7.17282
13.82
11.5376
-11.2306
9.96272
11.4033
11.0746
45.3792
28.2954
11.5362
11.5084
-20.9775
52.4263
28.2633
45.2859
34.3015
20.4522
-12.8043
-8.84113
0.664733
42.1414
-15.641
2.15559
-45.6243
50.635
-50.5475
-29.3549
-55.8765
31.8293
-4.64348
2.21561
4.77985
-67.1884
-19.8023
-39.1531
-16.7741
-25.3091
25.6783
56.7556
-63.9811
57.7544
-5.17192
-6.4061
9.66639
-4.4501
11.4769
9.67836
-1.60544
0.333949
47.7731
52.3895
51.2756
-0.788343
37.9224
39.721
27.7655
38.4647
-7.51975
32.8238
-31.52
-35.0356
-37.1647
-74.1312
-41.2077
38.5289
4.09717
-59.4845
-33.4443
43.2627
56.3883
42.6309
44.9376
10.8603
28.8966
16.4707
16.4488
17.6544
15.1652
16.4917
29.2983
22.745
49.4279
57.3716
49.5282
46.6923
22.3284
-7.87862
53.2016
-63.9478
26.9107
19.8564
38.3905
50.6453
11.3916
-128.035
-8.89621
21.1078
15.304
-59.8179
2.86248
-52.2451
14.4934
23.6491
-15.5636
41.2266
36.3555
8.48641
36.7029
57.8898
59.1728
53.4877
11.4399
11.0919
-25.9015
18.6767
19.467
21.6929
18.451
10.5099
-20.426
10.8439
10.8788
18.5953
33.8856
11.1476
38.1147
10.9988
48.4338
22.7347
48.8967
58.4967
-130.508
16.2161
40.7953
28.615
37.4084
26.2006
54.2603
55.0729
24.3096
-50.1224
-56.5962
48.8945
11.2746
29.8815
-34.2986
-105.207
-43.1923
-15.6255
11.518
11.4456
11.5338
8.74474
10.2872
9.09257
11.1924
10.2974
11.0449
10.5976
5.07211
20.4319
24.4583
15.1996
16.9346
11.0861
-18.9926
11.3879
11.1998
10.8025
10.5584
10.7603
10.534
10.9039
11.1406
11.1167
-23.1919
1.71685
11.0303
-1.70479
8.945
1.65319
10.0745
10.8148
11.2443
35.9691
25.2887
12.8497
10.4874
1.51428
14.1415
11.0495
-8.83604
-24.884
11.3723
11.3819
9.82473
9.92251
10.3566
10.4228
10.3411
10.2376
51.1288
-30.8559
-27.6559
0.534246
9.40301
11.414
10.6102
32.908
9.91464
-63.128
-66.1483
11.5505
16.2006
6.52523
-64.7475
11.9923
-16.2376
3.51705
-11.9179
-64.9796
50.8338
-6.51188
-22.1247
-53.0978
-55.6921
25.8241
-63.0325
-25.2948
-93.7843
-45.677
29.0834
-38.6295
26.1511
-25.7044
42.9942
16.2854
-81.5278
40.9097
-63.7892
45.7317
47.5289
51.6814
-79.3683
41.6314
29.0347
52.8309
30.7527
27.2694
-45.1768
-51.7608
-32.3321
-14.4272
-25.3403
-51.8587
55.2582
54.033
54.0122
57.9019
62.6827
52.3521
45.4295
48.2748
46.8327
50.7002
54.5068
59.6574
22.5159
11.6608
56.7882
11.2356
11.3376
11.3984
54.6269
54.7474
24.8381
24.1319
40.9576
10.5225
10.4026
10.3941
11.7448
-85.7329
-40.4969
-67.7137
-77.372
9.80257
-64.5366
-52.7781
-90.3622
21.7787
20.1773
23.7095
54.3648
-125.624
14.4683
1.6038
-28.2647
22.3314
35.1218
26.398
-2.6747
23.5942
-42.0528
-42.2636
35.7754
21.9004
39.2406
36.6144
12.5426
19.328
19.0084
7.91102
-67.4455
-114.061
-161.974
29.475
-14.089
-59.3736
-63.3991
30.6117
-82.5886
-200.552
-35.2054
23.2448
51.8825
47.7343
53.9705
33.4768
2.44718
2.84852
-18.2526
-29.2288
25.6025
-88.056
-14.877
-15.2605
11.3984
14.1501
10.6409
7.52217
6.96707
9.30533
11.0756
-4.69966
55.3415
57.4488
46.5945
42.5767
7.97762
11.334
10.8844
11.0507
-16.5445
7.49759
32.6206
12.654
12.6404
10.9374
48.148
53.6333
43.1681
37.3066
42.4798
-13.4383
-23.1738
26.7824
-19.6326
-19.0306
40.2507
18.4696
-16.6856
13.9422
55.7477
52.1372
10.9706
10.4231
10.4522
10.5686
8.01751
10.6204
10.6426
-14.1939
11.0361
25.4633
18.7412
31.8633
-13.204
35.184
19.7704
18.8403
18.9269
18.2163
14.233
-5.04669
-41.3965
31.5034
16.148
9.77937
39.6137
-3.97436
10.5283
29.164
49.9851
29.4576
29.8804
26.852
-17.464
5.73228
-43.7984
-144.759
33.7799
3.67214
-40.784
20.1827
23.7026
11.785
50.9818
2.17265
42.7347
25.8619
24.8978
24.2408
-68.2866
-70.6943
-60.7047
15.4953
13.9903
1.37002
33.8086
-8.55364
-3.77171
-18.6467
50.325
1.54179
53.4128
14.1631
-59.1785
-58.0672
-17.3558
54.779
61.624
-17.3019
25.3887
33.7837
-17.2044
-39.6708
30.6671
-35.7745
-30.9359
23.7816
12.865
27.3236
14.6972
12.903
33.2314
49.1766
34.8599
-226.246
-1.3545
37.7067
25.4756
-23.889
-85.837
-5.85043
-21.8995
-31.0606
-52.2236
-4.16515
-45.4606
-41.2119
-30.5094
-75.9607
-68.2828
41.7658
56.6998
51.1515
-118.476
-49.4909
-18.5692
-57.656
-8.4158
-16.9209
-2.43195
-38.0916
-68.3405
-23.386
-37.6813
-42.8689
-61.2552
-49.039
-182.942
-37.8449
-68.336
12.3091
-10.2799
-54.5029
32.8205
35.0466
-66.8064
36.6788
3.05484
7.65943
18.873
51.2527
4.60388
18.7164
26.9506
61.7058
-84.4955
-180.607
-66.2379
38.4225
-5.595
22.6846
30.0612
-73.0856
15.4065
1.39355
1.73768
1.29598
-21.7079
-41.2578
-7.97401
-11.8485
-83.7971
-9.52261
1.62092
-169.945
-37.0339
-57.7534
-22.4262
-29.1845
3.65036
15.81
-33.8878
11.1167
-0.982327
11.1253
11.1246
1.7562
10.7142
11.0762
-22.9896
-52.2937
-44.7988
-45.7801
-52.8186
-5.91741
-3.9853
-10.9276
-14.3889
-11.6819
-11.3263
-0.0391784
-54.4675
16.5623
19.9665
22.1743
-45.0915
14.7063
11.5
-58.7984
-73.312
-49.8151
-58.8694
-61.2911
-51.5971
-60.2646
-62.1249
-54.6721
-67.3632
-21.8309
-87.4351
-1.72121
-46.5273
11.5928
-23.3164
11.5402
11.5614
-13.3906
-8.81319
-17.9341
-9.3013
-15.6829
-46.4723
-53.5073
-55.634
-64.315
-45.6383
7.07791
20.4249
16.0284
53.3247
15.8848
48.1571
52.0668
55.319
46.7854
51.2066
16.6975
-49.955
17.3778
18.2606
17.3693
1.1496
-62.5301
-66.6643
-70.7944
3.56443
-14.3388
-42.9315
3.22045
2.35918
4.78909
-62.2281
-58.9356
-41.7275
9.28802
1.23692
-17.0397
26.5004
50.5186
58.4489
-66.7847
47.0015
-12.5077
6.38044
-22.3175
-17.6424
-27.5895
-16.6079
-73.721
-4.81643
-2.36191
-10.3757
-10.3663
22.6688
-61.1982
-57.8965
-62.5997
-49.4269
9.65691
14.8361
16.556
-8.22762
30.9233
62.3835
11.669
11.5368
26.8076
10.6566
11.5291
11.0678
10.9699
11.4409
10.9951
11.0575
30.3102
33.4327
11.0804
30.4944
11.0081
11.3954
11.4305
17.7419
15.2675
14.1469
-10.6884
-23.8116
-28.4931
-19.1078
-6.91119
32.6856
33.7184
29.9072
50.4023
26.483
41.109
8.34589
43.5071
15.8677
42.7526
61.1032
57.1845
51.4758
25.1916
16.2226
25.6197
23.5723
33.765
45.3584
22.9114
42.5503
44.2384
33.6808
22.2367
45.9453
33.831
25.7952
33.1309
34.4806
-46.254
-16.31
-70.2464
-83.8425
-80.9996
-71.2544
56.6479
-78.4487
11.6427
11.2411
11.5902
10.7101
11.0283
17.8781
16.2564
-24.3863
-15.7936
51.3164
39.1341
34.5747
48.9818
55.4201
30.2821
46.3863
34.8377
50.2335
35.0886
36.6546
46.0156
32.4791
46.8426
42.8541
46.2271
30.8405
44.3129
32.2487
43.5132
43.7066
34.8954
11.6454
11.592
11.5338
11.5655
11.6655
11.7071
11.6515
-6.97217
11.4722
11.4856
11.5202
11.2112
10.4432
-13.9842
-36.1041
11.2143
10.7603
-16.722
20.6271
-10.2283
-15.9148
-51.0226
-14.5627
-13.7622
-10.8162
10.2974
11.0247
47.0593
47.2573
11.0323
11.205
11.0451
5.27351
16.1222
15.5786
57.7665
23.1015
33.8962
58.0956
-20.8375
50.9736
44.1085
29.1484
11.3566
10.5145
10.3963
10.6162
-42.0883
26.9189
25.0384
21.7202
51.4609
1.69898
30.5043
30.087
24.5071
54.3265
10.4932
-10.2703
-7.92508
-11.5626
-11.586
43.2945
16.5773
18.9442
19.1635
0.415411
48.6223
-15.3884
-16.3376
-8.43311
-3.21324
-12.035
37.3308
48.0097
22.4765
7.56693
3.93622
1.02892
32.142
-28.7636
32.9029
-34.5554
-95.1771
-66.3276
38.1773
32.8269
56.172
49.9296
34.1562
56.9134
-17.236
-20.4809
-82.4818
-78.911
-56.8171
-43.0469
30.5724
-81.7434
17.3531
43.941
55.3743
-124.335
-89.0005
-124.018
47.1053
-67.1077
58.7776
56.3907
24.3883
47.6825
-68.8077
8.25336
50.7481
49.8857
60.611
60.9132
27.6401
40.6418
50.8198
-74.7507
-25.9697
38.6926
37.0736
54.4924
44.0018
-137.051
38.2229
-139.697
-121.503
-160.05
-91.5781
-65.4687
-29.3222
-161.868
35.9303
-31.5
42.1844
44.0531
45.8637
51.3289
-85.7868
-80.3073
-74.104
-49.9387
38.8937
55.6592
-73.1961
-64.1145
-65.5434
-66.4487
-66.9714
-66.0135
38.6325
-78.7325
11.4212
10.2284
11.6247
11.4355
11.4604
10.6605
11.3392
-29.6657
49.9231
50.3474
10.8738
10.7962
50.1974
11.5938
10.8523
-11.5775
10.8834
50.334
11.0824
-5.32039
18.4681
35.1222
24.0795
19.5292
35.9389
21.6494
-9.51475
-19.9214
46.9077
54.1492
54.987
41.1632
16.8663
34.5388
31.5502
-30.2613
10.6244
10.2605
11.6257
11.1229
-33.2142
36.3808
22.2944
58.8305
16.0408
0.148626
26.4307
9.95271
4.59953
10.9881
26.8683
0.828785
-63.1839
-5.78458
-1.0807
-23.4545
-15.2449
-6.64221
-25.9575
-9.46115
20.5815
11.0847
13.0212
16.5482
25.9979
22.0296
1.08845
25.1233
-28.9736
21.2111
31.0991
19.9047
21.7283
-15.6914
3.51021
27.2841
-45.3703
13
-42.8422
-42.9744
32.6187
39.4128
47.1213
-37.5939
41.5985
40.1413
56.1338
54.6945
-30.7673
-13.7537
-39.9579
-28.073
61.5719
-79.1635
41.7799
58.9168
6.54961
61.5861
62.102
22.8001
5.28035
-21.6502
-19.2986
-52.4561
-15.5258
-11.6016
-62.1891
43.0914
-62.6615
-23.8884
44.6645
-20.1395
-38.5165
-40.7647
-82.9579
44.0768
49.2508
33.6476
-64.8011
-52.8062
-20.1597
-37.165
-17.5245
48.7839
41.3313
51.9788
13.115
1.84889
-11.0645
51.1331
52.9241
9.41298
23.0436
2.24856
26.459
20.1782
-61.7722
59.9793
57.2974
34.7126
29.6596
30.3746
28.1458
29.6958
19.5823
13.7736
-7.1659
-60.5055
-46.4808
-35.9316
-10.2425
-10.3545
-20.0962
58.4382
26.3369
-18.5008
19.4684
-20.5692
-20.3394
9.03214
12.3463
-5.94411
58.8672
-53.7817
-19.339
-22.7581
-84.4963
-25.3179
21.6268
15.1434
34.1613
26.2268
16.1563
12.6919
18.1431
59.8067
-72.6331
-45.2652
-25.4194
18.952
16.4254
16.5683
28.2391
49.6617
38.1895
48.4667
14.669
21.2669
21.9319
19.93
33.8869
59.3459
59.4952
31.1914
-19.5019
-44.6666
-61.2035
24.7826
12.2801
14.6981
23.3304
-21.3094
15.7479
60.3618
32.0799
4.50821
53.6934
-103.066
55.5065
-19.6028
-23.1772
-13.56
-18.3331
31.3177
-41.5931
-12.7356
-25.5291
1.42221
0.382809
-67.6712
19.6241
20.6955
15.4387
48.2622
21.68
-67.3748
56.3632
58.1657
54.1652
47.1295
-11.6161
-41.3191
-96.1821
2.81383
15.1486
10.6634
8.7538
-13.0487
-49.8575
-1.888
24.1253
-54.9834
24.4046
17.5134
26.5125
39.1848
31.2511
7.44342
-16.6054
12.2617
22.4249
-3.69456
49.2122
-98.618
13.3954
-22.8973
-50.3156
-13.8895
12.7835
18.5124
23.3191
2.86271
8.94902
15.7344
15.4396
10.089
18.453
-3.7747
-17.045
7.89926
-6.14546
-77.3298
6.09991
36.1434
-2.43393
-45.8396
-5.14197
-14.8584
-30.1599
-41.0699
-26.2998
-46.8627
-55.7051
-23.5045
-41.8158
40.1757
21.1405
-106.156
-10.8446
1.29608
24.0958
-85.2088
41.224
-8.44912
14.3633
-127.247
-49.6541
-19.1972
-12.1948
-10.2297
-19.5969
24.1042
-4.51248
-12.8857
-2.97401
-9.19929
28.164
49.6399
3.1821
16.6159
32.2047
16.5387
50.9153
-46.0717
-57.4255
-70.9961
-46.9907
-81.131
27.1407
18.8358
44.2105
22.3799
0.681628
0.208081
7.96617
7.98413
-62.6082
2.31311
14.0762
8.75268
-1.48433
43.6802
-6.17918
11.0159
2.48901
10.8978
-19.8244
-23.5921
-23.9418
31.5127
12.8455
-28.3157
21.6162
7.28715
7.03309
-12.5402
-17.8187
-33.7655
-45.8174
-62.9688
10.9871
-16.0108
-37.4687
-17.0284
-44.0914
47.6059
-15.2679
-66.613
31.4647
-17.4676
48.163
54.7171
45.9052
-19.2883
3.17522
-30.9128
-65.4519
27.611
19.6165
24.4734
30.8644
21.9796
21.4816
-30.2843
27.7372
-46.9109
12.128
7.92627
-4.72646
-6.61428
-2.01735
32.9353
-69.4701
-42.3272
-29.8116
-6.30326
1.76313
13.6186
14.5981
-17.3022
-0.771603
2.71794
-12.9219
-42.7155
-17.9506
-68.0681
-11.2957
-38.39
-49.7939
29.1014
-41.5349
-41.3301
-55.6859
4.76696
-28.973
-23.5696
32.5381
-69.1529
36.5487
50.3056
-17.3802
-81.0384
-35.9789
-6.79774
9.74684
-52.0114
45.8942
15.3738
-28.3038
19.8283
-46.3565
59.4507
20.7737
27.2356
12.1001
19.3055
17.3082
-5.8149
23.6461
18.028
25.4793
-9.35479
-4.31581
55.5018
8.34543
59.1134
46.0834
30.2258
-55.5398
25.6498
21.6024
-39.9138
9.6865
32.8578
31.6261
20.1136
56.7758
28.8564
62.2304
-21.4469
26.398
-222.743
29.7547
16.1617
16.65
41.7674
40.0091
-31.2249
57.4012
-41.724
58.4611
53.9049
52.9267
19.0423
57.8035
57.2155
-27.895
-53.6784
59.4139
6.53365
-11.6966
-36.0952
14.2135
-14.116
-7.97545
27.5569
20.2655
30.2696
-71.614
-20.6284
-24.5531
-40.1894
-97.725
-11.4759
20.8618
-20.0864
-20.2935
10.5635
-11.459
-6.23036
-7.4201
-4.50142
-2.74672
-4.71314
-2.86579
4.43536
-9.28153
-38.5838
-4.73134
-8.82865
-9.59451
-14.6852
61.586
11.5334
10.5288
11.5893
11.1603
11.7727
9.93126
-17.8286
10.4051
-24.2536
-26.9767
-15.6003
-52.4326
-3.06956
7.59749
-31.029
-24.2471
-11.2233
-11.3989
-7.43412
45.7721
38.8227
33.7129
50.3959
-3.67002
-10.4327
-11.7518
-14.6578
-39.5531
-193.894
-1.29168
3.85313
2.85243
-9.7686
-5.79939
44.1735
38.9478
33.4239
37.188
21.9063
2.48786
-7.41675
-4.53233
5.83478
14.9742
12.4645
13.6359
20.8766
18.177
-30.2325
-24.4186
-32.2619
-48.5154
-23.5961
-33.1845
-46.4358
-37.5909
-12.2312
11.5276
10.9
11.3213
11.1321
11.1648
-52.5214
15.9218
-63.3037
-4.91145
7.95738
4.63965
9.57364
10.1211
9.8351
2.19922
0.657945
-1.43779
11.3635
0.360786
11.6642
6.19443
11.4712
25.1937
10.1915
26.0132
10.5457
59.2512
11.4084
55.4846
-7.89547
11.5454
11.4309
11.452
16.367
33.9636
54.956
11.2213
11.3792
11.6527
10.9299
53.7305
46.8524
49.9883
11.0932
27.9123
32.0035
33.1706
16.5701
-9.81949
-10.0231
-8.0299
-71.6068
-64.5411
-57.3649
-63.7715
10.3232
11.8847
11.1782
-35.2817
-35.1639
-30.0887
-41.5867
-41.6866
36.3449
34.9401
28.4405
-26.1807
-64.2119
-90.6855
-92.2643
-6.10915
2.21844
3.10228
5.06019
3.19001
19.3289
21.1463
16.8527
20.1337
17.174
17.5899
19.8428
-0.603938
-44.4358
36.4489
-55.76
11.2619
11.2241
11.2843
11.4195
-7.00458
-4.0721
11.2506
13.6989
13.6411
-2.36459
-14.9526
-8.7886
0.807188
11.3564
-202.682
-3.2058
-122.149
-62.8715
-74.0055
-26.9246
-69.903
-68.7166
-71.8801
13.9385
-9.42008
-72.2446
18.9573
16.2581
52.2131
21.63
-4.50472
51.5896
-22.9576
-20.5673
-54.4806
-43.6155
-45.8886
20.4818
-122.297
-64.2569
-46.5616
-46.5324
35.5654
54.8791
25.8866
58.0184
54.3885
59.7985
-14.6196
51.495
39.849
42.4975
41.4051
-25.0384
45.9537
31.1894
36.6353
-70.6509
-36.6898
-68.3093
-37.9508
-63.0365
-64.7137
-129.953
-67.8058
-59.4961
-52.9054
59.6153
13.746
14.4616
12.8508
14.8205
12.4343
-32.2218
19.5207
10.179
10.0859
9.66482
20.0048
21.1199
24.2035
23.3412
20.7659
20.0418
17.4994
-21.8974
24.721
25.5108
31.5138
21.1267
-22.6354
-24.5119
-20.7838
-25.2961
18.866
12.2661
6.86001
24.1228
25.145
40.4931
47.5827
36.147
-12.9846
-15.6826
-21.6694
-36.2554
26.5124
-43.9177
13.6437
8.35588
5.15563
20.9862
14.872
16.1954
-71.2555
-17.8369
49.5693
19.9426
37.6452
26.6447
46.5702
16.1186
32.3767
-10.5857
-4.83355
-12.438
59.7868
-57.2272
-20.6646
-33.0612
53.0136
21.3147
21.3199
5.27851
19.06
18.8755
6.2196
10.2853
17.4457
1.50112
13.8247
15.3654
17.8511
-9.83717
21.255
24.4026
26.112
19.5047
10.6718
-29.93
-47.7847
-100.82
31.7441
21.8752
20.4805
8.24033
16.9526
32.5746
-24.1837
-27.1433
14.4083
22.8834
20.0003
9.19782
18.8049
19.353
19.4616
-23.1535
19.7854
-21.5984
57.2164
48.3623
15.0735
-59.2289
-16.85
-14.6735
0.266553
-10.9447
-12.5154
1.26133
-1.96013
-15.2886
17.787
20.7123
18.0902
34.3326
29.5764
28.5657
42.2601
16.7257
2.85019
41.7878
25.4399
24.2648
53.533
41.5978
25.2359
-31.8431
-24.533
-15.3458
-67.5411
26.4838
-13.9804
30.7956
-55.8416
-0.390103
-31.9691
-90.105
-65.1994
9.70037
47.5592
-68.3264
-37.8268
-46.2274
-1.81974
14.4443
-33.4333
-24.1856
-21.5993
-122.204
16.8
-32.7703
-24.4552
-24.1116
-15.8592
-59.9038
-40.3233
-52.2926
-75.7978
-15.6679
-10.0603
-43.4264
-27.0884
35.578
32.2382
10.5951
9.43277
27.5415
-58.0004
-93.7873
-55.3427
-7.10146
-78.474
-67.6947
3.48737
-31.7348
6.27683
23.0387
-6.87203
17.4084
28.3778
-15.8012
-8.21732
-9.66392
-13.0732
54.334
60.3049
25.4213
24.2212
40.027
-30.8599
-27.5371
-9.57681
-43.8864
-39.3203
-72.7473
-0.0695311
-9.65628
-58.5633
5.99103
-39.985
16.4369
29.8458
-122.828
52.1704
53.6371
-8.32764
-34.7174
-51.2494
2.20769
-3.2061
-1.67263
-18.5686
-42.257
-42.3789
9.12097
-64.9992
-17.1295
12.8323
0.982445
39.1831
16.1644
31.6111
32.577
-30.336
-70.6042
-40.3171
14.0227
11.5347
38.8901
6.49397
-26.9159
-9.09931
-24.804
6.38599
-15.3974
-16.3162
-24.3778
-34.4354
-4.53989
-36.2333
28.7164
-9.60464
-8.28741
-3.88522
-18.3893
-18.5249
-69.1115
10.9737
10.7103
-6.2347
55.99
-9.41815
18.8081
-29.7877
-56.6362
51.103
36.6152
60.0758
-19.8332
10.312
-4.53821
-17.9567
-41.9365
11.9842
-4.27471
-43.5816
-32.4586
45.8276
-5.93564
-5.65096
-1.81024
2.58669
0.764524
3.33902
22.5828
-43.5351
-58.9433
-32.274
-79.2406
-49.5019
-55.5703
-13.3302
-6.37917
-6.9384
31.818
27.4642
47.6331
9.58893
-76.8044
3.35572
38.8147
12.2319
-43.497
-64.6199
10.9076
-63.7798
56.8603
43.8462
60.8505
11.0833
53.2089
11.0242
10.5314
-63.3993
10.7778
49.3763
47.395
0.990016
-23.2373
-95.6189
-65.086
14.3057
-42.3117
11.3674
57.787
-38.82
-39.5665
44.8297
40.3742
52.2845
25.8184
33.5663
15.9392
11.0095
46.5753
57.2199
50.9597
45.3718
-13.0457
13.0937
20.3251
22.4614
-30.1246
39.0551
29.8451
34.2581
26.332
13.1145
-16.9311
-17.0447
-21.4394
-21.213
-20.6894
9.24056
1.29008
-0.908946
-1.62302
-4.19568
-7.07492
-12.2083
-22.931
-9.29265
25.2003
21.7745
22.6215
19.0169
-42.2779
18.5142
54.6178
24.5432
30.068
34.829
39.0863
39.7484
23.3811
-16.6504
-7.1936
53.5119
57.5521
50.804
36.6011
55.8746
59.8534
24.7718
19.3787
27.4655
24.2447
19.7642
28.9546
-3.1473
19.5575
53.7611
55.9013
57.8819
55.5953
45.7571
-10.2863
-2.10204
38.4179
39.5593
-12.6971
-13.7657
14.6405
13.9387
11.2656
27.2592
7.33396
4.44098
43.2452
-11.7272
-44.1799
11.1661
10.593
10.5672
11.3319
-29.653
-12.7637
33.1241
34.0337
42.5819
37.5992
46.925
38.7604
-4.35485
23.3767
13.5053
-3.40835
11.2356
11.3586
10.0342
9.55756
-14.645
11.4321
-18.1587
-7.86723
11.3838
10.7013
11.4183
11.5313
11.4618
10.4858
11.3324
11.204
11.2788
11.2491
2.47039
12.9032
10.3174
11.4817
11.5489
20.2455
0.13632
16.885
19.4585
19.8633
48.1179
48.4505
23.7426
-20.1809
-32.6377
-16.8197
-97.5815
16.86
-52.4027
-38.9899
10.3326
10.9253
10.5805
-17.0404
11.43
11.5582
9.38186
16.005
-12.0912
1.1862
-13.9223
-14.7072
27.1058
12.4684
-71.8066
14.3101
-205.216
-12.9021
-41.5991
49.9026
42.8358
39.7583
56.6545
47.1151
37.0097
1.63995
-59.0744
-56.944
17.3336
-2.70619
-58.7578
-87.4538
-86.0849
-7.62883
15.5737
-77.2131
-82.3833
37.3657
-34.3818
15.3931
-30.3867
-33.9947
-27.695
-33.1489
-29.5993
-29.2566
35.4178
45.8437
-3.58067
40.7521
61.8519
-12.8876
22.3601
-15.9743
8.52705
49.3022
50.9696
9.43842
10.0769
11.9479
37.0532
21.105
49.2764
21.8109
-53.4492
-60.9115
-4.6659
21.3984
22.0452
-14.0017
-61.2648
10.8224
-78.4976
-110.83
-61.5714
58.9021
11.4161
11.1898
11.4696
11.1949
10.9184
10.2192
11.6892
-2.46377
13.7605
11.5443
11.662
11.5824
11.5478
13.4593
11.361
11.5
11.1938
11.7344
-50.7223
-48.0068
31.753
43.5948
-85.3359
23.2489
20.0309
-47.9539
-52.2042
-43.6032
11.4508
19.6925
16.1674
20.4149
17.6561
21.7266
21.191
-29.0459
-27.6169
18.1243
25.5941
55.8564
32.3635
44.3592
19.0442
32.0257
-24.7189
49.2455
-24.1162
55.28
-16.0246
56.8225
56.9668
45.303
-5.56636
-6.11984
-54.6805
-3.82838
36.432
-0.761833
51.87
-20.2897
19.0618
55.6751
27.4477
31.0057
16.3344
-13.3302
-17.4244
-18.1132
-18.9039
29.6185
-65.068
-61.3665
-60.334
31.6835
26.5632
-47.8837
-50.9812
22.9014
-54.2763
-67.5467
-61.6803
-71.5044
-72.2101
-74.8634
-73.3707
55.6619
-33.9866
-68.9242
31.433
39.0008
38.758
-9.87611
12.3596
-81.1321
-22.3696
-15.4351
-33.7568
-25.3188
-31.0762
-61.7089
-28.9954
-30.8168
37.1599
46.61
44.438
13.5937
25.1743
21.4817
32.777
29.6698
42.175
21.1003
16.5075
17.5296
23.4736
19.0706
40.0004
26.3358
43.3199
25.44
41.846
14.5956
10.4245
14.9246
16.6227
-12.9792
-16.1638
-51.8298
-21.0659
-37.2343
13.0107
58.9554
-16.5922
-24.4499
-34.0459
-36.138
-21.1205
29.6708
46.9804
54.2911
41.1665
-29.2958
13.8553
-157.173
23.2467
-26.7679
-5.96372
14.1262
-49.242
-32.3056
44.4602
-26.4069
-29.9162
26.5136
16.3893
38.9211
30.3172
22.399
13.8802
26.5736
13.3369
12.2496
-1.86762
-0.0762691
-9.2209
22.4066
7.3641
4.83552
30.2781
19.7163
7.96505
9.29544
-2.11261
3.45494
-45.8982
-5.23539
-23.3566
-22.5825
-43.0122
-64.3433
-26.8907
-11.9352
-37.405
-35.29
-34.2206
33.9972
50.7584
10.6348
21.2842
27.4383
20.5406
9.89626
20.0515
-124.784
-75.2869
12.6505
-95.7513