/*--------------------------------*- C++ -*----------------------------------*\
| =========                 |                                                 |
| \\      /  F ield         | OpenFOAM: The Open Source CFD Toolbox           |
|  \\    /   O peration     | Version:  2506                                  |
|   \\  /    A nd           | Website:  www.openfoam.com                      |
|    \\/     M anipulation  |                                                 |
\*---------------------------------------------------------------------------*/
FoamFile
{
    version     2.0;
    format      ascii;
    arch        "LSB;label=32;scalar=64";
    class       surfaceScalarField;
    location    "0.0689058";
    object      phi;
}
// * * * * * * * * * * * * * * * * * * * * * * * * * * * * * * * * * * * * * //

dimensions      [0 3 -1 0 0 0 0];

oriented        oriented;

internalField   nonuniform List<scalar> 
7371
(
0.00658322
-0.0131221
0.0129476
-0.00640866
-0.00775708
0.00205368
0.00347603
0.00222737
-0.000963297
0.00154704
0.000222067
-0.000805806
-0.00495286
0.0108666
-1.35299e-05
-0.00590026
0.0164613
-0.0057787
-0.00499893
-0.00568365
-0.00274668
-0.00101959
0.00402135
-0.000255085
0.000554032
0.00111283
-0.000383017
-0.00128384
0.0468927
0.011017
0.0022848
-0.0601946
0.00495652
-0.0329665
0.0117935
0.000843
-0.00994363
0.00984619
-0.000745566
-0.0245823
-0.0579751
-0.00892564
-0.0581659
-0.0867675
0.0572678
0.0876656
0.0283726
0.170782
-0.245573
0.0464182
0.00164735
-0.00146548
-0.00138577
0.00120391
0.053539
-0.0526747
0.0190706
-0.000534153
0.00139729
-0.000700027
-0.000163113
-0.00288923
-0.00566209
0.00173103
0.00682029
0.0611773
-0.0417169
0.0643121
-0.0837726
0.0572432
0.00101204
-0.0582553
0.00122619
-9.25078e-05
-0.000263099
-0.000870586
-0.000143744
-0.00223816
0.00145741
0.0009245
-0.000149705
-2.15691e-05
-0.00146396
0.00163523
-0.00267454
-0.00117379
-0.00137987
0.00522821
-0.000848104
-0.00268888
0.00138918
0.00214781
-0.0558262
0.0558165
9.61874e-06
-0.00580086
-0.042647
-0.00737824
0.0460552
0.0133869
-0.0593716
-7.04664e-05
0.0914845
-0.00217353
-0.0432558
-0.000817575
-0.000414194
-0.00103786
0.00226963
-0.000623404
0.00835787
-0.00851464
0.000780176
0.00790009
-0.0148045
-0.000754112
0.0248854
-0.0145548
0.0167333
-0.0270639
-0.066459
-0.0231076
0.0895666
0.0253433
-0.13573
0.12632
-0.0159336
-0.0551283
-0.0599598
0.115088
-0.0284238
0.059686
0.0200932
-0.0513553
0.00308818
0.00377224
0.000857814
-0.00771824
-0.0342155
-0.0379656
0.0993361
-0.0271549
0.000978135
0.00230907
-0.00133064
-0.00195656
-0.055757
0.0273331
0.0582942
0.0632962
-0.0619045
0.00279212
-0.000403928
0.00107337
-0.00346156
-0.0127461
0.00151868
-0.0119164
0.0231438
0.00372397
-0.00352429
0.000691453
-0.000891141
-0.00176683
0.0036238
0.00611328
-0.00797025
-0.00182345
-0.000677716
-0.00113957
0.00364074
-0.00348422
0.0109992
-0.00741779
-9.72235e-05
0.000490768
-0.000402798
0.000802395
-0.000890365
0.0105494
-0.0613387
0.132975
-0.0821859
0.0298993
0.0177004
-0.0475997
0.0341512
-0.0662281
0.0619762
-0.00185001
0.00344463
-0.00113906
-0.000455558
0.00126119
-0.00169811
0.000260333
0.000176579
0.0198867
-0.00206269
0.0144701
0.0153531
-0.0216786
-0.0213329
0.00562462
0.0301784
-0.0112571
-0.000828837
0.0088449
0.00324104
0.000887012
0.000381303
-0.000610882
-0.000657433
0.00309646
0.0046469
-0.0022823
-0.00546107
0.0116459
0.00509821
-0.00268553
-0.0140586
-0.00181808
0.00103256
0.000564347
0.000221173
-0.0349158
0.0528747
0.0418108
-0.0597696
0.00605581
-0.00909345
0.000760197
0.00227744
0.0206102
-0.0555261
0.0266879
-0.0201992
0.027779
-0.0342676
0.00911783
-0.0475738
0.0651438
-0.0517945
0.130592
-0.0176202
0.0347509
-0.0694493
0.0013195
0.0004077
-0.00258673
0.000859527
0.00692585
-0.0103817
-0.00191411
-0.0239071
0.0347492
0.0791357
-0.0899778
0.00319106
-0.00979678
0.00272871
0.00387701
-0.00600267
0.0158492
-0.00343952
-0.00640698
-0.00101357
-0.00466765
0.00169759
0.00398363
0.00121972
-0.00283066
0.00406997
-0.00245903
-0.000926094
0.00037717
0.00143593
-0.0017209
-0.000599675
0.00494451
-0.00262393
0.00691588
0.00743537
-0.00976721
-0.00458405
0.000943236
-0.00501217
0.0109848
0.00824506
-0.00716082
0.00142121
-0.00250545
0.0190072
-0.0371819
0.00958603
-0.000511345
0.000578499
-0.000566002
0.000498848
-0.0861642
0.00329721
-0.0655068
0.0693924
-0.00388556
-0.00183292
-0.00193692
0.00782008
-0.00405023
0.0922017
-0.0518838
-0.100002
0.0596839
-0.0273542
-0.0632969
-0.0411344
0.000503959
0.0028118
-0.000377643
-0.00293811
-0.000315426
0.00362268
-0.00112312
-0.00218413
-0.00337284
0.0042817
0.000851912
-0.00176077
0.000441403
-0.000283529
3.50999e-05
-0.000192974
0.000474964
0.00073504
-0.00184184
0.000631835
0.00215046
-0.0141727
-0.00539313
0.0174154
-0.0254978
-0.0531415
0.0877572
-0.0599448
-0.0689815
-0.0171506
0.146077
-0.000196848
0.00110244
-0.00187307
0.00096748
0.000617261
-0.00210896
0.000528399
0.030023
-0.0597845
-0.0201246
0.0297961
-0.0351694
0.0013684
-0.00360209
0.0014493
0.000784392
0.0051162
-0.00206004
-0.00183644
-0.00155675
0.000315756
0.000791427
0.00044957
0.00199029
-0.00464424
-0.000158362
0.00281232
0.000800105
-0.000182844
-0.0164997
0.00348586
0.0123063
0.000707635
0.0900636
-0.0277585
-0.032733
-0.0295721
-0.0156152
-0.0434254
0.151242
-0.00783206
-0.00763529
0.0088571
-0.000695157
0.0478855
-0.0614507
0.0161473
0.0668152
-0.0203468
-0.0626157
-0.000676498
0.000362297
-0.000313865
0.000628066
0.000847768
0.00168068
-0.00337655
-0.00801303
-0.0163443
0.0168472
0.00751013
-0.00175076
-0.00285695
0.00288681
0.00043961
-7.4284e-05
-0.000846999
0.000481673
0.0034365
1.7888e-05
0.0385518
-0.0420062
0.030899
0.000163003
-0.0276255
-0.00710615
0.00157884
-0.0494321
0.00659417
0.03753
0.0053079
0.0351307
-0.0351381
7.46676e-06
-0.0189039
-0.0435301
0.0130019
0.0402265
0.00149833
0.00363689
-0.00165661
0.000590374
-0.00257065
-0.00336828
0.01125
-0.00109386
-0.00678786
0.00742124
-0.0117035
-0.0013896
0.0056719
0.00789842
-0.0111762
0.010699
-0.0184958
0.0122137
-0.00523741
0.0115195
0.0164942
-0.0140586
-0.0209314
-0.0251498
0.013212
0.0120556
-0.000117849
-0.0140753
-0.00317608
-0.00262533
0.000505716
0.00143878
0.000680833
-0.00102292
-1.11105e-05
-0.000527304
0.00156133
0.00115533
0.00162037
-5.18515e-05
-0.000581246
0.000633098
0.00838783
-0.00939512
-0.0184605
0.0194678
-0.00506433
0.018974
-0.000168426
-0.0137412
-0.00324901
0.000957981
0.00205424
0.000236792
-0.000687932
0.000286139
-0.000129859
0.000531652
-0.00546384
0.00683661
0.00250535
-0.00387813
-0.000988386
-8.63864e-05
-0.00119722
0.000882557
-0.00067372
-0.00361721
0.00205582
0.00519594
0.00411098
-0.00233001
0.00327204
-0.00505301
-0.0375811
0.0659033
0.0382511
-0.0665733
-0.00026022
-0.00174199
0.00080499
0.00129711
-0.000414551
0.00121072
0.0233979
0.0161325
-0.0395303
0.0434911
-0.0559647
0.0428576
0.0427627
-0.0296556
0.0257331
-0.0225672
-0.0653179
0.0254857
-0.0223115
0.105393
-0.0573479
-0.00062811
0.00156946
0.0115508
-0.0124922
-0.0329444
-0.0517865
0.0236075
0.0611234
-0.00112815
-0.000429002
0.00208276
-0.000525616
0.00954105
0.014442
-0.023983
-0.0035749
-0.00677945
0.00892627
0.00142808
-0.0194194
0.0390231
-0.00763836
-0.0119653
-0.0258447
0.0258399
4.87917e-06
0.0638003
0.0391447
-0.154829
-0.0382005
-0.00706362
0.035838
0.0032029
0.000308303
0.0001331
0.00171304
-0.00116791
-0.000571599
2.64733e-05
0.00172255
-0.00271746
-0.000941966
0.00193688
0.000475229
0.00072689
-0.000387235
-0.000814883
-0.00297193
0.00270283
-0.00136178
0.00163088
0.000779866
-0.000356873
-0.000590775
0.000167782
-0.00231435
0.00121791
0.00723818
-0.00614174
-0.00117221
7.35331e-05
0.00027432
0.000824362
-0.00400769
0.00213542
-0.000537705
0.00240997
-0.00125162
-0.00371774
0.00352234
0.00144703
0.00193242
-0.00167869
0.0014593
-0.0068315
0.00384959
0.00428589
-0.00463352
-0.00144545
0.00179307
0.00161181
-0.00036777
-0.000918698
-0.000325339
0.00641263
-0.00212674
0.00256542
0.00134573
-0.000822972
-0.0505368
0.0581229
-0.00205325
0.000542868
0.00254907
-0.00103868
-0.0354957
-0.00715134
0.00104789
-0.00147994
0.000432049
0.00112369
-0.00142807
-0.000869852
0.00117423
-0.00761667
0.00427025
0.00219145
0.00115497
0.03552
0.013032
-0.0466982
-0.00185384
0.000673548
-0.000651048
-0.000163092
0.000140592
0.000650877
-0.000201017
0.00112348
-0.00157334
2.43306e-05
0.0450306
-0.052182
0.00187098
0.0026955
-0.00132514
-0.00324134
-0.000603298
-0.000722034
0.0010418
-0.0728208
0.0504973
-0.0149747
0.0372982
-0.0217435
-0.0800677
0.0289904
-0.00152679
0.000855405
0.000671381
-0.00700726
0.00652997
0.00362719
-0.00314991
6.02317e-05
0.00280217
-0.00256742
-0.000294979
0.000483803
-7.75305e-05
-0.000406273
-0.0557604
0.0340169
-0.00542982
-0.000742074
0.00352514
0.00264675
-0.000868448
-0.00127465
-0.00283399
0.00497709
-0.00607323
0.0189389
-0.0568724
0.0440067
0.00117161
0.00070102
0.000795166
-0.00266779
0.000190981
-0.00286548
-0.00414007
0.00681457
0.00356317
-0.00194434
-0.000942999
-0.000675834
-0.00186207
-0.0117945
0.00661963
0.00703691
-3.5024e-05
0.00243695
-0.00365355
0.00264645
-0.00250403
-0.0127621
0.0126197
0.00724595
-0.00437673
-0.0106689
0.00779966
-0.00193515
0.00401181
-0.00200539
-7.1275e-05
0.000315935
0.00112456
-0.000430843
-0.00100965
0.000993833
-0.00184286
0.000237393
0.000611633
-0.00146008
-0.00105597
0.000306939
0.00220911
0.00290897
-0.0099847
0.00446851
0.00260722
0.00122503
0.00286654
-0.00671004
0.00261847
0.00718959
-0.00462778
-0.00517891
0.00261711
0.00058229
-0.000455345
-0.000339071
0.000212126
0.0147901
-0.000426837
-0.00717368
0.00227761
-0.00757654
-0.00257325
0.00787218
-0.00607124
-0.000267987
0.00442822
0.001911
0.0048225
0.000413569
-0.00488337
-0.000352702
-0.00122654
0.00283789
-0.00277927
-0.000306938
-0.000116149
0.000423086
0.000488725
-0.000254375
0.00034794
-0.000148497
0.000516734
0.00241129
-0.00277953
-0.00243528
0.000208877
0.000376389
-1.30355e-05
-0.004454
0.0055245
-0.00105746
-0.00794146
0.00207262
-0.00542179
-0.0081929
-0.024208
-0.0207406
-0.0403238
-0.00583225
0.00691248
0.0483892
0.0598191
-0.0644443
0.0143882
0.0523409
0.000255121
-0.0604497
-0.00122623
0.000375133
0.00137382
-0.000522721
-0.113573
0.0196456
0.0305896
0.0633376
-0.0555073
0.0808576
-0.0227612
-0.0025891
0.00231614
-0.00199102
0.0045755
-0.00490062
2.74856e-05
-0.0555347
-0.0019846
0.00176202
-0.00160087
0.00158357
0.00181742
0.000316371
-0.00371736
-0.00199855
0.000759227
-0.00261754
-0.000675258
-0.00367778
3.5542e-05
0.0043175
-0.0555276
0.103713
-0.000493626
0.0035499
0.00354904
-0.00660532
0.0244375
0.0172653
0.0248754
-0.0393215
0.0862516
-0.0363808
-0.00180302
0.000780822
0.000393895
0.0402025
-0.0402571
5.46394e-05
0.0603379
-0.0206729
0.000537439
0.0693316
-0.107811
0.0760097
3.06159e-05
0.0694116
-0.000110654
0.00451268
-0.0119761
0.00881591
-0.00135254
-0.000259752
-0.00226992
0.0030169
-0.00048723
0.00340358
-0.000929824
-0.0027335
-0.0024077
-0.00407564
0.0025049
0.00397845
0.0236882
-0.0475952
-8.06671e-05
0.00141357
0.00211173
0.0695001
0.00223803
-0.000934204
-0.00244288
0.00272779
0.00277902
-0.00210324
0.00228714
-0.000323315
0.000274201
-0.000692464
-0.0010111
0.00137667
0.000326897
-0.00127039
-0.000155189
0.000733114
-8.59504e-05
-0.000190605
0.129878
0.00136151
-0.00118896
-0.0002585
0.000682648
-0.00033224
0.0641892
-0.0603448
-0.00384445
0.00641616
0.00378484
-0.00700994
-0.00741546
-0.00579828
0.0144785
-0.00126472
-0.00622476
-0.00481634
0.00516298
0.00587812
0.00430176
0.00471931
-0.00491416
-0.00410691
-0.00848396
0.0226818
-0.0192696
0.0050718
0.000551451
0.0018413
-0.00923806
0.00684531
-0.00185744
0.011401
0.000910632
-0.0104542
0.00899849
-0.0134803
-0.000590634
0.00120563
-0.00729608
0.00854612
-0.00245567
0.00262492
0.015019
-0.0178431
0.000199155
0.00271746
-0.00135731
0.000940879
-0.00230102
-0.00191954
-0.00240571
0.00164328
0.00268196
-9.74553e-05
-0.000636098
0.000733553
0.0061052
0.000465953
-0.00368445
-0.0028867
-0.000630901
-0.000837481
0.000319663
0.00114872
-0.00312715
0.000340154
-0.00158797
0.00437497
0.0175689
-0.0234852
2.86803e-05
-0.000278803
0.000538618
-0.000288495
-0.0046229
0.00213561
-0.000639858
-0.00422668
-0.00472183
0.00523767
0.00371084
0.00951025
-0.010746
0.000253251
0.000982467
0.000837642
0.00487922
0.0112694
-0.0169863
-0.0174066
-0.0022272
0.013329
0.00630485
0.000116471
0.000373963
-0.00152959
0.00103915
0.000975033
0.00287605
-0.00312074
-0.000730347
-0.00110686
0.00102304
-0.000184811
0.000268635
-0.00180658
-0.0018602
0.00104145
-0.00120438
-0.00514765
0.00754126
-0.00118923
0.000270826
0.000675838
0.000232759
-0.00117942
-0.000727893
0.000217617
0.000510276
-0.0018648
-0.00093391
0.000109827
-0.00268875
-0.0100617
-0.00134179
0.0140923
-0.000966489
0.00139649
0.00463823
-0.00506824
-0.000735709
0.000575132
0.00282755
-0.00266697
-0.000641812
0.0020442
-0.00498929
0.0035869
-0.00117645
0.00055285
0.000522205
0.000101391
0.00333032
0.00214506
-0.00580035
0.000324979
-0.0108848
0.000449097
0.00281908
0.000354969
-0.000721961
0.00162819
0.00693788
0.00060909
-0.000111604
-0.0103696
0.00508246
0.0100514
-0.00476421
0.026082
0.0598743
-0.123537
-0.00488242
-0.00173681
0.003135
-0.00211235
-0.0143862
0.00788715
0.00374129
0.00259381
-0.00865425
0.00231915
-0.00485626
0.00917178
-0.0141843
-0.00842075
0.0167269
-0.00449672
-0.00380946
0.00166543
-0.00330008
0.00321678
-0.00158214
-0.000411667
0.000721487
-0.00030982
0.00521848
-0.0057517
0.000156569
0.000376658
0.00403786
-0.00678451
0.000902514
0.00184414
0.000409727
0.00278121
-0.000246759
-0.00294418
-0.000499848
-0.00944679
-0.000116222
0.0100629
0.0048035
-0.00449835
-0.00116274
-0.000438976
-0.0038281
-0.00158432
0.000964319
0.00042315
0.00178537
0.00226422
-0.0113953
0.00734568
0.000983056
-0.00157034
-0.000624495
0.00121178
0.0536059
-0.0783122
0.0247063
0.0012089
0.00145381
-0.0015618
-0.0011009
-0.00272612
-0.00107314
0.00379925
-0.00154919
0.000782387
0.000766807
-0.0578149
0.089339
0.00425286
-0.035777
0.00154319
-0.00101354
-0.000399548
-0.000130101
-0.000426797
0.00196999
0.036227
0.0040549
0.0146382
-0.00404442
-0.0107641
0.00263416
0.0121743
0.00182763
-0.00244812
0.000193694
0.00132806
0.0102351
-0.00726144
0.00548044
-0.00365281
0.00396312
-0.00606504
0.0035609
-0.00145897
-0.00754187
0.00401667
-0.00514508
0.00867029
0.00124127
-0.00725177
0.00504402
-0.00452734
-0.00327642
-0.00205715
0.00986091
-0.00434426
0.0037133
-0.000104749
-0.00240545
-0.00070701
0.00242195
0.000690509
0.0012677
-0.000461231
-0.000806469
0.00806407
-0.00893126
0.00210846
-0.00776072
0.00186468
0.00557832
0.000317718
0.00049234
0.000196404
-0.000500567
-0.000188178
-0.00155897
8.2981e-05
0.00306567
-0.00158968
-0.00526182
-2.25191e-05
0.00668083
-0.00139645
-0.00016133
0.00613114
-0.00457336
-0.0213694
0.00079304
0.00257038
0.018006
-0.000859476
0.0047233
-0.00133998
-0.00252384
0.00104326
0.000811001
-0.00115377
-0.000700487
-0.000589056
0.00878643
-0.00869287
0.000495491
0.00213603
0.000768959
0.00361407
-0.00651906
0.00373578
-0.00190451
0.000362507
-0.00219378
0.000274115
0.00237171
0.00919548
-0.0118413
0.00790394
-0.00400598
0.0117968
-0.0156948
0.00194831
0.000875752
0.000222496
-0.00304655
0.000256196
0.00150038
-0.000773523
-0.000607618
0.00222944
0.00359666
-0.000975369
0.000624391
-0.000339281
0.000690259
0.000647229
0.000994672
-0.00184581
0.000203908
-0.000406133
-0.00244365
0.00182874
0.00102105
0.00183167
0.00132072
-0.00317239
1.99965e-05
0.00314968
-0.000761807
0.000339923
-0.00928972
-0.00513213
0.0163207
-0.000203256
-0.000924772
-0.000690052
-0.0192503
-0.00870515
0.0112243
0.0167312
-0.00698072
0.00325972
-0.00604621
-0.000491679
0.00127404
-0.00375429
0.00338764
-0.00389931
0.00138573
-0.00087406
0.000817005
-0.000795988
-2.10172e-05
0.000392805
-0.000502346
0.000856149
-0.000746608
-0.00763716
0.00430744
-0.00144838
0.00477811
0.000668218
-0.000471721
-0.000310267
0.00011377
1.69274e-05
0.00026226
0.000764069
0.00694321
0.00253371
-0.00763415
-0.00184277
0.0294249
-0.0175017
0.0022665
0.00112169
0.000824627
0.00128329
0.000647509
-0.00275543
0.00052285
-0.000474203
-4.86464e-05
0.00788271
0.00657385
-0.0227619
0.00830532
0.000196982
-0.00107656
-0.00203624
-0.00167076
0.00141072
-0.00315288
0.00341292
-8.33779e-05
0.00197928
0.000940437
-0.00283634
0.00368273
-0.00189016
-0.00353537
0.0017428
-2.00521e-05
-0.00406852
0.00210398
0.000811331
-0.00074827
0.000716805
-0.00546446
0.0032316
0.00162525
-2.74755e-05
-0.000463122
-0.000675366
0.00116596
-0.0022943
0.00104697
-0.00226407
-0.000232248
-0.00417022
0.000746311
0.00365616
0.00115727
-0.00065312
-0.00155
0.00104585
0.000382531
-0.000134244
-0.00474601
0.00449772
-0.00124415
0.00184708
0.000143626
-0.00074656
-0.00340074
0.0038643
-0.00187357
0.00141001
-0.000119414
0.00201647
0.00114711
-0.00265786
0.00199995
-0.00246778
0.00815343
-0.00768559
0.002746
0.00256738
0.00255323
-0.00786661
0.0235416
-0.00647392
0.0159268
-0.0329945
0.000742137
-0.00720029
0.00282378
0.00363437
0.00341034
-0.00275115
0.000496141
0.00213485
-0.00147843
0.00302631
0.000923874
0.00583108
-0.00428883
-0.00246612
-0.0167081
-0.00191817
0.0233633
-0.00236435
0.00148796
0.000756978
-0.0187339
-0.0126947
0.0260622
0.00536646
0.0694969
0.0440078
-0.055255
0.00225729
-0.0021287
0.000424283
-0.000552877
0.00126155
-0.000815811
-0.000794124
0.000348389
-0.000167154
-0.00214084
-0.00169969
-0.000611403
-0.00291815
-0.00568351
0.00921307
-0.00228194
0.000671125
0.00206872
-0.000457906
-0.0485522
0.0465494
-0.00577594
0.00777871
0.0021067
-0.00260991
1.9377e-05
0.000483831
8.89481e-06
-0.0024801
0.00288093
-0.003885
0.0755201
-0.12945
0.000168495
-0.000210066
0.00300509
0.0133821
-0.00693864
-0.00687025
0.000135167
0.00120772
0.00103258
-0.00237547
-0.00790456
0.00407357
-0.0035711
0.0074021
0.000807608
0.0027622
-0.0014404
-0.00212941
0.00209965
-0.00183314
0.00146161
-0.00172811
-0.00115743
0.00141689
-0.00267759
0.00241813
0.000204854
0.00152311
-0.0011738
-0.000554164
0.000783444
0.00213973
-0.000816471
0.00263892
-0.00159928
-0.00308485
-0.00285139
0.00117551
-0.00468573
0.00564773
-0.00164702
-0.00550059
-0.0100127
3.13663e-05
-0.00196607
-0.00203682
0.00375386
0.00184613
-0.0416942
0.0101491
0.020224
-0.00310904
0.0143786
0.0123808
-0.0236503
0.00211454
-2.64002e-05
-0.0017389
-0.000349245
0.00190844
-0.00133463
0.00154072
-0.00756097
-0.0248703
0.00808093
0.0243503
-0.00117731
-0.00168949
0.000287732
0.00257907
0.0178289
-0.00577328
-0.00314516
-0.00891047
-0.00151802
0.00052508
-0.000834677
0.00283451
-0.0026732
-0.00564614
0.00548484
-0.00501402
-0.00266222
-8.0841e-05
-0.00425253
0.00408123
0.00347351
0.00436859
-0.00684537
-0.000996732
-0.00213846
-0.00172909
0.00142879
0.000247872
-0.000277954
-0.000697811
-0.000643119
-0.00329043
0.00171676
0.00221678
-0.0240164
-0.00407734
0.000939686
-0.0140619
0.00223737
0.0112044
-0.00672646
0.0024653
-0.005804
0.00603474
0.00349324
-0.00670815
-0.00591933
0.0054538
0.00388355
0.00453031
-0.00593755
-0.00247631
-0.00222027
0.000846739
0.00705497
-0.00568144
-0.00126584
0.000265801
0.00422848
-0.00322843
-0.0336106
0.0115984
-0.00332614
-0.00221906
-0.000765552
-0.00223517
0.00359428
-0.00059355
-0.00748874
-0.000712813
-0.00119461
-0.000435417
-0.00117388
0.00142089
-0.000691092
-0.000481122
0.000709886
-0.000905608
0.000195722
0.00044969
-0.00133157
0.000647601
0.000234279
-0.00144479
-0.0105764
0.0145549
0.00135609
-0.00134864
-0.000888562
0.000881111
0.00208111
0.00406931
0.00220795
-0.00482759
-0.00144968
0.000634534
0.000427641
0.00257471
-0.0017237
0.00864955
0.00405485
-0.00497607
-0.00260306
0.0425569
0.0209833
-0.0253978
0.00281175
0.00160274
0.0141984
-0.0021081
-0.00877605
-0.00331423
0.00513968
-0.0117228
0.00902938
-0.00244625
-0.0216339
0.0115216
-0.00862164
-0.00812002
0.00728691
0.00951854
-0.00868542
0.0842752
0.0136244
-0.0978996
-0.00414342
0.009132
-0.00189212
-0.00125585
0.00127278
-0.000490144
0.0029779
0.00142863
0.000369088
-0.00168842
-0.000109302
-0.0019202
0.00999688
0.000789625
-0.0088663
-0.000602409
0.000119867
0.000875347
-0.0635857
0.0616778
0.00190782
0.00855823
-0.00570211
-0.0112065
0.00835041
0.0161314
-0.0175509
-0.000972073
0.00094585
-0.00292715
0.0017875
-0.00115994
0.000193252
0.00287155
-0.00124079
-0.00065262
0.00327053
-0.00505681
0.00138015
0.000455864
0.00110349
-0.000849471
-0.00210554
0.00157148
-0.000571667
0.00292829
0.000885571
-0.00145823
-0.00150597
-0.000143829
-0.00111603
0.00102723
0.00806326
-0.0097186
-0.000175133
0.000532941
-0.000513374
-0.00121313
-0.00380495
0.00292732
0.00282646
-0.00255933
-0.00319444
0.00128262
-0.000118212
0.0017629
-0.000894519
0.00138503
0.00233595
0.000431525
-0.00391384
0.000838231
0.000928049
0.00214756
0.00264153
0.000120328
-0.00391928
0.00738678
-0.00638256
0.00748058
-0.0084848
0.00804422
-0.00980713
0.00421129
0.00130725
-0.00145393
-0.00406461
0.000688171
-0.000199446
-0.00645884
-0.0137424
0.00438694
0.00419005
0.00516541
-0.00225202
-0.00120964
-0.00288983
-0.000268048
0.00135098
0.00180689
-0.000858568
0.0016059
-0.00335196
0.00109331
-0.000611601
-0.000126744
0.00105147
0.00572887
-0.0045509
-7.30366e-05
-0.000913009
-0.00207757
0.00306362
0.00066521
0.00305378
0.140463
0.0049934
-0.094354
0.00159841
0.000772475
-0.000942256
0.00102267
-0.00588395
0.00137564
0.00348564
-0.00264791
-0.00565241
0.00495968
0.00334063
-0.000495644
0.00374183
-0.00307544
0.00310477
-0.00346706
0.00343772
-0.00170832
-0.00125784
-0.000416065
0.00338222
-0.00391241
0.0023182
0.000346577
0.00414809
-0.00727482
-0.00764431
0.00206501
-0.00317002
-0.000907103
0.0036778
0.000501129
0.00245028
-0.00153453
-0.0042584
0.00169946
-0.000516492
-0.000235165
-0.00182304
-0.00349752
0.00212247
-0.000918873
-4.51424e-05
-0.00253351
-0.00211791
0.00522737
-4.68998e-06
0.00201534
-0.00354008
-0.000512083
-0.00187209
-0.000695785
0.00165486
-0.000197213
9.48503e-05
0.00199141
-0.00188905
-0.00315326
0.0035084
-0.000552354
-0.0306218
-0.0251449
-0.00020284
-0.00186783
-0.00108258
0.00143006
-0.000131743
-0.00017462
0.000835107
0.000417099
0.000177849
0.126978
-0.0481713
-0.113023
0.039101
-0.0318933
-0.00570938
0.000367781
-0.00213112
0.000335274
-0.00181145
0.000632356
0.00030924
3.35826e-05
-0.00244727
-0.00153435
-0.00506199
0.00436117
-0.00243353
0.00417308
-0.00274046
0.00100091
0.0046499
-0.00233053
-0.0026348
-0.000632065
0.00117699
0.00343789
0.00130232
-0.00349817
-0.00198272
-0.00128192
0.00362141
-0.000356766
-0.00274259
0.00207866
0.000580551
-0.000745913
-0.00193644
-0.00337408
-0.00168428
0.00330064
0.00175773
-0.0011035
0.00180925
0.000794634
-0.0020977
0.0413886
-0.0001032
-0.000329297
0.0165803
0.017229
-0.0334801
0.0131023
-0.0272925
0.0138608
0.00867403
-0.0189387
0.010211
5.37021e-05
0.00949869
0.00997244
-0.0107971
-0.00739711
-0.0122624
0.000720757
-0.0253684
0.0289574
-0.0113515
0.0146083
-0.000610378
-0.00159479
0.000454311
0.00655513
-0.00170936
-0.0145341
0.00968834
0.00622977
-0.00677413
0.00568404
-0.0165568
0.0206802
0.00210641
-0.0166033
-0.000959962
0.0154128
0.00215048
-0.00768388
0.0120481
-0.00421389
0.00346132
-0.00797005
-0.000181867
0.000383291
-0.00152392
0.00132249
0.00219756
-0.00116528
-0.00119943
-0.00066798
0.000791856
-0.00255741
0.00582051
-0.00908685
-0.0113026
-0.0105885
0.0018075
0.000660929
0.00617184
-0.0078917
-0.0123554
0.00138562
-0.00840243
0.00969879
-0.0214051
0.0021625
-0.00819628
0.0063638
-0.00703356
0.00886604
0.0042884
-0.00109782
-0.0041204
0.00389306
-0.00320041
0.00260865
-0.00330129
-0.0027724
-0.00216063
0.00366718
-0.00191837
-0.00338304
0.00184537
0.00345603
-0.00017214
-0.000960218
-2.75844e-05
0.00315975
-0.00231591
0.00230584
-0.00264077
0.00278492
-0.00138199
0.00123784
0.00356838
0.00108171
-0.00292754
-0.00561989
-0.00112651
0.00215525
0.00459115
-0.0011227
-0.000319496
0.000215959
0.00280616
-0.00468143
0.00297905
-0.00110377
0.00301442
-0.00384619
-0.00593213
0.00676391
0.0045827
-0.00298295
0.00120641
0.00844057
-0.000843448
0.00238094
-0.00505712
0.00324379
-0.000567612
0.0014177
0.00340033
-0.00243709
-0.0101639
0.00395767
-0.00465678
0.010863
0.0146019
0.00359518
-0.0116139
-0.0071353
0.00591287
0.00676162
-0.0055392
-0.00144421
0.0119188
-0.00645787
0.140611
-0.0691597
-0.00592406
0.0201716
-0.00974614
-0.00696414
-0.00605972
0.0098363
-0.00388545
0.00010887
-0.00125401
0.00121946
-0.00183754
0.00192863
0.00188432
0.00224286
0.00415204
-0.00676589
0.00454248
-0.00235924
0.00045156
0.00568738
-0.0012224
0.00537132
0.00238369
-0.00105481
-0.00279668
0.00146781
-0.00113217
0.0045166
-0.00100074
-0.00852119
0.023463
0.00290101
-0.000556437
-0.00196944
0.000106841
0.00160311
0.00119105
0.0012624
-0.000547296
-0.00127154
0.0025947
-0.00088302
-0.000449275
-0.00191004
0.000602019
0.00141486
0.000799559
-0.00075065
0.000723214
-0.00290687
-0.000224051
-0.00157537
0.00506198
-0.00435507
0.0063459
0.00316882
-0.00906563
-0.00208138
0.00456219
0.00178945
-0.000116041
0.00438056
0.00214091
-0.00657191
0.00431497
-0.00784696
-0.000535529
0.00779343
-0.105585
-0.0323819
-0.042717
0.180684
-0.00897863
-0.00244322
-0.00872396
-0.00352159
0.0054661
0.153052
-0.0624506
0.0837615
-0.174363
-0.0473468
-0.0783599
0.124457
0.00124963
-0.000101029
0.0083343
-0.00885667
0.00260833
-0.000980089
0.0129658
-0.014594
-0.0002892
-0.019251
0.0095431
0.00999713
0.00535196
-0.0365152
-0.00380393
0.0349672
0.00339923
-0.0151902
0.012065
-0.00506713
-0.0101391
0.00563681
-0.00400988
0.0112105
0.0324886
0.038877
-0.00190387
0.0616442
-0.0755503
0.00752929
0.00210777
-0.00225028
0.00403004
-0.00152107
-0.00375575
0.00124678
-0.000468437
0.00558571
-0.00108724
-0.00048204
0.00301292
-0.00198624
-0.000544642
0.00284012
-0.0016112
-0.00171096
0.00270951
-0.00234069
-0.00958104
0.00921221
-0.000850424
0.00142593
-0.0015708
0.00099529
-0.00113961
-0.00137763
0.00206168
0.000641235
0.000857717
0.000148394
0.00167715
-0.00133603
-0.00129423
0.000953112
0.00242983
-0.000177548
-0.000544025
-0.00254082
-0.000526078
0.00361093
-0.0137232
0.0285156
-0.0307711
0.0159788
-0.0083319
-0.0076534
0.00345213
0.00996191
-0.00771667
-0.00569737
0.0250723
-0.0189057
-0.000814555
-0.0292368
0.00911219
0.0244178
-0.00429314
-0.010125
-0.0318065
0.00461345
-0.00812713
0.00809245
-0.00457877
-0.0117253
0.000100196
0.0133781
-0.0175864
0.00882629
0.00847092
-0.00552445
-0.000971997
0.0143936
0.00745781
0.00421079
-0.00936069
0.0182299
-0.0025033
0.00171626
0.00081265
-2.56073e-05
-0.00323052
0.00131683
-0.000490208
0.00240389
0.000723306
0.00032982
-0.00428365
-0.000209775
-0.000164077
-0.00212945
0.00094535
-0.000640979
0.000716249
-0.00102062
0.000108106
-0.00112277
-0.000226227
-6.90108e-05
0.000786006
0.00119109
0.000787003
-0.00112407
-0.000854022
-0.00026986
0.000338273
0.000572854
-0.000641268
0.000554437
0.000366791
0.00225254
-0.00163483
0.00359357
0.00024822
-0.000943428
0.00294775
-0.0103493
0.00730134
-0.00867736
-0.00309235
0.0116557
-0.0057288
-0.00905752
0.0104502
-0.00339364
0.00819138
-0.00460676
-0.00548664
-0.000256613
-0.00582173
0.00541974
0.00378935
-0.00299498
-0.00621411
-0.000136019
0.00537807
0.000177693
-0.00292161
-0.00793367
0.00816653
0.00881179
-0.00824754
-0.0080604
0.000674011
0.0111298
-0.00374336
-0.00175552
0.000689433
0.00193943
-0.000873337
0.00449984
-0.00328824
-0.009272
-0.00079326
0.00360129
-0.00208481
-0.00223456
0.0558405
-0.000674313
-0.0331654
0.0202256
-0.00208174
0.00900738
0.00845742
-0.0079793
-0.00436357
0.0549846
-0.0287576
0.0565699
0.00510861
-0.000491164
-0.0049941
0.000376655
-0.00130268
0.0683545
-0.0670518
-0.0661382
-0.080563
0.0813535
0.00658523
0.0025737
-0.00405031
-0.0022624
0.000293938
-0.00767012
0.00688502
0.00261115
-0.00641456
0.00518907
-0.00138566
0.000861992
-0.00933695
0.00266723
0.000918916
0.00160292
-0.00663645
0.00683606
-0.010093
0.0171603
-0.00965155
-0.163266
-0.0541401
0.0418966
-0.027892
0.0210565
-0.000881038
3.87964e-05
0.000842241
0.000918173
0.0045271
-0.00472196
0.000160324
-0.00330272
0.00406057
0.000339988
-0.00122103
-0.00339704
0.00432876
0.00322704
-0.00415877
0.00276388
-0.00537598
-0.00458757
0.00719967
-0.00050441
0.0048532
0.00163453
-0.00598332
0.0223334
-0.0230629
-0.00153271
0.00226222
-0.00747151
-0.000422527
0.00512199
0.00277205
-0.00294738
0.00163057
0.00190629
-0.00058948
0.00261556
-0.0070036
0.0024685
0.00216316
-0.00249497
-0.000654924
0.00264738
-0.000361893
0.00289654
-0.00115822
0.000424837
-0.00935817
0.00858574
-0.000763147
0.000406275
0.00839166
0.000161086
-0.015688
0.00204573
-0.00237097
0.00258254
-0.0013789
0.00211997
0.000232353
-0.00108566
0.00280592
0.00104382
-0.00276409
-0.00498711
-0.00378754
-0.00127576
-0.00240822
0.00104382
-0.00073552
0.00349893
-0.0246552
0.0161084
-0.00069332
1.06008e-05
0.00143203
-0.000749307
-0.0049177
0.00206204
0.00387833
-0.00128484
-0.00155764
0.00215139
-0.000120851
-0.00111997
0.000422171
0.000818648
0.00063133
-0.000413713
0.00259511
-0.000100117
-0.00699084
-0.000329642
-0.00560551
0.00935358
-0.00341843
-0.0023934
0.00344303
-0.0017771
0.00072747
0.00165454
-0.001705
0.00849103
-0.00307296
0.00730679
-0.00456347
0.000706756
-0.000214416
-0.00451723
0.010876
-0.00359484
-0.00751984
0.00246953
-0.0039993
0.0060943
0.00179805
0.00213384
0.00171037
-0.00215471
-0.00389993
-0.00153987
0.00297305
6.86794e-05
-0.00150187
0.00505567
-0.000762375
-0.00311759
-0.0011757
-0.00366838
0.00538695
-0.00382862
0.00211004
-6.87751e-05
0.00121943
-0.00154432
0.00389599
-0.00357109
-0.000423941
0.000781261
0.000126484
-0.000511091
-0.00561194
0.00387454
0.0022485
-0.000240099
0.00279806
-0.000208968
-0.002349
-0.000462078
0.00232648
-0.00223097
0.000366572
0.000925209
0.000926773
0.0095461
-0.00534238
-0.00513049
-0.000409782
0.0059942
-0.000468212
0.00540447
0.007978
-0.0102996
-0.00228643
0.00392845
0.000503038
0.0049915
0.00756451
-0.00804333
0.00171345
0.00304079
0.00328999
0.000198898
-0.000737154
0.000538256
0.00109388
-0.00168194
5.91877e-05
0.00052887
-0.000599652
0.000307955
0.00291782
-0.00262612
-0.0018142
0.0020555
-0.00349031
0.000979178
0.000739608
0.00122628
-0.00294506
-0.00102088
-0.000891977
0.00191285
0.00225198
-0.000667937
-0.000776433
0.00270654
0.00108209
-0.00131562
-0.00143967