/*--------------------------------*- C++ -*----------------------------------*\
| =========                 |                                                 |
| \\      /  F ield         | OpenFOAM: The Open Source CFD Toolbox           |
|  \\    /   O peration     | Version:  2506                                  |
|   \\  /    A nd           | Website:  www.openfoam.com                      |
|    \\/     M anipulation  |                                                 |
\*---------------------------------------------------------------------------*/
FoamFile
{
    version     2.0;
    format      ascii;
    arch        "LSB;label=32;scalar=64";
    class       volScalarField;
    location    "0.0263738";
    object      k;
}
// * * * * * * * * * * * * * * * * * * * * * * * * * * * * * * * * * * * * * //

dimensions      [0 2 -2 0 0 0 0];

internalField   nonuniform List<scalar> 
3946
(
0.352494
0.37795
0.351377
0.349295
0.383075
0.373294
0.385499
0.350756
0.389848
0.353298
0.35183
0.350194
0.498238
0.393492
0.379834
0.351052
0.345251
0.351632
0.348258
0.350548
0.367928
0.347134
0.360952
0.376888
0.368506
0.360915
0.387508
0.385116
0.349405
0.351705
0.353535
0.349338
0.339935
0.347867
0.382343
0.350558
0.38525
0.382184
0.379
0.374503
0.349645
0.348636
0.372752
0.356907
0.375985
0.359033
0.350819
0.377716
0.379303
0.352785
0.353272
0.376184
0.354342
0.351082
0.35559
0.355819
0.351062
0.356422
0.381851
0.356103
0.35506
0.313593
0.351499
0.358025
0.355121
0.287488
0.368459
0.20417
0.237701
0.381908
0.354478
0.384463
0.5694
0.348103
0.382452
0.344627
0.353051
0.360941
0.354378
0.366232
0.318613
0.361409
0.353206
0.383009
0.367579
0.457554
0.538764
0.263884
0.292949
0.253762
0.889028
0.563627
0.3557
0.385546
0.41014
0.394229
0.390954
0.362076
0.352101
0.345972
0.369076
0.375631
0.374742
0.895318
0.385316
0.387997
0.635778
0.360084
0.373779
0.39607
0.407011
0.37589
0.348247
0.414058
0.395575
0.352689
0.413649
0.350498
0.283497
0.329451
0.379718
0.360304
0.351623
0.377776
0.350317
0.352693
0.850345
0.4095
0.383988
0.3542
0.377187
0.73547
0.354026
0.356284
0.369301
0.602717
0.376859
0.69058
0.351187
0.861426
0.539535
0.741773
0.357376
0.352151
0.390632
0.370759
0.363257
0.3572
0.377626
0.36255
0.389172
0.410045
0.38368
0.356485
0.36884
0.354447
0.352402
0.351889
0.348364
0.367221
0.35049
0.359201
0.541918
0.37089
0.350059
0.35893
0.349432
0.378846
0.372118
1.12223
0.388817
0.649137
0.357649
0.385137
0.35487
0.35029
0.361648
0.360721
0.380476
0.386695
0.356745
0.352869
0.357623
0.349926
0.378896
0.385537
0.378324
0.350001
0.357317
0.369886
0.462328
0.359189
0.381429
0.375692
0.441147
0.40799
0.354768
0.352823
0.365263
0.350767
0.353364
0.352823
0.352169
0.348523
0.353372
0.388015
0.374461
0.355682
0.374764
0.38617
0.375325
0.3897
0.360765
0.370996
0.411051
0.353782
0.36423
0.350788
0.355123
0.352855
0.284058
0.334125
0.375197
0.360287
0.355083
0.223522
0.224447
0.378238
0.361178
0.232901
0.364851
0.356451
0.354167
0.454407
0.348476
0.402404
0.357042
0.372363
0.410372
0.358927
0.350587
0.268151
0.283018
0.771522
0.36697
0.356514
0.392052
0.369121
0.35029
0.376195
0.359944
0.77483
0.379001
0.415572
0.383187
0.351501
0.364476
0.355268
0.390033
0.375481
0.546816
0.279837
0.334182
0.376973
0.407158
0.354888
0.368559
0.370926
0.400492
0.344252
0.378129
0.38676
0.364925
0.354417
0.355582
0.356314
0.355449
0.381862
0.393413
0.386145
0.393439
0.378203
0.378103
0.377646
0.35843
0.387458
0.373594
0.354489
0.390683
0.37452
0.389717
0.374626
0.360433
0.366149
0.348316
0.400503
0.372611
0.379359
0.355379
0.270187
0.349931
0.300312
0.229597
0.350679
0.376348
0.350371
0.842855
0.752714
0.366713
0.253342
0.334541
0.348268
0.332928
0.281007
0.348477
0.846029
0.378922
0.394035
0.370983
0.842235
0.368778
0.684842
0.360454
0.379578
0.35699
0.377002
0.350859
0.369422
0.444286
0.388172
0.37729
0.355514
0.361907
0.769675
0.859037
0.349059
0.366913
0.402618
0.237675
0.329614
0.363121
0.550773
0.447374
0.348206
0.553856
0.525685
0.38614
0.35622
0.733578
0.444726
0.419502
0.425233
1.04143
0.364701
0.50418
0.236453
0.904506
0.35891
0.760192
0.26113
0.609605
0.67771
0.357938
0.370991
0.841407
0.484011
0.439903
0.455932
0.514436
0.457628
0.371875
0.507853
0.375379
0.36181
0.353701
0.357966
0.3895
0.351517
0.386316
0.87305
0.361042
0.366345
0.349435
0.355759
0.402022
0.350235
0.469829
0.411161
0.414882
0.351215
0.807499
0.357243
0.346863
0.479648
0.387738
0.268108
0.354905
0.462962
0.492877
0.350255
0.392622
0.360436
0.350621
0.365239
0.355366
0.351437
0.585909
0.373296
0.35527
0.356156
0.550277
0.35952
0.386037
0.356039
0.354621
0.354191
0.353457
0.37867
0.718741
0.371399
0.355484
0.747724
0.353271
0.854688
0.356642
0.374335
0.35531
0.372361
0.349816
0.35271
0.352991
0.375572
0.352521
0.356397
0.396913
0.381179
0.370126
0.357879
0.354318
0.357586
0.357149
0.355639
0.357684
0.357241
0.355038
0.78833
1.00181
0.408063
0.356055
0.3538
0.364402
0.353125
0.353214
0.353703
0.374676
0.355752
0.35511
0.365366
0.357956
0.35659
0.430478
0.355284
0.371616
0.544687
0.778362
0.839931
0.353651
0.442395
0.732692
0.409454
0.422693
0.512999
0.380375
0.357093
0.352194
0.35659
0.437603
0.352148
0.363856
0.382478
0.426849
1.22275
0.938668
0.387331
0.381823
0.349801
0.377962
0.346376
0.35626
0.358193
0.362217
0.372108
0.364182
0.349797
0.353357
0.359668
0.350521
0.353633
0.378792
0.390065
0.356668
0.350356
0.380907
0.367469
0.371359
0.355526
0.356044
0.966697
0.384987
0.356317
0.46842
0.566527
0.350069
0.495592
0.379323
0.927886
0.432719
0.408396
0.348912
0.36491
0.363179
0.356634
0.380371
0.356266
0.351127
0.351739
0.355722
0.357786
0.491986
0.988486
0.495857
0.809263
0.349287
0.778488
0.328813
1.08407
0.36085
0.3503
0.403209
0.351092
0.355109
0.357544
0.382751
0.354454
0.349501
0.358766
0.380471
0.348486
0.379021
0.355514
0.344487
0.344544
0.362154
0.353888
0.350069
0.352923
0.351035
0.350235
0.358945
0.370717
0.34684
0.378282
0.370904
0.351752
0.353842
0.348896
0.417858
0.360843
0.348498
0.762046
0.357806
0.348058
0.354783
0.352091
0.367357
0.348857
0.356442
0.355841
0.348246
0.354258
0.354983
0.356352
0.356562
0.356806
0.389795
0.352391
0.355538
0.353636
0.356729
0.352668
0.356611
0.349133
0.366908
0.353626
0.348758
0.354957
0.353102
0.38924
0.354331
0.41437
0.351143
0.376581
0.35304
0.549834
0.363422
0.37387
0.359964
0.349051
0.357838
0.353428
0.367975
0.388737
0.375378
0.356258
0.383198
0.373174
0.349153
0.351765
0.379023
0.359381
0.408446
0.833037
0.750765
0.685629
0.370266
0.354499
0.354879
0.345266
0.387106
0.351824
0.361623
0.388425
0.503643
0.551806
0.659649
0.628558
0.345099
0.553678
0.347077
0.536957
0.383718
0.503317
0.349557
0.351231
0.354735
0.35429
0.350541
0.441556
0.348628
0.381534
0.355871
0.373196
0.368204
0.37077
0.397256
0.375639
0.378473
0.354995
0.379105
0.354353
0.363206
0.357366
0.373512
0.352492
0.380909
0.390275
0.375308
0.383491
0.352715
0.372253
0.357664
0.362536
0.350057
0.675973
0.729367
0.506633
0.351492
0.378703
0.392389
0.353697
0.564895
0.497427
0.354044
0.500898
0.390424
0.383414
0.364388
0.365122
0.36975
0.353437
0.349107
0.356606
0.355595
0.372427
0.354901
0.353763
0.624803
0.742835
0.368926
0.862199
1.06411
0.392772
0.357739
0.373249
0.349284
0.353183
0.383665
0.367417
0.380511
0.356963
0.384561
0.378425
0.381627
0.355364
0.383013
0.383949
0.353105
0.356658
0.374405
0.386724
0.387194
0.354881
0.359316
0.35204
0.366502
0.350951
0.398787
0.404257
0.391716
0.354919
0.350487
0.356613
0.351887
0.354109
0.393809
0.381249
0.358537
0.388582
0.351803
0.350996
0.378387
0.349611
0.349878
0.369268
0.361855
0.34576
0.399046
0.354122
0.363772
0.406817
0.434253
0.55699
0.350618
0.732609
0.557303
0.950091
0.541006
0.353774
0.67024
0.486093
0.550652
0.821398
0.387321
0.354064
0.364114
0.348471
0.323177
0.37546
0.391658
0.399018
0.385501
0.358581
0.364573
0.601628
0.420655
0.903242
0.362641
0.534311
0.619525
0.362253
0.350786
0.35729
0.385198
0.369055
0.344693
0.34938
0.350255
0.387482
0.383326
0.345729
0.835015
0.360905
0.362034
0.372265
0.357874
0.358427
0.354035
0.372032
0.358557
0.372567
0.375253
0.342783
0.357738
0.378674
0.370519
0.348288
0.356321
0.37098
0.420443
0.378246
0.358091
0.350087
0.409625
0.383486
0.360942
0.354057
0.393467
0.648765
0.841747
0.427705
0.657759
0.371277
0.361326
0.357234
0.364254
0.368493
0.399467
0.431091
0.404905
0.373941
0.405589
0.353434
0.354408
0.380389
0.371823
0.354823
0.437225
0.370982
0.375301
0.380426
0.697038
0.357568
0.35352
0.550131
0.361102
0.944197
0.557909
0.701311
0.611619
0.36507
0.657955
0.552471
0.570395
0.420208
0.42279
0.437174
0.404479
0.551702
0.36467
0.359539
0.375158
0.360983
0.380858
0.356428
0.385132
0.381075
0.372522
0.358114
0.403139
0.348466
0.357772
0.355861
0.45933
0.439032
0.382892
0.369912
0.362719
0.371845
0.354716
0.353944
0.35168
0.346822
0.373948
0.349881
0.353038
0.368973
0.360713
0.357196
0.369481
0.353929
0.35597
0.369368
0.346664
0.365529
0.349972
0.361642
0.35653
0.350454
0.391003
0.445206
0.364364
0.369494
0.353975
0.351946
0.350932
0.378641
0.364274
0.526806
1.13588
0.375323
0.851638
0.39793
0.371589
0.462495
0.366005
0.410948
0.37024
0.522244
0.361518
0.496313
0.717941
0.883391
0.458715
0.388272
0.354939
0.351451
0.918584
0.351268
0.348551
0.359308
0.701423
0.365765
0.649837
1.01528
0.883323
0.392117
0.370669
0.84067
0.866079
0.367968
0.73791
0.508409
0.538238
0.725095
0.492457
0.344391
0.353962
0.528745
0.393826
0.75034
0.762317
0.371659
0.807673
0.390817
0.588083
0.353689
0.720352
0.392288
0.378886
0.357569
0.367582
0.657799
0.617973
0.354608
0.361746
0.371091
0.354255
0.355686
0.385457
0.545664
0.500391
0.379426
0.368337
0.360048
0.840527
0.90057
0.836918
0.855073
0.635558
0.567157
0.350589
0.432287
0.360317
0.510315
0.469042
0.364034
0.441801
0.399603
0.86036
0.354618
0.360638
0.374972
0.383025
0.350966
0.446345
0.478827
0.350439
0.359978
0.361329
0.344217
0.365263
0.362294
0.369893
0.358581
0.360715
0.355532
0.375231
0.352877
0.61744
0.442045
0.355556
0.38139
0.367726
0.374483
0.351564
0.38958
0.352496
0.356392
0.357498
0.3495
0.49661
0.372618
0.412121
0.399017
0.373226
0.487508
0.3955
0.389738
0.357894
0.398209
0.385084
0.354422
0.352791
0.353472
0.350714
0.375856
0.372079
0.361749
0.362089
0.351029
0.357258
0.385112
0.356275
0.362258
0.354401
0.356002
0.758232
0.81107
0.357525
0.421656
0.477701
0.564484
0.535012
0.369484
0.785265
0.536172
0.8848
0.365159
0.370191
0.349131
0.373907
0.356982
0.355401
0.777893
0.833613
0.356162
0.355817
0.354934
0.352253
0.351179
0.35125
0.350194
0.352652
0.360186
0.368012
0.360068
0.375199
0.351814
0.359888
0.357735
0.350946
0.541066
0.350135
0.350521
0.531206
0.350337
0.353196
0.354417
0.358421
0.359022
0.35474
0.352843
0.350517
0.34987
0.354721
0.353579
0.352708
0.349959
0.351656
0.618654
0.6669
0.786531
0.350027
0.546766
0.368218
0.356304
0.349199
0.350167
0.350061
0.350635
0.360276
0.356251
0.34818
0.349737
0.35131
0.371456
0.507077
0.806678
1.15563
0.84635
0.853719
0.35435
0.364862
0.354125
0.351726
0.355585
0.354601
0.355744
0.352988
0.356629
0.346453
0.369473
0.353542
0.352781
0.351635
0.34472
0.350757
0.355638
0.354334
0.351255
0.351151
0.685276
0.382385
0.510047
0.477995
0.385551
0.414155
0.351249
0.38546
0.3667
0.384457
0.353171
0.348851
0.35125
0.358364
0.3667
0.352373
0.3723
0.357705
0.349588
0.35274
0.36009
0.349429
0.349176
0.382258
0.354974
0.366007
0.348765
0.373774
0.352747
0.366054
0.353863
0.348672
0.352362
0.34866
0.348011
0.348988
0.351144
0.347239
0.361137
0.364315
0.352506
0.351189
0.349252
0.349516
0.355603
0.352334
0.352763
0.351453
0.347907
0.350111
0.353282
0.35122
0.354664
0.366312
0.346993
0.374583
0.347811
0.390001
0.352545
0.348865
0.353496
0.35439
0.356321
0.366745
0.35395
0.356408
0.352613
0.351115
0.36063
0.353694
0.377292
0.353231
0.386207
0.365508
0.351525
0.351196
0.352942
0.360813
0.356252
0.392016
0.350096
0.37704
0.355178
0.354889
0.357606
0.356796
0.345453
0.36434
0.354226
0.36817
0.366839
0.357495
0.362154
0.739562
0.350029
0.35022
0.352739
0.348945
0.356658
0.380321
0.356357
0.354584
0.349582
0.350433
0.348289
0.348938
0.364899
0.349568
0.371725
0.378286
0.367609
0.369173
0.382932
0.380073
0.349263
0.380297
0.351682
0.356824
0.350412
0.349466
0.349167
0.349672
0.642095
0.352176
0.351062
0.351977
0.376381
0.368598
0.37362
0.360908
0.351417
0.353338
0.355143
0.392123
0.357048
0.348566
0.346445
0.350154
0.364242
0.360147
0.380821
0.355791
0.367513
0.392308
0.360892
0.378478
0.352846
0.361391
0.352017
0.351439
0.368242
0.348058
0.383368
0.351459
0.426755
0.404011
0.35055
0.351447
0.351764
0.359707
0.353384
0.34997
0.361361
0.353284
0.35615
0.355532
0.351505
0.357454
0.377933
0.351232
0.360684
0.400377
0.352368
0.385756
0.350388
0.35825
0.376408
0.348739
0.386274
0.782984
0.392539
0.354489
0.357452
0.354089
0.381583
0.350005
0.358352
0.355297
0.353819
0.350407
0.354801
0.385148
0.385388
0.637016
0.355087
0.359947
0.354482
0.357443
0.350164
0.348936
0.348478
0.352186
0.352032
0.378242
0.35284
0.382077
0.55873
0.35021
0.353352
0.35929
0.353751
0.357498
0.357707
0.370402
0.388866
0.375001
0.352827
0.347173
0.379511
0.352926
0.379044
0.351694
0.39549
0.380183
0.219173
0.352534
0.301928
0.354501
0.353091
0.354201
0.356233
0.357043
0.352235
0.348092
0.391503
0.350298
0.351929
0.693632
0.346908
0.382349
0.35363
0.352166
0.403364
0.383591
0.352792
0.375401
0.366936
0.348153
0.350765
0.351182
0.356733
0.356987
0.37882
0.351083
0.360722
0.355892
0.359119
0.360425
0.391062
0.355448
0.381775
0.353023
0.371669
0.356282
0.375899
0.353346
0.358157
0.356019
0.35087
0.356369
0.356102
0.358066
0.35885
0.341358
0.355481
0.370136
0.344264
0.365996
0.358803
0.394075
0.721059
0.356436
0.354416
0.356784
0.358079
0.355976
0.352009
0.361611
0.34974
0.4295
0.35343
0.357788
0.405706
0.374224
0.363919
0.673377
0.66695
0.681267
0.729966
0.411645
0.351157
0.381195
0.808691
0.486075
0.348778
0.309573
0.592478
0.468584
0.306006
0.387571
0.436816
0.911595
0.528377
0.735276
0.422262
0.446539
0.347243
0.502562
0.377577
0.540748
0.354728
0.346647
0.351811
1.10584
0.348622
0.573715
0.35921
0.349009
0.383699
0.354257
0.36051
0.361693
0.357177
0.358903
0.344413
0.359176
0.358326
0.363375
0.358949
0.342949
0.375505
0.355496
0.351459
0.358299
0.375273
0.37843
0.352344
0.355021
0.358983
0.359385
0.361352
0.411232
0.354308
0.357014
0.352287
0.440272
0.357205
0.364552
0.370488
0.383948
0.531642
0.813624
0.35718
0.483531
0.351508
0.353487
0.352095
0.368885
0.355086
0.350846
0.37636
0.352669
0.379775
0.356417
0.399109
0.370242
0.349833
0.354358
0.401501
0.34699
0.353013
0.348627
0.354259
0.35688
0.350094
0.459968
0.353401
0.516838
0.351694
0.351347
0.35918
0.352645
0.355415
0.351053
0.353105
0.351647
0.355992
0.354294
0.354124
0.658156
0.349858
0.393737
0.368499
0.345503
0.389532
0.364012
0.355606
0.443103
0.448803
0.363237
0.434021
0.356864
0.368247
0.374271
0.360641
0.358049
0.356255
0.356933
0.348714
0.35575
0.353607
0.373583
0.697584
0.355095
0.348261
0.3625
0.35748
0.946127
0.609118
0.419045
0.384376
0.62054
0.374206
0.351027
0.370144
0.470376
0.374611
0.357439
0.374959
0.344379
0.350224
0.349064
0.353322
0.349966
0.35151
0.357857
0.376115
0.350093
0.352338
0.365617
0.353464
0.352458
0.349582
0.392957
0.361381
0.369188
0.34836
0.356421
0.382976
0.37809
0.367144
0.368379
0.350819
0.387231
0.354996
0.372489
0.353577
0.366909
0.355805
0.35003
0.392617
0.353661
0.352231
0.354445
0.352382
0.351292
0.355538
0.354616
0.395926
0.362589
0.382373
0.374162
0.352734
0.367934
0.380935
0.385179
0.360248
0.375488
0.373808
0.378775
0.390234
0.398408
0.810414
0.354933
0.354434
0.383858
0.349991
0.382017
0.39422
0.371298
0.365859
0.385505
0.363154
0.357716
0.379061
0.37815
0.370127
0.386462
0.382696
0.35438
0.364574
0.373378
0.394649
0.390941
0.364282
0.372643
0.405367
0.384198
0.375805
0.468632
0.40663
0.350897
0.356181
0.389212
0.380346
0.364538
0.352691
0.358983
0.387815
0.545207
0.630977
0.630066
0.350972
0.349563
0.542136
0.417266
0.406648
0.369269
0.476089
0.364035
0.443239
0.562278
0.481734
0.744421
0.778619
0.365662
0.359815
0.38406
0.377332
0.449459
0.477179
0.720112
0.58125
1.0648
0.446197
0.696571
0.637593
0.417821
0.637105
0.64226
0.435582
0.365918
0.348598
0.375255
0.365269
0.352165
0.42711
0.388649
0.847221
0.353389
0.367708
0.371066
0.430128
0.566579
0.813269
0.749064
0.276704
0.932782
0.350732
0.350471
0.378878
0.372609
0.376637
0.355734
0.382897
0.35968
0.352677
0.578674
0.497137
0.375915
0.353547
0.355147
0.351982
0.374572
0.360998
0.353431
0.354445
0.357596
0.35163
0.358111
0.354212
0.371123
0.579467
0.37381
0.349006
0.358013
0.347013
0.371593
0.391587
0.397174
0.390627
0.394478
0.640433
0.799535
0.358427
0.372898
0.382479
0.495672
0.356668
0.353714
0.382811
0.349663
0.464245
0.423867
0.4097
0.403593
0.351263
0.353747
0.479457
0.386457
0.377374
0.410386
0.367754
0.361473
0.372882
0.359233
0.381632
0.378027
0.35334
0.356505
0.359163
0.357189
0.35957
0.408224
0.361399
0.35364
0.37775
0.358857
0.374834
0.382352
0.366684
0.352453
0.368041
0.351516
0.386902
0.350081
0.499813
0.553953
0.707215
0.351486
0.353084
0.353643
0.352404
0.382944
0.378302
0.350535
0.354678
0.354477
0.386015
0.354834
0.354704
0.374893
0.350118
0.351944
0.363995
0.369022
0.358587
0.352366
0.362384
0.359126
0.351811
0.351205
0.356241
0.355259
0.3614
0.363436
0.349852
0.355799
0.351033
0.3508
0.358116
0.358287
0.370863
0.379778
0.350488
0.348375
0.358646
0.384659
0.353079
0.347584
0.349418
0.347353
0.351068
0.355382
0.352454
0.371681
0.373697
0.350641
0.35066
0.358668
0.358063
0.353256
0.352284
0.351652
0.358382
0.401339
0.394471
0.35445
0.35403
0.351194
0.356046
0.353303
0.352535
0.388192
0.379247
0.360471
0.889173
0.471191
0.348103
0.356261
0.363112
0.364927
0.353569
0.354166
0.350743
0.355102
0.590674
0.386631
0.393905
0.373114
0.36889
0.349355
0.348961
0.369879
0.347947
0.347264
0.34987
0.350551
0.349281
0.352989
0.346826
0.348121
0.347895
0.392111
0.348072
0.346878
0.356103
0.357767
0.532559
0.385739
0.361196
0.368291
0.358825
0.354555
0.378049
0.806667
0.724522
0.453248
0.581228
0.948087
0.493746
0.678161
0.915092
0.484763
0.316068
0.361231
0.360026
0.34247
0.353741
0.292965
0.35572
0.377657
0.428951
0.56789
0.352007
0.363786
0.358404
0.360132
0.359704
0.358511
0.349289
0.347429
0.349022
0.350185
0.352011
0.35574
0.353687
0.356793
0.351818
0.354501
0.348214
0.371728
0.349775
0.354115
0.34539
0.351408
0.351243
0.348953
0.349442
0.354406
0.354538
0.405067
0.370718
0.350537
0.348559
0.394946
0.349488
0.354858
0.354245
0.361589
0.357994
0.350171
0.349281
0.389494
0.367744
0.349525
0.347423
0.367931
0.348482
0.351868
0.350021
0.354593
0.387374
0.381089
0.354301
0.379453
0.354396
0.37268
0.355652
0.390038
0.383457
0.354119
0.384656
0.358181
0.377051
0.379894
0.350912
0.371194
0.38768
0.369563
0.376936
0.381051
0.374885
0.35428
0.371579
0.363742
0.351638
0.370023
0.370751
0.385418
0.360666
0.372499
0.349897
0.382227
0.373842
0.364631
0.374286
0.352289
0.375951
0.352707
0.356499
0.393903
0.448758
0.366479
0.352259
0.349274
0.353567
0.346526
0.353852
0.356164
0.452572
0.360432
0.362837
0.362186
0.358117
0.368432
0.352859
0.360225
0.341926
0.350062
0.35316
0.372257
0.388717
0.388967
0.37043
0.358164
0.341132
0.352831
0.362266
0.396002
0.356123
0.349886
0.352732
0.358347
0.368181
0.350059
0.379611
0.351968
0.36407
0.378928
0.349035
0.354528
0.347968
0.355548
0.349933
0.355661
0.352404
0.360669
0.351966
0.384019
0.37316
0.384794
0.378569
0.362045
0.386646
0.376127
0.348245
0.518545
0.582276
0.354809
0.356138
0.351276
0.351525
0.35221
0.353022
0.356621
0.368971
0.347189
0.353297
0.368629
0.38558
0.363308
0.350086
0.37555
0.397381
0.378756
0.370107
0.357506
0.359273
0.350048
0.540075
0.367019
0.3654
0.465106
0.3628
0.380271
0.353055
0.355639
0.372609
0.351759
0.357104
0.357416
0.353184
0.349029
0.348537
0.350892
0.355828
0.372651
0.350152
0.382216
0.386422
0.385365
0.317291
0.301193
0.617298
0.966587
0.261233
0.677913
0.571527
0.543227
0.367831
0.483787
0.432762
0.403728
0.477464
0.687321
0.291139
0.462939
0.329688
0.570226
0.478156
0.337008
0.463938
0.631971
0.539078
0.298928
0.404537
0.299561
1.05857
0.354055
0.353382
0.344932
0.345449
0.351063
0.345632
0.386547
0.356589
0.355025
0.350496
0.353905
0.344959
0.352089
0.379055
0.355352
0.353761
0.355533
0.349472
0.383165
0.631468
0.352739
0.362636
0.35081
0.352564
0.356071
0.357378
0.378907
0.351122
0.35931
0.377932
0.383821
0.370205
0.362108
0.356297
0.356563
0.460139
0.35692
0.364596
0.358269
0.353288
0.353024
0.35604
0.363184
0.61252
0.380554
0.395905
0.351424
0.367365
0.367537
0.351502
0.370534
0.3515
0.613757
0.367015
0.347561
0.358452
0.379273
0.437881
0.38569
0.394193
0.371906
0.417422
0.444115
0.393338
0.375306
0.379461
0.354508
0.374103
0.445445
0.354057
0.448956
0.351734
0.710138
0.834288
0.889439
0.677305
0.806066
0.726749
0.753961
0.827952
0.497694
0.352141
0.353674
0.385431
0.386915
0.354391
0.361422
0.355232
0.356088
0.349766
0.347831
0.356416
0.359782
0.355287
0.355004
0.356155
0.35749
0.433126
0.355566
0.381908
0.853486
0.68379
0.54049
0.392937
0.356821
0.357414
0.457307
0.355369
0.892426
0.354048
0.370212
0.665782
0.356585
0.614617
0.90936
0.746374
0.50213
0.432487
0.367356
0.422902
0.877062
0.362496
0.726605
0.326067
0.480603
0.258298
0.359247
0.346658
0.366366
0.431845
0.639022
0.760522
0.785976
0.355031
0.459797
0.228725
0.78667
0.8914
0.383724
0.970891
0.7411
0.734931
0.577219
0.541877
0.835543
0.485829
0.356039
0.355068
0.541805
0.356336
0.42881
0.356584
0.372563
0.420304
0.461823
0.342767
0.351827
0.360873
0.43481
0.373188
0.366287
0.362749
0.442563
0.463567
0.373533
0.359175
0.364862
0.355009
0.375173
0.393615
0.496138
0.373159
0.354819
0.358006
0.35418
0.389542
0.400055
0.365007
0.354723
0.376123
0.353696
0.376384
0.362525
0.356885
0.35374
0.360181
0.380414
0.35591
0.352215
0.36152
0.35605
0.355136
0.408746
0.354842
0.811718
0.37806
0.382308
0.35915
0.369009
0.353473
0.350146
0.35409
0.538776
0.388085
0.358768
0.359855
0.355488
0.357236
0.369697
0.374484
0.357025
0.357526
0.373401
0.357766
0.355053
0.355541
0.340146
0.355662
0.356538
0.357275
0.378954
0.35363
0.349639
0.355903
0.360953
0.352755
0.351415
0.354478
0.559401
0.353463
0.354051
0.341183
0.319473
0.383855
0.35903
0.35564
0.284168
0.26225
0.427029
0.655335
0.486981
0.495602
1.1181
0.45627
0.532847
0.450554
0.362632
0.379927
0.359497
0.366383
0.380974
0.406716
0.353289
0.356006
0.356297
0.357501
0.358966
0.350845
0.35954
0.54865
0.438865
0.344441
0.272632
0.353396
0.74871
0.363732
0.922618
0.352007
0.393655
0.860906
0.374951
0.56911
0.574811
0.592654
0.555032
0.767286
0.86455
0.792757
1.15604
0.867989
0.778681
0.364061
0.373859
0.360797
0.35956
0.355162
0.40304
0.384146
0.349402
0.348543
0.35308
0.366739
0.353571
0.350318
0.377477
0.356252
0.375386
0.349434
0.356476
0.375676
0.357502
0.373397
0.377329
0.348018
0.354649
0.358942
0.356845
0.573051
0.350439
0.351233
0.349071
0.384057
0.361432
0.368476
0.352719
0.383177
0.396879
0.375621
0.349286
0.363528
0.353438
0.350307
0.349891
0.34957
0.388151
0.351192
0.35454
0.351691
0.352476
0.377046
0.359354
0.350478
0.354753
0.354631
0.371703
0.352555
0.352719
0.361335
0.350635
0.372569
0.354086
0.355929
0.351846
0.360742
0.352581
0.803707
1.00552
0.37124
0.371891
0.826207
0.659226
0.376941
0.861664
0.626942
0.551245
0.963346
0.382181
0.359768
0.372157
0.380609
0.365415
0.35567
0.355738
0.37086
0.345922
0.351248
0.352644
0.356412
0.358186
0.358992
0.356786
0.36308
0.384712
0.371973
0.353118
0.35768
0.370754
0.363203
0.38314
0.516719
0.354173
0.382088
0.378464
0.345886
0.380777
0.353247
0.403927
0.370381
0.392579
0.381971
0.356831
0.351637
0.357527
0.361872
0.357202
0.358171
0.36383
0.361313
0.370575
0.356593
0.359301
0.351039
0.353031
0.35212
0.350747
0.351898
0.351422
0.386891
0.350863
0.384311
0.361944
0.353377
0.352187
0.78158
0.658222
0.93743
0.356299
0.357896
0.35836
0.358765
0.361494
0.36036
0.377495
0.375632
0.351596
0.347214
0.365001
0.374289
0.355375
0.365038
0.348791
0.376921
0.38206
0.380033
0.347164
0.354736
0.355049
0.354971
0.355753
0.354252
0.378991
0.375399
0.441845
0.359505
0.363091
0.363849
0.348891
0.395301
0.369659
0.377425
0.392494
0.356405
0.375545
0.354915
0.360234
0.363545
0.391443
0.379217
0.3547
0.353649
0.354358
0.393007
0.354385
0.391795
0.367318
0.354762
0.357605
0.369037
0.35631
0.353433
0.372078
0.362566
0.354425
0.349628
0.357072
0.362905
0.354723
0.374869
0.376618
0.351109
0.355787
0.352351
0.352821
0.354974
0.37121
0.353029
0.354487
0.58242
0.4991
0.789253
0.350263
0.640194
0.371282
0.377747
0.368891
0.827242
0.371781
0.350188
0.362057
0.357578
0.353717
0.370563
0.703346
0.491103
0.865486
0.911318
0.381374
0.37322
0.358187
0.401803
0.379834
0.395591
0.364402
0.359253
0.369154
0.356826
0.349242
0.364883
0.358082
0.36911
0.377611
0.390899
0.360692
0.354999
0.360436
0.382047
0.359938
0.722971
0.348782
0.348829
0.354621
0.611481
0.471546
0.351221
0.352706
0.478226
0.51195
0.318097
0.369834
0.347919
0.302198
0.450637
0.426806
0.457799
0.473628
0.350006
0.641045
0.35561
0.352486
0.351456
0.355414
0.35594
0.35459
0.354018
0.272553
0.352196
0.490644
0.356427
0.387098
0.359217
0.581222
0.353645
0.354462
0.353926
0.354289
0.352486
0.372088
0.360314
0.377508
0.353218
0.386691
0.353608
0.352593
0.354913
0.386402
0.375178
0.352356
0.354005
0.355618
0.35295
0.356668
0.35315
0.377849
0.348862
0.35194
0.380006
0.353321
0.348747
0.417722
0.588878
0.351484
0.47619
0.353497
0.376029
0.369486
0.356237
0.391812
0.421982
0.357088
0.352162
0.375198
0.351132
0.352742
0.353845
0.352496
0.377586
0.370187
0.367009
0.585863
0.674444
0.776586
0.377511
0.391134
0.355244
0.354413
0.356676
0.363883
0.386204
0.506935
0.361587
0.390812
0.37905
0.661488
0.486742
0.964038
0.656125
0.512678
0.620669
0.350881
0.386663
0.408678
0.565499
0.380371
0.356871
0.357506
0.359706
0.502188
0.362152
0.347776
0.364779
0.438396
0.356167
0.37128
0.364723
0.370162
0.34984
0.355178
0.354145
0.347602
0.352191
0.369473
0.351934
0.349539
0.344588
0.34763
0.355964
0.370579
0.363668
1.04692
0.840441
0.39761
0.359238
0.354782
0.352904
0.60156
0.83461
0.352431
0.371446
0.503395
0.397545
0.749683
1.00194
0.505518
0.599097
0.881839
0.371119
0.839704
0.788919
0.37353
0.357302
0.350713
0.360422
0.379829
0.382272
0.365122
0.440593
0.352117
0.357839
0.394772
0.371109
0.382677
0.35885
0.354299
0.758235
0.588981
0.89672
0.896864
0.997966
0.328945
0.355328
0.360049
0.381381
0.608425
0.6294
0.350853
0.670009
0.558809
0.631548
0.948556
0.807599
0.37797
0.6298
0.570995
0.571681
0.377255
0.429815
0.820023
0.547006
0.352764
0.363767
0.358737
0.371851
0.369737
0.346981
0.359266
0.372341
0.363028
0.349298
0.35708
0.614235
0.351909
0.353701
0.353338
0.46453
0.363604
0.363135
0.372688
0.353892
0.391198
0.362677
0.36144
0.356232
0.790013
0.355359
0.401998
0.351828
0.345724
0.354601
0.361238
0.354632
0.381251
0.352307
0.355432
0.353101
0.36847
0.357652
0.355902
0.352831
0.356423
0.347055
0.368916
0.355314
0.373438
0.351364
0.350767
0.349777
0.335725
0.336555
0.696762
0.381776
0.757968
1.08285
0.354694
0.450133
0.617583
0.449769
0.389865
0.578988
0.650982
0.59136
0.584668
0.517053
0.605327
0.735568
0.889052
0.434562
0.747545
0.350763
0.659567
0.573345
0.356759
0.366874
0.349008
0.354572
0.349124
0.35256
0.367118
0.353936
0.359064
0.351003
0.737597
1.18116
0.356204
0.360785
0.352784
0.417304
0.400749
0.36071
0.359389
0.365543
0.399113
0.45471
0.404145
0.383117
0.601202
0.574321
0.602721
0.361129
0.373548
0.367584
1.04919
0.366105
0.394169
0.348965
0.3616
0.356937
0.352226
0.346307
0.349968
0.354917
0.35032
0.373001
0.390286
0.351992
0.348516
0.398324
0.350179
0.353378
0.357685
0.371617
0.350362
0.378873
0.349939
0.355462
0.36816
0.352833
0.356226
0.346865
0.356892
0.350898
0.377408
0.349463
0.370595
0.353003
0.352849
0.350266
0.356954
0.348029
0.36445
0.358179
0.353257
0.371226
0.353065
0.353297
0.401323
0.36166
0.379062
0.35566
0.362379
0.35051
0.350679
0.349121
0.408208
0.379378
0.356837
0.349433
0.355504
0.354576
0.354557
0.349605
0.358326
0.394247
0.351279
0.373677
0.360561
0.373928
0.350239
0.349187
0.35031
0.388609
0.361123
0.353819
0.350616
0.358779
0.34592
0.359258
0.371145
0.398994
0.376046
0.56968
0.412759
0.34889
0.355085
0.399683
0.348186
0.384667
0.390978
0.348818
0.357005
0.359361
0.381998
0.358525
0.35125
0.358199
0.370696
0.357395
0.347228
0.351273
0.368436
0.351625
0.379907
0.350472
0.355933
0.351729
0.364225
0.3517
0.381117
0.359972
0.391107
0.38378
0.351872
0.350856
0.382611
0.394861
0.388162
0.388278
0.352228
0.369675
0.362751
0.346186
0.452038
0.352704
0.357517
0.359589
0.349156
0.357339
0.353647
0.356491
0.351312
0.352564
0.385204
0.354967
0.358422
0.35379
0.350944
0.351764
0.362882
0.363562
0.371697
0.352647
0.358784
0.372443
0.381667
0.354435
0.355795
0.388693
0.370638
0.354959
0.392969
0.353132
0.365628
0.351886
0.347576
0.3592
0.359498
0.351998
0.354219
0.355476
0.35719
0.393746
0.371112
0.437929
0.352221
0.382836
0.351101
0.377203
0.38042
0.355189
0.362058
0.37747
0.37812
0.353877
0.373215
0.369142
0.36287
0.365934
0.370492
0.373325
0.350474
0.350641
0.458082
0.456169
0.444309
0.351035
0.368793
0.49464
0.353379
0.947434
0.44548
0.360662
1.02229
0.353401
0.358268
0.409714
0.470979
0.353782
0.355993
0.387122
0.395174
0.368441
0.35497
0.348446
0.353723
0.350042
0.359855
0.355769
0.920595
0.351321
0.358166
0.35436
1.10456
0.896459
0.568499
0.46492
0.585476
0.356236
0.355599
0.348888
0.359888
0.285009
0.515999
0.617925
0.460862
0.350416
0.367789
0.354425
0.377807
0.347915
0.387107
0.353712
0.350875
0.347435
0.35363
0.367055
0.349824
0.358353
0.404265
0.353983
0.347537
0.348337
0.780768
0.380422
0.35147
0.351269
0.359031
0.356348
0.369435
0.350177
0.354362
0.348275
0.357109
0.320421
0.350671
0.517504
0.392753
0.713296
1.04003
0.392519
0.350241
0.291819
0.370632
0.365623
0.45606
0.357077
0.356218
0.358633
0.358122
0.379107
0.3567
0.356867
0.368866
0.3747
0.461233
0.472599
0.510578
0.27863
0.355785
0.414533
0.379861
0.362534
0.361217
0.334047
0.358857
0.352478
0.37441
0.561849
0.539598
0.90938
0.825226
0.3612
0.947716
0.348647
0.348158
0.375111
0.349046
0.356065
0.373887
0.352511
0.396028
0.675325
0.675377
0.705132
0.819629
0.776541
0.753217
0.360293
0.373518
0.731728
0.384503
0.618882
0.691393
0.389671
0.917964
0.403423
0.361175