/*--------------------------------*- C++ -*----------------------------------*\
| =========                 |                                                 |
| \\      /  F ield         | OpenFOAM: The Open Source CFD Toolbox           |
|  \\    /   O peration     | Version:  2506                                  |
|   \\  /    A nd           | Website:  www.openfoam.com                      |
|    \\/     M anipulation  |                                                 |
\*---------------------------------------------------------------------------*/
FoamFile
{
    version     2.0;
    format      ascii;
    arch        "LSB;label=32;scalar=64";
    class       volScalarField;
    location    "0.075283";
    object      k;
}
// * * * * * * * * * * * * * * * * * * * * * * * * * * * * * * * * * * * * * //

dimensions      [0 2 -2 0 0 0 0];

internalField   nonuniform List<scalar> 
3923
(
0.456504
0.413159
1.01473
1.70885
0.821117
0.816374
0.845421
0.907656
0.806433
0.959974
0.836703
0.511856
0.307732
0.577059
0.365524
0.360273
0.416023
0.446577
0.450249
0.282495
0.576949
0.516992
0.580451
0.498234
0.330807
0.552716
0.515869
0.488569
0.504061
0.55331
0.493391
0.495326
0.538328
0.841811
0.868559
0.8224
0.95672
0.893581
1.18132
0.952317
0.4493
0.298177
0.470969
0.457699
0.681895
0.66357
0.303854
0.73353
0.33739
0.91332
0.896344
1.18596
0.386767
0.350668
0.369173
0.31809
0.324117
0.289599
0.942208
0.52603
0.604117
0.858163
0.527764
0.506524
0.361679
0.291607
1.16812
1.04891
1.65274
0.882458
0.292555
0.796159
2.06284
1.0879
0.741323
0.854844
0.327189
0.850088
0.797361
1.83858
1.93722
0.693861
0.45987
0.596061
1.04073
1.03374
0.485147
0.498294
0.777965
0.922218
0.425826
0.674054
0.54804
0.899323
0.403624
0.556805
0.38704
0.350231
0.485075
0.524012
0.365182
1.25784
0.307478
0.565939
0.574365
1.1113
0.860716
0.571345
0.521838
0.500406
0.635442
0.717936
0.556483
0.653787
0.564345
0.660478
0.726739
0.779875
0.907007
0.56613
0.410882
0.555181
0.838453
0.479131
3.16166
0.641001
0.885431
0.633999
0.31706
0.821744
0.572016
1.23552
0.812175
0.327187
0.560459
0.399323
0.928784
0.738855
0.749213
0.469187
0.633812
1.45646
0.559814
0.764042
0.4286
0.312297
0.942733
2.01884
0.330361
0.300254
0.409812
0.545562
1.04789
0.527787
0.447442
0.625577
0.357522
0.408756
0.57969
0.735876
0.560094
0.455165
4.03855
0.778004
0.867535
0.549728
0.475
0.764578
0.308896
0.911938
0.38193
0.466746
3.10745
0.439576
0.438975
0.676003
0.577847
0.840523
0.962614
0.834983
2.3891
0.500564
0.667581
0.874515
0.935391
0.916709
0.361768
0.61846
0.423175
0.456151
0.803115
0.746869
0.30886
0.319156
0.491309
1.03503
0.687759
0.877295
0.823898
1.12281
1.10373
0.620345
1.17241
0.549992
0.462997
0.746471
0.335628
0.735143
0.97829
0.744644
1.21634
0.507197
0.737619
0.315496
1.36278
0.816075
0.284964
0.44186
0.826291
0.613681
0.407369
0.711959
0.828286
0.59642
0.954153
0.34792
0.498661
0.301819
0.373896
0.311159
0.36699
0.310076
0.322352
0.632181
0.483015
0.874271
0.487431
0.442652
0.505435
0.479323
0.443393
0.435034
0.718195
0.506183
0.691585
0.555989
0.886316
0.491284
0.503466
0.509342
0.713986
0.771654
0.546089
0.607072
0.623386
0.518036
0.707752
1.08057
0.439007
0.532729
0.693312
0.727224
0.520639
0.594185
0.481848
0.507039
0.717555
0.598487
0.682948
0.640137
0.538006
0.765176
0.501476
0.546764
0.486906
0.431839
0.527024
0.435857
0.488432
0.439651
0.530314
0.545743
0.517586
0.43609
0.701345
0.309781
0.535017
0.67002
0.31264
0.656979
0.779805
0.631472
0.607564
0.623515
0.457527
1.67203
1.22083
0.601912
0.534135
0.743604
0.778169
0.776783
0.630397
0.785364
0.740876
0.72287
0.895845
1.51517
1.46452
1.19041
1.14137
1.24393
1.27023
0.783885
0.776881
0.842816
0.87679
0.754355
0.505645
0.484661
0.646253
0.652956
0.654533
0.668051
0.694417
0.872581
0.47004
0.954522
0.961777
0.52451
0.524272
0.477662
0.684651
0.470209
0.460539
0.451402
0.421967
0.516638
0.518274
0.501535
0.514174
0.57591
0.515137
0.584418
0.787936
0.665353
0.703095
0.53361
0.506318
0.52371
0.619603
0.610087
0.512876
0.398203
0.397246
0.384632
0.308029
0.304867
0.320718
0.360328
0.492568
0.327985
0.316045
0.318136
0.358082
0.294432
0.298943
0.304022
0.297705
0.374145
0.343366
0.61173
0.569223
0.63201
0.713332
0.719761
0.706689
1.07049
1.15322
1.1288
0.94098
0.815069
0.812002
0.555329
0.583938
0.546141
0.527026
0.545668
0.444359
1.09616
1.32958
0.913743
0.480407
0.575899
0.520907
0.67164
0.516636
0.686682
0.929044
0.848975
0.704221
0.701462
0.90716
0.868552
0.530887
0.545724
0.468835
0.483691
0.497476
0.509873
0.630181
0.582886
0.686472
0.768118
0.800147
0.765156
0.688973
0.667605
0.75334
0.473633
0.46894
0.591982
0.486237
0.43239
1.05304
0.561514
0.614128
0.462531
0.449001
0.868552
0.616428
0.753365
0.427889
0.678499
0.457023
0.416368
0.731514
0.866594
1.37487
0.557152
0.801083
0.407321
0.476204
1.07861
0.300641
0.31701
0.495117
0.773367
0.519598
0.722651
0.733581
0.733268
2.11003
1.05611
0.483394
0.288131
1.67659
0.313305
0.33728
0.522237
2.10163
0.672424
0.707603
0.436333
0.749374
0.617495
0.310673
0.483974
1.36748
0.744873
0.397711
0.408796
1.11958
0.396331
0.496454
0.760593
1.19943
0.647901
0.308227
0.32259
0.477293
0.714735
0.78589
1.11035
1.48709
0.493824
0.551116
0.508387
0.53074
1.18667
1.64455
1.08383
0.481161
1.91845
0.779346
0.780171
0.58047
0.427637
1.19241
0.796351
0.692638
0.431235
0.452413
0.417765
0.932574
0.323325
0.943183
1.15829
0.309442
0.31902
0.380057
0.409134
0.577756
1.21877
0.815729
0.809672
0.300798
0.316397
0.503936
1.23256
0.67354
0.735053
0.675833
0.455456
0.498863
0.711252
1.08551
0.622994
1.21948
0.633761
1.13671
0.733823
0.464834
0.593532
0.873226
0.837341
0.661913
0.354569
0.916406
1.15464
0.71494
0.659102
0.621746
0.488444
0.451956
0.661047
0.63553
0.525408
0.658214
1.38408
1.0376
0.580073
1.26092
0.791157
0.442949
0.753286
1.07061
0.485579
0.630197
0.590766
0.436265
0.647183
1.04425
0.667768
0.489327
0.54609
0.859788
0.921404
0.639974
0.569867
0.575497
0.55066
0.428522
0.538679
0.616503
0.726474
0.707051
0.531729
0.742437
0.598522
0.496885
0.530923
1.50191
0.794755
0.730867
0.679219
0.859542
0.783468
0.617408
0.418195
0.301312
1.94755
0.406786
0.438902
0.888781
0.59261
1.35708
1.01575
0.391794
1.26783
0.726413
1.00697
0.628483
0.372075
1.1874
0.517315
1.3671
1.18666
0.540401
0.765023
0.567822
1.29131
0.657127
0.732929
0.86175
1.08079
0.861899
0.867707
1.13456
0.995896
1.19268
0.726874
0.845011
1.12088
1.18996
0.670052
0.309857
0.353439
0.839535
0.736641
2.08409
0.405001
3.20242
0.327406
0.531756
0.304968
0.552865
0.613911
1.03063
0.4431
0.909053
0.811915
0.487152
0.598959
0.484675
0.650173
0.445769
0.910049
0.901626
0.738204
1.14351
0.740423
0.718431
0.691906
1.00019
0.733388
1.05301
1.43489
0.766712
0.741219
1.15792
0.709284
0.990588
0.854541
2.54738
0.718064
1.27948
0.916584
0.332811
0.293428
0.289014
0.33931
0.31295
0.316242
0.329254
0.429845
0.710769
1.25874
1.34696
0.388335
1.12619
0.315281
0.344795
0.300849
0.310717
0.346315
0.458513
2.12627
0.344281
0.797259
0.721988
0.361956
0.284248
0.424712
0.318066
0.313826
0.526832
0.369934
0.377433
0.306581
1.22235
1.44058
0.686614
0.498077
0.946173
0.556617
0.757785
0.827115
0.729457
0.682453
0.878467
0.734115
0.652404
1.29843
0.727516
0.557266
1.16258
0.584152
1.62667
1.14463
0.927019
0.541946
0.647633
1.24265
0.518425
0.525086
0.839196
1.24807
0.72698
0.60893
0.674014
0.666224
0.358776
0.577367
0.34868
0.495869
0.304789
0.954974
0.336303
0.445408
0.386385
0.847296
0.473081
0.658724
0.315536
0.405622
0.497407
0.692341
0.440543
0.559869
0.700798
0.632361
0.695181
0.909294
0.61991
0.604316
0.409811
0.463775
0.287612
0.721042
0.426577
1.0486
1.97424
0.843317
0.431537
0.551763
0.595513
0.936527
0.984029
2.58505
0.694691
0.507702
0.714396
0.96717
0.898058
0.608601
1.05187
1.04951
0.49358
0.806644
0.338358
1.31586
1.13975
1.56565
0.48354
0.672356
1.23257
2.06633
1.1009
0.619225
0.567854
0.299744
0.945731
0.749894
0.713416
1.31712
1.42358
1.46892
0.523704
0.553741
0.571153
0.539064
0.805651
0.771492
0.782948
0.410285
0.687511
0.385931
0.453836
0.582321
0.322519
0.34638
0.542073
0.457233
0.875257
0.485463
0.380858
0.761387
0.534236
0.7715
0.434544
0.433205
0.855058
1.20911
0.501087
0.47441
0.392711
0.41564
0.535022
0.46867
0.431625
0.375957
0.608316
1.0455
0.84528
1.70213
0.616129
1.61534
1.8985
1.18739
0.590571
0.481462
0.990122
1.19689
0.440937
0.980455
0.419349
0.427427
1.35765
0.379048
1.42326
1.79382
0.407567
1.45627
0.591321
0.483635
0.431924
0.771801
0.525522
0.539407
0.675149
0.627296
0.385891
0.31742
0.970178
1.23615
0.859357
0.4982
0.986549
0.477664
1.09277
1.10303
3.91949
0.35999
0.322662
0.755481
0.975347
0.913325
0.978994
0.601305
0.680424
0.751383
0.657692
0.572941
0.726909
0.622423
0.539084
0.619981
0.543011
0.92775
0.887165
1.00363
0.821961
0.803719
0.855843
0.955464
0.942551
1.1438
1.15405
1.16785
0.739504
0.870633
0.574153
1.90559
1.80631
2.58344
2.65719
0.314334
0.770509
0.485843
0.489651
0.567946
0.337267
0.355469
0.461257
0.616722
1.04368
0.898664
0.339963
0.414382
0.509116
0.83213
0.488507
1.18424
0.449874
1.09822
0.454929
0.881556
0.671976
0.606118
0.700196
0.84029
0.862957
1.31625
1.76876
0.720611
0.980335
0.691007
1.16401
0.639395
4.12974
0.50872
0.728574
0.814391
0.903836
0.316402
0.670011
0.939875
1.49953
0.94727
0.747942
0.55654
0.83121
1.04778
0.873852
0.763764
0.60257
0.510049
0.747715
1.5105
0.509202
1.46565
0.690892
1.10779
1.1429
0.558593
0.717878
0.743108
0.64526
0.615879
0.836491
0.541658
0.470787
1.20199
0.496854
0.422148
0.435151
0.65592
1.75147
0.329236
0.83265
0.624522
0.305679
0.679465
0.459625
0.312878
0.298542
0.443347
0.66265
1.60137
0.384192
0.433854
0.826629
0.400895
0.307377
0.650704
1.12591
0.393505
0.31662
0.342378
0.620023
0.962227
0.39545
0.512788
0.427881
0.81613
0.606419
0.627214
0.409231
1.6308
0.674064
0.848675
0.721023
0.800354
0.419556
0.665339
0.470854
1.23128
0.672992
0.571678
0.588714
1.24739
0.483872
0.61863
0.670814
0.54292
0.793582
0.617311
0.605349
0.684384
0.522567
0.930522
0.745094
1.44522
0.713496
0.931208
0.614431
0.510814
1.06766
0.440802
0.584244
0.984256
1.04525
0.616691
0.44589
0.722286
0.658318
0.634509
0.668328
0.69322
1.40888
0.593328
2.13427
1.33487
0.516805
1.35335
1.09322
0.967832
0.570595
0.51379
0.68978
0.383112
0.510316
0.54409
0.568863
0.660616
0.458587
0.556292
0.591318
0.775167
0.709816
0.432287
0.72269
0.667537
0.561669
0.593435
0.42974
0.364071
0.489525
0.857272
1.267
0.536355
1.08257
1.51158
0.916028
0.621746
0.913838
1.02553
0.931779
0.557911
0.678483
1.27733
0.772791
1.58685
0.668969
0.502562
0.770288
0.554329
0.985906
0.754322
0.785551
0.755223
0.693709
0.96826
1.756
0.574315
1.44787
1.35408
1.28191
1.03965
1.08563
1.73143
0.940534
1.53487
1.05304
1.04683
0.887095
1.19591
0.623502
0.332435
1.50299
0.532918
0.609456
0.614608
0.57235
0.695874
0.815519
1.0532
1.28328
0.480368
1.17055
1.23059
0.750741
0.824315
1.08964
0.731095
0.789754
0.546624
0.827146
0.915297
0.602971
0.597222
0.667936
0.520253
0.986641
1.10124
1.01929
1.28412
1.04484
0.743036
1.08936
3.28337
0.584236
1.07749
1.23756
0.567686
0.507584
1.42371
0.705227
0.520414
0.51381
1.21538
0.42794
1.04008
0.562914
0.79334
0.668169
0.965499
0.691434
1.66857
2.62617
1.41323
1.61217
0.788749
1.85874
1.00922
1.14689
0.899822
0.773749
1.45127
1.18681
0.665896
0.983928
0.762407
0.752718
0.767236
4.04971
2.20828
0.443558
0.291171
0.34463
0.309171
0.298562
0.304589
0.300161
0.292619
0.312166
0.290448
0.338427
0.292741
0.321197
0.443138
0.289922
0.426566
0.361529
0.307914
0.381874
0.553662
0.454178
1.13746
1.04882
0.760581
0.616204
0.634475
0.332997
0.324843
0.281173
0.309425
0.322136
0.291306
0.945364
0.485401
0.755399
0.304084
0.486223
0.685183
1.13726
0.934303
0.656672
0.753999
0.686755
0.958508
0.75601
0.864569
1.40684
0.823542
0.811474
0.900384
0.729668
0.71789
1.04111
0.480752
0.622464
0.722425
0.887152
0.426477
0.769554
0.677748
0.904247
0.878009
1.04759
0.666976
1.01971
0.731791
0.806315
1.08396
0.610765
0.466258
0.511571
0.631
0.973649
0.582538
0.474745
0.419964
0.355033
0.71269
0.595604
0.666743
0.882124
0.697539
0.744186
0.860692
0.54035
1.50575
0.456717
0.71225
0.399017
1.11046
1.15307
0.945485
0.793748
1.45437
0.329285
0.492317
0.351308
0.857815
0.486624
0.746997
0.85957
0.907676
0.297567
0.356815
0.399532
0.415927
0.293195
0.317776
1.36865
0.418324
1.36851
1.08994
0.531085
0.698321
0.598446
0.853886
0.443214
0.648198
0.336505
0.36026
0.289033
0.76719
0.30792
1.37995
0.432086
0.360174
0.803506
0.436261
0.481852
0.551215
2.72997
1.09532
1.39369
3.88272
0.503347
1.27346
0.763589
0.756208
1.40769
1.70023
0.737688
0.286962
0.290676
0.967372
0.30353
1.1499
0.508502
0.901226
0.67872
0.60656
1.69185
0.600543
0.488825
0.548521
1.0556
0.780641
1.21968
0.881392
0.507788
0.393443
0.44105
0.911316
0.421709
0.648348
0.893452
0.694295
0.845527
0.947627
2.24578
0.290678
1.86284
0.29642
0.323601
0.317522
0.309504
0.297375
0.328122
0.337289
0.295066
0.635507
0.660557
1.12651
0.950184
0.901929
0.703713
0.838599
0.533648
0.388043
0.307986
0.802062
0.580721
0.940131
0.512934
0.810801
0.637573
0.498661
0.509519
0.690887
0.706002
0.595841
0.513965
1.47337
1.00829
1.92237
1.43245
1.85519
0.98166
0.378012
0.981563
0.695817
0.897894
0.481251
1.21399
0.625883
0.687379
0.624564
0.442255
0.69045
0.594082
0.423938
0.305592
0.734681
0.997612
1.62811
0.883273
0.611477
0.417099
0.434991
0.752904
0.964942
1.20923
0.496018
0.848521
1.14318
0.693167
1.16009
1.31277
0.796734
0.878858
0.78195
1.07935
0.752389
0.776942
0.658105
1.07909
0.302515
0.678818
0.515131
0.776861
0.952066
0.520546
0.422433
0.654373
1.12622
0.845945
0.580981
0.807405
0.584984
0.580962
0.516167
0.314352
0.340949
0.595464
0.473859
0.798829
0.38012
0.353161
0.663171
0.838838
0.642051
0.433419
0.36642
0.293302
0.331364
0.644779
0.384747
0.376887
0.457589
0.39726
0.566844
0.451091
0.720717
0.456103
0.493657
0.825717
0.499164
0.464531
0.356743
0.318099
0.621683
0.523316
0.670646
0.534233
0.826392
0.720566
0.750161
0.696957
0.594862
0.530545
0.533045
1.36649
0.772292
0.593611
0.840936
0.73819
0.598138
1.08326
0.644391
0.729526
2.19801
0.780737
1.04137
0.599688
1.7545
1.36388
0.503893
0.757351
0.616397
0.800953
0.585711
0.498589
0.718383
0.962024
0.522308
0.793108
0.443319
0.627303
0.301341
0.414893
0.436749
0.870201
0.731146
0.692822
0.379314
1.17135
0.68941
0.956675
0.535545
0.596312
0.712821
0.529362
0.738416
0.71583
0.896371
0.395899
0.701446
0.421273
0.55365
0.740552
0.571773
0.558816
0.564854
0.619975
0.468671
0.47643
0.884133
0.835702
0.897894
0.399226
1.4522
0.91903
0.623607
0.665566
0.396639
0.299609
0.582231
0.733197
0.297177
0.847904
1.01068
0.294777
0.291433
1.08684
0.895163
0.786998
0.590391
0.529402
0.694491
0.704504
0.611814
0.709605
0.845512
0.830072
0.800563
1.04806
0.730697
0.692003
0.327718
1.22124
1.03533
0.48206
1.14159
0.902677
0.445465
0.395686
1.23374
1.65346
1.27513
1.08453
1.46717
1.23176
1.69557
0.730499
1.90315
0.479676
0.451958
1.66026
0.385489
0.499983
0.564239
1.48113
1.14489
1.15661
0.902228
0.968273
1.11361
1.03964
1.03998
0.785465
0.771076
1.01956
0.966172
0.964109
0.777201
0.553495
1.07056
0.955207
1.35691
1.11499
0.534265
0.660308
0.632398
1.20938
0.819034
1.03193
0.732371
0.393648
0.441965
0.319866
0.904464
0.97471
0.875678
1.50248
0.890132
0.632539
0.839985
0.724636
0.602974
0.684624
0.681243
0.837381
0.66223
0.60472
0.53205
1.11227
1.7704
0.923888
0.572866
1.31339
0.443607
0.619489
0.537775
0.5101
0.748641
0.446801
1.07436
1.39848
1.17102
0.569119
0.801704
1.09929
0.811417
0.702377
0.834281
0.492502
0.848033
0.302752
0.31155
0.623247
0.455926
0.571063
1.14234
0.356595
0.531707
0.31355
0.310106
0.310148
0.356799
0.362678
0.311648
1.00505
0.996512
0.35461
1.27025
1.62788
0.903026
1.05942
0.295917
0.299677
0.465605
0.30339
0.481853
0.294327
0.32113
0.322238
0.333773
0.941158
0.593345
0.568856
0.344422
0.424969
0.331079
0.315042
0.321501
0.322314
0.290001
0.298225
0.468233
0.758874
0.664683
1.12861
1.2138
1.13435
1.05237
0.666619
0.725355
0.779165
0.87422
0.713468
0.886835
1.3369
0.583411
1.89464
0.523997
0.564405
0.651281
0.828764
0.885953
0.98044
0.696999
1.06197
0.423655
0.674407
0.515927
0.767712
0.839403
1.26487
2.32091
0.710457
2.96959
1.07452
0.729499
0.89041
0.827436
0.806941
0.810792
0.592087
0.625903
0.569357
0.566392
0.322396
0.548474
0.481372
0.895982
0.87126
0.935081
0.433915
0.403859
0.362938
0.744094
1.11109
0.694799
0.839981
1.64376
0.528289
0.924564
0.480789
0.77137
0.321628
0.457427
0.490063
0.605589
0.701129
0.463006
0.450559
0.308264
0.360384
0.715577
0.426356
0.308479
0.378212
0.853398
0.302623
1.04487
0.864576
0.749334
0.54542
1.28273
0.655365
0.647456
0.889308
1.01167
0.556368
0.988117
0.564721
1.11836
0.998823
1.27488
0.838205
0.75249
1.85363
1.71313
1.28749
0.614112
1.11255
1.49205
1.28946
0.923482
0.719715
0.745658
1.49079
0.410122
0.762725
1.38236
0.745247
0.689875
0.699146
0.63846
0.573741
1.10154
1.37066
1.61906
0.864385
0.330444
1.21488
0.535419
0.982996
2.06728
1.31262
2.33829
0.463073
1.78644
1.97958
0.464587
0.72807
0.914646
0.616023
0.27921
0.320815
0.351212
0.511733
0.297277
0.487983
1.31192
1.08771
0.295794
1.04168
0.801241
0.784172
0.338936
0.558597
0.411613
0.383537
0.725078
1.23926
0.317718
0.403201
0.637108
0.747185
1.93593
0.348662
0.485218
0.883641
0.361098
0.658296
1.11921
0.575726
0.959513
2.01108
0.756974
0.769363
0.858471
0.765165
0.708421
0.639976
0.584829
0.498793
0.465271
0.495717
0.345378
0.416983
0.512062
0.590897
0.518383
0.326826
1.15369
0.763548
1.21436
0.819151
0.709316
0.361685
0.343143
0.348973
0.810343
0.389018
0.531278
0.319514
0.401982
0.613168
0.476712
0.44371
0.451426
0.501291
1.47295
0.681124
0.820782
0.95671
1.11153
1.19509
1.18158
1.25391
1.06291
1.26977
1.38972
0.699821
1.06898
0.432568
0.43667
0.394394
0.440859
0.713403
0.698413
0.862709
0.603863
0.701619
0.690102
0.679359
0.495545
0.935512
0.702044
0.773967
0.865856
0.598258
0.468412
0.46829
0.47464
0.662184
1.18829
0.451603
0.872374
0.781688
0.95607
0.319164
0.31945
1.39568
0.574463
0.694569
0.45616
0.336668
0.307019
0.453627
0.293244
0.464063
0.295409
0.396848
0.287105
0.288669
0.307611
0.294442
0.287571
0.297618
0.683564
0.844644
0.626561
0.520066
0.672734
0.69878
1.08351
0.857495
0.836673
0.804692
0.866943
0.636729
0.761749
0.506041
0.580295
0.994084
0.919526
0.669073
0.328653
1.23571
1.43925
1.79119
1.05894
1.44684
0.771167
0.572975
1.32624
0.487141
0.963205
1.27032
0.436471
0.376126
0.887038
0.610908
0.561827
0.626654
0.574656
0.520159
0.685161
0.689898
0.413296
0.618179
0.924029
0.434623
0.428427
0.29879
0.519306
1.10167
1.16851
1.05769
1.22949
1.08778
1.05271
1.06891
0.990318
0.95015
0.938643
0.994161
1.07364
1.06953
0.547995
0.639583
0.530834
0.335651
0.6814
0.703184
0.612108
0.702236
0.456757
0.583597
0.591586
0.622847
0.30788
0.565697
0.696472
0.387992
0.685342
0.612846
0.551858
0.612827
0.388421
0.927029
0.486054
0.640748
0.430606
0.598751
0.551516
0.552485
1.02133
0.463858
0.426718
0.336202
0.629838
0.503973
0.308191
0.333896
0.570529
0.360791
0.330804
0.918998
0.720394
0.527461
0.473417
0.547441
0.708158
1.34645
0.984224
0.402038
1.64305
1.31544
0.748563
0.812541
0.883723
0.959894
0.785567
1.31044
0.941111
1.68287
1.27747
0.981276
0.713286
1.34249
1.9372
0.400188
0.723868
0.710219
0.579865
0.348182
0.633388
0.348058
0.314288
0.296801
0.363243
0.455322
0.917913
0.451365
0.469422
0.531118
0.909384
1.34969
0.327307
0.338917
0.790844
0.716271
0.558145
0.723404
1.13568
0.347052
0.390067
0.539086
1.18536
0.412594
0.540747
0.381997
0.462401
0.593961
0.307048
0.413428
0.621402
0.426134
0.519885
0.841861
0.295014
0.886788
0.60267
0.686555
0.540151
0.541036
0.614499
0.640762
1.13453
0.981028
0.998407
1.25163
1.00846
0.506662
0.640701
0.888044
0.819161
0.750428
0.997968
0.356905
1.36098
0.800565
0.489981
0.523642
0.725063
0.520854
1.49278
0.536664
1.2546
0.50455
0.525792
0.404097
2.25704
1.05374
0.857195
0.900214
0.977319
0.71219
0.483572
0.52812
0.587671
1.21087
0.38001
0.524297
0.420827
0.482405
0.543252
0.501584
0.401082
0.558086
0.420271
0.934031
0.498282
0.495133
0.511681
0.544589
0.507914
0.589377
1.47725
1.61434
2.33313
1.16224
0.829596
0.56682
0.735501
0.77237
0.399303
0.702893
0.424712
0.514456
0.429125
0.47013
0.525587
0.762992
0.63462
0.957516
1.0605
1.14294
0.560782
0.856579
0.759834
0.773277
1.60142
0.936507
2.14877
0.669756
1.21066
1.73358
0.784838
0.769339
1.7201
0.65685
1.8268
1.09219
1.66289
0.758672
1.8471
1.09726
0.680135
3.0497
0.639572
1.99249
1.05909
1.09737
1.42847
1.88971
0.463506
1.41182
0.769469
1.22058
0.785034
0.435939
0.655937
1.4457
1.0451
0.88828
1.2261
1.29142
2.4196
0.919726
0.641594
1.69893
1.28162
1.63859
0.871097
2.79064
1.02422
0.824702
1.04552
0.951884
1.03749
0.838459
0.869892
0.996678
0.812215
0.617071
1.20349
1.04342
0.705668
0.758326
0.690098
0.540501
1.9389
0.528724
1.38913
0.968665
1.39947
2.41363
1.8933
0.744646
0.927707
0.97356
0.579442
0.570663
0.547584
0.562357
0.625904
0.614574
1.07691
1.00568
0.84055
0.603437
0.355504
0.453803
0.298226
0.312941
0.325263
0.340418
0.728793
0.65592
0.810422
0.57784
0.538394
0.447375
0.527018
0.728233
0.472686
0.562949
0.478834
0.28164
0.319145
0.396598
0.330367
0.671166
0.601779
0.297429
0.586919
0.584863
0.95057
0.957869
1.47035
0.302763
1.01851
0.900419
0.31056
0.491215
0.434021
0.980303
0.941636
1.10677
0.454213
0.645406
0.683815
1.79755
3.23327
0.495982
0.573418
0.756965
0.885193
1.4
0.777178
0.491685
1.03372
0.575675
0.702194
0.815749
0.863811
0.636018
0.428626
0.484469
0.436114
0.486665
0.305277
0.29098
1.62876
0.559431
0.446236
0.337756
0.531955
0.491583
0.467585
0.534055
0.568218
0.899772
0.814716
0.362254
0.291825
0.521228
0.349505
0.352984
0.691181
1.65142
1.78623
1.20593
1.37335
0.351407
0.33197
0.505851
1.21075
0.890073
0.505689
0.48072
2.49498
0.830702
3.405
1.93823
2.15182
0.963565
0.669125
0.430955
0.546104
1.29932
1.66858
0.662081
0.808124
0.586007
0.499061
1.61296
0.968956
0.834692
0.306051
0.394302
0.516248
0.310754
0.36567
0.543352
0.747165
0.637634
0.424581
0.486968
0.490377
0.931762
0.328755
0.294666
1.06524
0.410334
1.0348
2.54605
0.734837
0.640564
0.411084
0.562371
0.356618
0.590396
0.720013
0.392613
0.406482
0.522369
0.532115
0.421951
0.47975
0.331089
0.971426
1.31345
1.08066
0.638716
0.831099
1.59139
1.09956
0.775663
0.803938
0.976104
0.445941
0.431087
0.331798
0.60353
0.411306
0.295324
0.360429
0.639882
0.314544
0.320929
0.341124
0.438281
0.321934
0.804874
0.413855
0.423907
0.547307
0.508045
0.505114
0.487166
0.294548
0.4689
1.58977
0.867715
0.865074
1.00033
0.428748
0.426254
0.574944
0.735256
0.469899
1.04059
0.463906
0.877795
0.446472
1.08498
0.670712
0.681577
0.398815
0.528876
0.75585
0.720261
0.314276
0.347765
0.340036
0.344312
0.342702
1.18615
0.445461
0.341076
1.0141
0.361735
0.933452
0.789491
0.432475
0.757589
0.72109
1.41672
0.649285
1.91792
0.594741
1.1045
1.41908
2.55225
0.466235
0.357876
0.344361
0.468391
0.412119
0.340758
0.868859
0.830181
0.425875
1.29327
0.54411
0.527778
0.477041
0.515301
0.481083
0.481296
0.540452
0.320477
1.32613
0.460344
0.439994
0.453578
0.46623
0.552264
0.869721
1.1539
1.15615
0.684414
0.861337
0.321192
0.954423
0.731849
0.456013
0.630441
0.777365
0.745248
0.889273
0.477846
0.537793
1.16183
0.984387
0.717734
0.588461
1.32539
0.841785
0.5556
0.380116
0.319269
1.35083
0.489586
0.65631
0.528863
1.08025
0.900956
0.856426
1.22285
0.552842
0.607858
2.21076
0.4815
1.85625
1.1586
0.899496
0.918755
0.826839
0.43784
0.986597
1.05348
0.661503
0.87662
0.934598
0.853426
1.11092
0.822627
1.21628
0.994999
1.09199
1.33874
1.171
0.728138
0.294413
0.291574
0.35292
0.418012
0.364002
0.311735
0.376631
0.663172
0.335752
0.364124
0.485834
0.999582
0.438283
0.647996
0.860654
0.703655
0.632995
0.456697
0.472944
0.469656
0.432139
0.503007
0.494244
0.462814
0.508239
0.464808
0.447674
0.609297
0.471823
0.433541
0.54032
0.508766
0.696717
0.549914
0.45694
0.501099
0.699745
0.492057
0.673511
0.580101
0.604496
0.440227
0.547564
1.19926
0.725631
0.659147
0.859397
0.468281
1.48421
1.11648
0.962768
1.07748
1.33882
0.418763
0.653103
1.70955
1.28642
1.26548
0.497808
0.419931
0.713468
2.15032
1.18597
0.653246
1.45018
1.12106
1.01461
0.736344
1.17108
0.991795
1.43478
0.543526
0.64733
1.38943
0.860588
1.40658
0.604386
1.00325
1.66551
1.01737
1.40827
0.698689
0.820519
1.2287
0.627042
0.31867
0.464643
2.26911
0.638913
0.533603
1.45004
1.14038
0.503277
1.495
1.3484
1.92372
0.862588
1.14899
0.667552
0.620841
0.83464
0.646306
0.644971
0.687435
0.428763
0.645195
0.533606
0.62601
0.556301
0.588527
0.533332
0.773832
0.585491
0.563205
0.452308
0.691622
0.774399
1.14905
0.956745
2.47647
0.846115
1.63659
0.923023
0.719072
0.972605
0.699372
0.873255
0.975841
1.08049
1.0201
0.813707
0.730308
0.884542
0.710148
0.340536
0.392487
0.375322
0.342851
0.397901
2.29448
1.8117
3.63436
0.877879
0.929672
0.583563
0.824624
0.763702
0.896271
0.912525
0.965302
0.568574
1.70907
0.946492
0.991592
1.02977
0.551696
1.2505
1.13594
1.09294
1.08694
1.06912
0.527313
0.534965
1.18041
0.571826
0.527051
0.331006
0.400244
0.737239
0.910204
0.670976
0.564753
0.6313
0.451663
0.648065
0.489761
0.705371
0.864271
0.717908
0.634212
0.580097
0.643203
0.715856
0.564116
1.20433
1.31998
0.663681
3.16842
1.45051
0.391821
1.17075
2.312
0.908997
1.23781
0.953593
0.510099
0.783758
0.537073
0.294013
0.9936
0.314069
0.289752
0.806581
0.769636
0.846886
0.734654
0.907302
0.599395
0.634903
0.815593
1.22318
1.28171
1.40848
1.64438
0.964545
0.970124
1.14327
1.61952
0.665562
0.780603
2.09805
0.724814
0.750154
0.992718
1.08863
0.655839
1.15569
1.03184
0.792223
0.790521
0.727487
0.767429
0.890175
0.717191
1.02394
0.943473
0.519563
0.856095
0.714733
0.808327
0.590837
0.885018
1.07605
1.28327
1.05924
1.05468
1.04948
0.890381
0.706456
1.22543
1.44759
0.551798
0.650749
2.46646
1.07249
0.786297
0.999889
0.843814
0.783568
1.07342
0.913445
0.51484
0.662412
0.765589
0.863475
0.797977
0.764147
0.510879
0.900036
0.787605
1.48691
0.625035
1.20811
0.753898
0.757608
3.08236
1.86858
1.56823
1.03127
0.298494
1.07437
0.761516
0.482524
0.918371
0.327473
0.713175
0.890149
4.05465
1.03147
0.557399
0.5284
0.348746
1.95016
1.20904
1.23821
0.989667
0.652168
0.404084
0.376915
0.780005
1.7482
0.787157
0.313529
0.824122
0.3472
0.304694
1.51716
0.333692
0.33353
0.314814
1.51864
0.584256
1.43298
1.20867
1.14478
0.344003
0.574847
0.563649
0.494705
0.427892
1.0945
0.350053
0.60074
0.505832
0.537993
0.299796
1.18455
2.04358
1.54476
0.781514
0.975894
0.801232
0.883735
0.309331
0.289082
0.507998
0.321528
0.283716
0.316642
0.286115
0.305199
0.287881
0.313547
0.300423
0.313201
0.733413
0.306511
0.659494
0.34621
0.510817
0.660989
0.563857
0.72241
0.771005
0.724363
0.746042
1.29241
0.335476
0.915554
0.7464
0.54624
0.308957
0.971154
0.583117
0.875395
0.652269
0.5585
0.347209
0.593423
1.42113
0.326297
0.482145
0.704027
0.751275
0.73123
0.706281
0.666326
0.699791
0.711677
0.804446
0.78519
1.24288
0.347812
0.341629
0.395994
0.68218
0.433056
2.26045
3.09922
2.81342
2.32052
2.53911
1.31172
0.884143
3.7481
0.726167
0.508696
0.375824
0.643715
1.47437
2.2773
1.05227
0.616646
0.519091
0.471781
0.588021
0.576829
0.5175
0.488524
0.466612
0.554149
0.482495
0.566237
0.724121
0.470646
0.528255
0.994211
0.929081
0.510635
0.510441
0.602019
0.574612
0.682897
0.779286
0.622897
0.739222
0.640933
0.464785
0.649116
0.482103
0.445165
0.577894
0.48379
0.49442
0.353391
0.325063
0.335847
0.303439
0.524456
0.517729
0.532813
1.44051
0.942757
0.901353
1.42889
0.662285
0.351557
0.360796
0.52823
0.438926
0.794213
0.795593
0.893981
1.23447
1.1352
0.739649
0.597888
0.590473
1.12587
1.12253
0.529046
0.943358
1.12234
1.04091
0.595752
0.630362
0.732928
0.847953
0.892842
0.775197
0.606166
0.940459
0.626655
0.669944
0.58104
0.746991
0.548274
1.11984
1.18364
0.571295
0.440211
1.21755
1.32618
0.478547
0.57083
0.551722
1.34634
1.88881
0.690564
1.04467
0.597459
1.00179
0.949578
0.443505
0.583391
0.587493
0.933355
1.07713
0.601615
1.12312
0.754083
0.441293
0.597875
0.825697
0.408304
1.44436
1.0917
0.534201
0.818668
0.89883
0.788728
1.22264
1.15883
0.36763
0.306257
0.295468
0.973312
0.655251
0.516538
0.378002
0.51007
3.36835
2.19927
1.37861
0.465806
0.484037
0.584344
1.07551
1.07813
0.775191
1.00097
0.649959
0.448563
0.411402
0.501107
0.820374
0.664473
0.328609
0.591438
0.672122
0.488817
0.681356
0.900303
1.32407
0.915598
0.995283
0.938812
0.566552
0.704235
0.559762
0.594347
0.840979
0.727754
0.792592
1.12184
0.734883
0.662503
0.420801
0.695169
0.75087
0.439845
0.514963
0.592932
0.43953
0.644966
0.527498
0.537189
1.09951
0.969165
0.530601
0.522669
0.594529
0.809882
0.594195
0.498786
0.421746
0.693284
0.663662
0.907719
0.784799
0.819753
0.862261
1.10002
1.0054
1.30611
1.1716
0.461116
0.762932
0.801526
0.528299
0.836439
1.09759
2.06168
0.382157
0.700499
0.360005
0.686106
0.850247
1.22556
1.2511
0.339747
1.06032
0.928977
0.387749
1.24201
0.472504
1.46224
1.19255
0.68876
0.711983
0.738856
1.34486
0.753707
0.761926
0.814302
0.321345
0.536594
0.299549
0.455403
0.436745
0.534661
0.367891
0.421536
0.387019
0.295497
0.646518
0.477041
0.664515
0.918854
0.641201
0.583236
0.768356
0.856552
0.904911
0.595782
0.441627
0.456163
0.461337
0.486389
0.804613
0.920547
0.647946
0.448652
0.634616
0.7427
0.40988
0.585597
0.479258
0.655058
0.457051
0.546321
0.394483
0.946513
0.785445
0.728722
1.86994
0.66392
1.22209
1.07303
1.01029
0.458641
0.567849
0.812916
0.471851
0.436321
0.453407
0.404598
1.30638
1.00868
1.60272
1.26453
1.02456
0.480976
0.449369
0.645609
0.573431
0.600268
0.69955
1.03926
0.82034
1.57961
0.67636
1.792
1.64374
0.630993
1.40308
0.379365
0.322308
0.921915
0.781095
0.733264
0.38331
0.552442
0.488954
0.305358
0.299834
0.569198
0.585368
0.357508
0.322239
0.352824
0.310768
0.4728
0.661757
0.780313
0.366305
0.361217
1.05725
0.380757
0.437251
0.384366
0.894515
0.499165
0.313864
0.550604
1.00104
0.68463
0.386183
1.09475
0.340157
0.326067
0.390656
0.410498
0.404172
0.976603
0.94069
0.92562
1.15511
1.23426
0.604931
0.69149
0.414953
0.524499
0.408508
0.657269
0.552848
1.12347
1.21036
0.518261
0.47336
0.552296
0.506656
0.906179
0.747266
0.774615
0.535962
0.37742
0.387407
0.445731
0.594131
0.709834
0.540253
0.579953
0.712931
0.758031
0.674824
0.746276
0.632682
0.349204
1.31943
0.571619
0.535219
0.60758
0.459622
0.429405
0.466543
0.69873
0.517335
0.704192
0.778839