/*--------------------------------*- C++ -*----------------------------------*\
| =========                 |                                                 |
| \\      /  F ield         | OpenFOAM: The Open Source CFD Toolbox           |
|  \\    /   O peration     | Version:  2506                                  |
|   \\  /    A nd           | Website:  www.openfoam.com                      |
|    \\/     M anipulation  |                                                 |
\*---------------------------------------------------------------------------*/
FoamFile
{
    version     2.0;
    format      ascii;
    arch        "LSB;label=32;scalar=64";
    class       volScalarField;
    location    "0.0563527";
    object      k;
}
// * * * * * * * * * * * * * * * * * * * * * * * * * * * * * * * * * * * * * //

dimensions      [0 2 -2 0 0 0 0];

internalField   nonuniform List<scalar> 
3926
(
0.320981
0.320547
0.442829
0.653515
0.515356
0.811505
0.822337
0.948008
0.755411
0.870876
0.896776
0.333608
0.319053
0.332434
0.338956
0.321867
0.325125
0.332291
0.491348
0.313382
0.453494
0.559891
0.51736
0.325086
0.386781
0.501727
0.478571
0.633776
0.665154
0.33693
0.351943
0.408531
0.33957
0.352905
0.399645
0.339097
0.947155
0.39931
0.341374
0.314943
0.599502
1.01932
0.369979
0.32601
0.329644
0.998817
0.382006
0.470064
0.812207
0.388243
0.447324
0.929961
0.853936
0.853556
0.351601
0.392686
1.16408
0.729161
0.421568
0.73565
0.33196
0.631959
0.955906
0.406897
0.84958
0.772164
0.839934
0.652547
0.806343
0.840724
0.724541
0.326911
0.801681
0.309758
0.34963
0.446417
0.358715
0.703033
0.429674
0.337385
0.530123
0.397133
0.812526
1.26383
0.328113
0.378728
0.32786
0.354397
0.829615
0.342075
0.335986
0.412015
0.4725
0.363876
0.369796
0.980633
0.348434
0.402439
0.83518
0.444575
0.585755
0.39254
0.441371
0.402709
0.625347
0.55514
0.411089
0.366121
0.389033
0.353481
0.455714
0.40263
0.376623
0.398327
0.328404
0.731425
0.53206
0.322719
0.807177
0.910608
0.314355
0.313707
0.339543
0.453501
0.372151
0.413325
0.639453
0.376274
0.588991
0.42911
0.393382
0.39765
0.376729
0.39043
0.815484
0.805118
0.841354
0.793795
0.886925
0.478115
0.328394
0.329444
0.438333
0.482883
0.371388
0.632739
0.430217
0.530233
0.399821
0.419555
0.448343
0.4665
0.421779
0.505406
0.560049
0.587814
0.420001
0.63473
0.55338
0.603315
0.457596
0.371601
0.403288
0.757848
0.775791
0.399669
0.356004
0.321674
0.35222
0.541698
1.0972
0.364601
0.339817
0.336831
0.3894
0.451359
0.38926
0.800222
0.533722
0.405476
0.731175
0.318999
0.581719
0.325277
0.318648
0.425614
0.44649
0.36761
0.469334
0.435083
0.796822
0.394009
0.641385
0.370423
0.37298
0.338431
0.356144
0.361185
0.373224
0.866538
0.415441
0.891662
0.848514
0.378009
0.36552
0.534075
0.349567
0.736781
0.398891
0.315714
0.319688
0.357729
0.45839
0.332822
0.338938
0.583474
0.36201
0.445479
0.431986
0.485334
0.34285
0.462137
0.340647
0.909024
0.386002
0.806734
0.783106
0.422185
0.324957
0.398432
0.346843
0.651171
0.334783
0.353428
0.438934
0.443641
0.413107
0.548771
0.966744
0.435838
0.946521
0.366368
0.342307
0.779406
0.319125
0.418668
0.727129
0.411652
0.339609
0.946039
0.795698
0.666871
1.09558
0.553534
0.373537
0.586275
1.09395
0.422915
0.511217
0.892476
0.867907
0.814723
0.396513
0.795816
0.899804
0.39267
0.314773
0.450201
0.436963
0.882765
0.804276
0.924816
0.337237
0.4479
0.395899
0.493639
0.325535
0.428569
0.33368
0.325404
0.738095
0.913543
0.318125
0.363047
0.581825
0.773502
0.614687
0.69818
0.909789
0.553888
0.511114
0.322187
0.372632
0.658198
0.321221
0.497723
0.354911
0.421096
0.402972
0.724025
1.03135
0.55117
0.372
0.461681
0.368871
0.605075
1.05588
0.429305
0.355092
0.805221
0.900187
0.574929
0.668432
0.336483
0.471597
0.404739
0.394111
0.307445
0.580229
0.418924
0.594722
0.33013
0.870747
0.566828
0.583859
0.396748
0.718302
0.516452
0.97515
0.359868
0.492333
0.354156
0.309369
0.32287
0.327108
0.319246
0.451688
0.690851
0.967591
0.534883
0.694447
0.626415
0.437556
0.324089
0.382324
0.327485
0.860755
0.709128
0.874857
0.512114
0.78441
0.433796
0.401223
0.53896
0.900987
0.983028
0.911558
0.878584
0.352315
0.330543
0.374511
0.318334
0.506996
0.47109
0.832572
0.505534
0.444783
0.35603
0.543496
0.334966
0.322737
0.324453
0.837291
0.354887
0.594828
0.3921
0.454589
0.369674
0.736971
0.422132
0.334212
0.473831
0.457547
0.52273
0.382487
0.355383
0.516912
0.583507
0.464375
0.409298
0.921202
0.362212
1.00951
0.452282
0.410686
0.427541
0.450545
0.321017
0.427999
0.305709
0.321911
0.339361
0.373822
0.353948
0.475206
0.483867
0.435261
0.325793
0.453241
0.329092
0.347049
0.864371
0.63024
0.514549
0.390984
0.386329
0.396761
0.894455
0.376518
0.313295
0.339217
0.337791
0.428412
0.482761
0.394934
0.336415
0.410864
0.327134
0.325435
0.327878
0.440823
0.31729
0.534362
0.397622
0.32835
0.339235
0.422916
0.316344
0.86657
0.345872
0.37864
0.943207
0.729556
0.312377
0.637784
0.914612
0.579741
0.812523
0.344145
0.318634
0.917413
0.417246
0.335697
0.86103
0.318101
0.599598
0.568686
0.414642
0.39748
0.332976
0.330326
0.551594
0.335526
0.362066
0.407307
0.346075
0.368993
0.86249
0.419574
0.332945
0.327016
0.333506
0.312406
0.313709
0.500264
0.485666
0.400841
0.487274
0.330121
0.545088
0.543253
0.450193
0.322052
0.383818
0.314015
0.366151
0.714806
0.535577
0.464887
0.925906
0.418663
0.520384
0.911975
0.925403
0.460057
0.516436
0.579362
0.441011
0.547857
0.760526
0.471489
0.710783
0.429822
0.473265
0.544605
0.941338
0.370573
0.48084
0.333231
0.722489
0.52554
0.9812
0.975349
0.45643
0.541817
0.699169
0.858635
0.52119
0.969401
0.851702
0.971957
0.86602
0.821536
0.660331
0.808039
0.457221
0.467192
0.83614
0.765211
0.465884
0.337115
0.341058
0.388574
0.317793
0.69961
0.74315
0.901588
0.933896
0.330264
0.332045
0.333446
0.732591
0.99952
0.941912
1.12651
0.791946
0.699076
0.343582
0.354532
0.340078
0.34169
0.442092
0.605486
0.32759
0.334808
0.660131
0.468151
0.58036
0.653795
0.428001
0.419864
0.488348
0.314076
0.328887
0.362943
0.3804
0.801106
0.746838
0.666526
1.14561
0.375185
0.365519
0.343329
0.337634
0.334334
0.616304
0.472251
0.433989
0.864442
0.329742
0.827762
0.399672
0.47014
0.361236
0.475199
0.554966
0.84122
0.355583
0.345804
0.350492
0.720135
0.350012
0.815372
0.998923
0.875418
0.331458
0.532445
0.836362
0.662996
0.70245
0.512565
0.387004
0.407004
0.368865
0.322507
0.316256
0.391724
0.573684
0.549761
0.780724
0.715986
0.475918
0.638769
0.361948
0.336017
0.345257
0.322265
0.323123
0.322546
0.325244
0.326639
0.497205
0.451639
0.391156
0.81284
0.718225
0.587443
0.371299
0.396621
0.332327
0.348877
0.392563
0.336854
0.347851
0.609124
0.334227
0.345476
0.551284
0.510677
0.751113
0.488815
0.334574
0.3744
0.45499
0.777071
0.405223
0.412629
0.455303
0.440519
0.489572
0.353159
0.434606
0.426825
0.42111
0.353968
0.507897
0.339008
0.341088
0.346407
0.557976
0.603269
0.340655
0.355458
0.349011
0.474674
0.443745
0.415874
0.910805
0.441916
0.362019
0.419893
0.325448
0.318472
0.407669
0.402154
0.411222
0.501318
0.423477
0.381696
0.470503
0.353852
0.37435
0.463973
0.731267
0.506934
0.370631
0.342952
0.336718
0.32161
0.31672
0.476134
0.431611
0.625176
0.485311
0.446357
0.333157
0.330357
0.328544
0.337345
0.343811
0.339863
0.347985
0.326446
0.356759
0.352965
0.346123
0.342217
0.426025
0.546091
0.320372
0.324723
0.337278
0.33097
0.350302
0.321639
0.36995
0.354177
0.472993
0.517642
0.504901
0.374704
0.378132
0.348474
0.361746
0.344857
0.343109
0.321193
0.32375
0.317117
0.424414
0.310608
0.354609
0.429522
0.369919
0.319516
0.439463
0.361098
0.332434
0.330056
0.339325
0.326077
0.324911
0.817993
0.334205
0.337744
0.351683
0.320034
0.32181
0.324839
0.31764
0.320349
0.319567
0.319547
0.31811
0.362698
0.35033
0.982519
0.455492
0.811384
0.379882
0.995238
0.37463
0.336869
0.388797
0.658355
0.417424
0.698807
0.61225
0.410104
0.949725
0.323578
1.02979
0.969021
0.319559
0.332536
0.590264
0.739903
0.333072
0.331877
0.433841
0.308309
0.682219
0.443098
0.419413
0.31718
0.34001
0.339367
0.35348
0.331887
0.324117
0.353155
0.319121
0.327896
0.555894
0.410585
0.354237
0.393473
0.323813
0.36641
0.438525
0.347089
0.350385
0.934329
0.346794
0.431689
0.867906
1.03635
0.4243
0.330011
0.411978
0.333137
0.653465
0.366827
0.312545
0.440186
0.332539
0.318903
0.349283
0.371967
0.357968
0.749562
0.581816
0.905858
0.330741
0.423857
0.377919
0.345122
1.04752
0.518558
1.31951
0.320853
0.317578
0.848636
0.618778
0.728301
0.42264
0.318749
0.339736
0.320431
0.912611
0.366745
0.31024
0.820603
0.383969
0.341729
0.333899
0.567308
0.320408
0.427847
0.487997
0.336587
0.933944
0.427626
0.354093
0.934812
0.639806
0.365607
0.816387
0.759846
0.351969
0.859059
0.338646
0.333928
0.363941
0.542972
0.390141
0.390587
0.33804
1.04121
0.886058
0.699683
0.484902
0.809509
0.462669
0.351873
0.425052
0.377177
0.376039
0.624174
0.522604
0.75361
0.348088
0.340906
0.489969
0.403746
0.467121
0.814471
0.413253
0.419793
0.320138
0.326603
0.312341
0.349656
0.311636
0.716025
0.317916
0.701047
0.370175
0.320452
0.437493
0.551761
0.637546
0.51162
0.431404
0.561912
0.330012
0.338198
0.355409
1.03129
0.328942
0.410443
0.978963
0.320848
0.309696
0.315629
0.423274
1.05243
0.628383
0.727674
0.472237
0.337213
0.338549
0.339523
0.603071
0.318367
0.352656
0.731846
0.616287
0.662206
0.503893
0.478424
0.444089
0.901249
0.727022
0.337158
0.373206
0.480814
0.326285
1.09981
0.947343
0.332916
0.32396
0.314623
0.327052
0.336563
0.323228
0.384019
0.37787
0.507454
0.799234
0.719273
0.521482
0.339312
0.444734
0.876921
0.669731
0.881601
0.671003
0.407643
0.333305
0.507349
0.584434
0.815587
0.423719
0.396789
0.478715
0.426599
0.720975
0.361551
0.71766
0.864545
0.488672
0.479668
0.34024
0.44131
0.324508
0.776327
0.550025
0.437075
0.400757
0.379539
0.370072
0.417681
0.400087
0.537374
0.36275
0.309865
0.343744
0.321673
0.810859
0.440691
0.879821
1.10726
0.804065
0.662454
0.498585
0.348958
0.346901
0.489506
0.507564
0.360618
0.316544
0.82597
0.812197
0.428084
0.406209
0.318347
0.34084
1.01157
0.41633
0.37728
0.354609
0.489045
0.404506
0.606586
0.439718
0.587524
0.355466
0.331294
0.393944
1.02859
0.519521
0.444385
0.971527
1.06187
0.537036
0.393381
0.448409
0.333945
0.336541
0.329519
0.318689
0.439259
0.355618
0.382254
0.65939
0.386797
0.881417
0.502821
0.411236
0.356379
0.849754
0.358938
0.380384
0.424218
0.964457
0.322714
0.435669
0.347007
0.913457
0.372685
0.474845
0.383946
0.465827
0.668187
0.805239
0.334512
0.660009
0.787894
0.563541
0.36898
0.666385
0.646856
1.00208
0.340421
0.346827
0.346708
0.31938
0.315536
0.90613
0.37061
0.311498
0.961515
0.531396
1.00946
0.351046
0.344234
0.333103
0.765819
0.499997
0.446882
0.35156
0.332809
0.328123
0.342718
0.327975
0.325162
0.326718
0.345306
0.344339
0.342888
0.496114
0.340156
0.321291
0.33885
0.328225
0.32315
0.344795
0.31813
0.341342
0.32481
0.324777
0.326337
0.32332
0.783302
0.852619
0.328589
0.848765
0.32813
0.337081
0.336499
0.338095
0.359207
0.324487
0.995661
1.13853
1.0619
0.375688
0.362949
0.615436
0.689519
0.312781
0.407238
0.328803
0.340021
0.932383
0.537505
0.37939
0.355987
0.359457
0.82694
0.594396
0.531836
0.803269
0.414587
0.549918
0.435677
0.388581
0.843571
0.684295
0.370628
0.667378
0.802938
0.672565
0.579395
0.629625
0.329346
0.898642
0.471771
0.358937
0.776962
0.516636
0.630391
0.90653
0.667477
0.807619
0.774651
0.802429
0.578006
0.324885
0.88862
0.443423
0.60793
0.497497
0.36711
0.342233
1.07176
0.967829
0.710072
0.433225
0.751444
0.427606
0.774601
0.766794
0.504371
0.940371
0.97651
0.675194
0.540544
0.475486
0.349978
0.373149
0.349537
0.320718
0.820331
0.773553
0.848546
0.852115
0.764556
0.760134
0.842667
0.779877
0.395403
0.342013
0.35316
0.356166
0.334771
0.414073
0.347142
0.695609
0.677592
0.86971
0.466147
0.323674
0.931581
1.1613
1.05061
0.802056
0.595114
0.387537
0.904968
1.18649
0.895896
0.3149
0.618409
0.324203
0.712947
0.601675
0.821005
0.626606
0.428741
0.516298
0.538932
0.872175
0.917336
0.812331
0.928893
0.864074
0.929256
1.06722
0.949027
0.339173
0.324128
0.330242
0.368598
0.367699
0.318174
0.312856
0.329114
0.40292
0.343188
0.338364
0.332412
0.344293
0.504279
0.319622
0.313924
0.316008
0.310529
0.348091
0.336151
0.463326
0.396541
0.406097
0.369494
0.465479
0.442364
0.519331
0.382405
0.348875
0.342092
0.788449
0.604131
0.708202
0.322888
0.378659
0.35633
0.31506
0.399738
0.407301
0.32805
0.333277
0.446666
0.750945
0.334378
0.576932
0.390754
0.424236
0.465114
0.397984
1.01692
0.395004
0.410242
0.424536
0.372564
0.375893
0.330452
0.35842
0.769733
0.526116
0.34365
0.377236
0.423582
0.340461
0.876783
0.582396
0.347465
0.575459
0.530561
0.537595
0.883046
0.730989
0.50602
0.695935
0.598879
0.932077
0.408022
0.375835
0.447963
0.366975
0.523324
0.354376
0.409198
0.328308
0.317374
0.31756
0.320539
0.442402
0.448898
0.343362
0.335458
0.313071
0.479257
0.412351
0.479986
0.338792
0.350402
0.48481
0.323367
0.894034
0.536949
0.526236
1.00768
0.997386
0.849525
0.609888
0.325692
0.40377
0.333714
0.348565
0.336486
0.365026
0.860287
0.33374
0.606018
0.971422
0.615449
0.728234
0.446976
0.342309
0.317515
0.361933
0.308847
0.332976
0.390131
0.35998
0.381132
0.358999
0.398775
0.336104
0.458912
0.684502
1.08799
0.403304
0.31839
0.318
0.32432
0.329736
0.346377
0.390565
0.427478
0.855965
0.353765
0.369723
0.545317
0.436873
0.330449
0.381365
0.323782
0.798666
0.556717
0.40418
0.389752
0.327742
0.35404
0.791698
0.361911
0.483038
0.77155
0.389525
0.603603
0.627133
0.394833
0.581444
0.312104
0.312127
0.697239
0.389518
0.309523
0.309653
0.365816
0.39441
0.403683
0.31468
0.377243
0.327765
0.66823
0.651616
0.754424
0.545259
0.540932
0.432148
0.911237
0.317885
0.308157
0.314412
0.314539
0.314067
0.324466
0.327674
0.38325
0.330069
0.385016
0.727676
0.443205
0.574136
0.45076
0.604745
0.335351
0.389021
0.513206
0.869914
0.588657
0.3203
0.310781
0.958521
0.846459
0.628829
0.46834
0.446145
0.74579
0.47418
0.632856
0.550363
0.441853
0.429921
0.596252
0.363658
0.496777
0.316283
0.87645
0.524342
0.468612
0.74046
0.888082
0.414623
0.403627
0.456696
0.87232
0.338843
0.348626
0.843279
0.873746
0.524205
0.384076
0.327305
0.345591
0.476232
0.333286
0.391642
0.32188
0.327457
0.692486
0.904797
0.346203
0.441419
0.504924
0.465576
0.936867
0.350532
0.992166
1.01743
0.328656
0.403791
0.341377
0.320182
0.883814
0.384107
0.855049
0.345186
0.388614
0.792662
0.335705
0.560306
0.795009
0.410261
0.435272
0.411035
0.470355
0.339109
0.320576
0.342637
0.382913
0.328159
0.508041
0.339295
0.327718
0.625938
0.67568
0.953159
0.871595
0.508507
0.738209
0.327469
0.329334
0.413054
0.423418
0.385468
0.356332
0.420992
0.331622
0.31155
0.318724
0.407493
0.455714
0.363369
0.324623
0.343743
0.347743
0.462422
0.357889
0.697372
0.371442
0.317572
0.316385
0.323584
0.345446
0.33852
0.577618
0.624401
0.586577
0.622848
0.665282
0.770618
0.418107
0.388726
0.378173
0.36181
0.878231
0.378804
0.37043
0.4496
0.345207
0.892036
0.58128
0.406025
0.432747
0.449903
0.877108
0.370241
0.341238
0.438832
0.405888
0.830471
0.396335
0.41281
0.758811
0.354858
0.542781
0.349575
0.591381
0.563341
0.51877
0.30911
0.771419
0.424639
0.736131
0.375309
0.714788
0.827115
0.566473
0.363737
0.388262
0.46348
0.510966
0.679269
0.878722
0.676352
0.315516
0.555257
0.978207
0.506514
0.884493
0.840978
0.734579
0.609186
0.383438
0.334282
0.344792
0.3468
0.478592
1.08344
0.452828
0.616979
1.12504
0.484326
0.465245
0.487541
0.534632
0.651501
0.312707
0.341384
0.436307
0.34621
0.354146
0.351315
0.390493
0.34485
0.33409
0.599186
0.333869
0.36045
0.352497
0.364069
1.03301
0.598851
0.669561
0.692223
0.63834
0.645391
0.61356
0.333886
0.319581
0.329366
0.654993
0.324902
0.328716
0.57152
0.854009
0.620023
1.043
0.332657
0.967385
0.803117
1.10529
0.906246
0.448784
0.996004
0.793767
0.779711
0.798699
0.936035
0.873613
0.534831
0.835574
0.422834
0.716736
0.340655
0.959065
0.750071
0.708727
0.611577
0.787759
0.912448
0.520843
0.641289
0.566108
0.752535
0.746439
0.741748
1.1633
0.505188
0.627393
0.704371
0.83023
0.861837
0.404167
0.342285
0.576745
0.450646
0.569603
0.672771
0.485184
0.646309
0.600501
0.687345
0.757655
0.63373
0.85368
0.330253
1.0954
0.395474
1.29953
1.31121
0.482584
0.760226
0.445698
1.054
0.700048
0.533652
0.435364
0.368316
0.351011
0.380075
0.430396
0.702659
0.614143
0.9252
0.409103
0.862942
0.9467
1.22163
0.762944
0.341409
1.00297
1.34899
0.834728
0.765144
0.319383
0.736067
0.877179
0.782855
0.359634
0.333157
0.676481
0.380197
0.433494
0.725941
0.811665
0.394405
0.311101
0.333025
0.342103
0.370148
0.439759
0.379292
0.388994
0.324894
0.366091
0.366951
0.659546
0.948199
0.440618
0.557773
0.607044
0.428446
0.384042
0.344721
0.408264
0.399492
0.410417
0.441409
0.447532
0.413894
0.388918
0.425571
0.323079
0.314255
0.6368
0.359087
0.325816
0.422567
0.882811
0.363498
0.415115
0.367124
0.395252
0.943629
0.808469
0.524525
0.749887
0.320082
0.327933
0.596608
0.793188
0.723446
0.833952
0.834728
0.695968
0.689716
0.777427
0.674129
0.382996
0.697759
0.692658
0.731068
0.409071
0.868039
0.316666
0.311893
0.338512
0.304589
0.306676
0.520923
0.513839
0.412185
0.407121
0.317988
0.513344
0.637247
0.813629
0.751245
0.816819
0.571918
0.663988
0.775879
0.805129
0.563424
0.488766
1.12856
0.350513
0.562116
0.738959
0.3444
0.333788
0.325075
0.492258
0.448846
0.388399
0.713829
0.426311
0.344797
0.822146
0.435333
0.65457
0.336873
0.371888
0.384438
0.399408
0.344526
0.526382
1.12385
0.342404
0.395046
0.343913
0.351855
0.364235
0.340703
0.33567
0.317008
0.452318
0.357638
0.366223
0.362162
0.339266
0.319051
0.385056
0.345825
0.996757
0.462265
0.393927
0.635256
0.411442
0.366571
0.420821
0.344297
0.379639
0.318418
0.320766
0.38076
0.325939
0.326509
0.331594
0.322125
0.322622
0.32026
0.632275
0.713245
0.402844
0.362924
0.902319
0.375653
0.451599
0.468051
0.623498
0.622557
0.596099
0.681982
0.941126
1.00515
0.822961
1.08334
0.980949
0.503698
0.362012
0.317736
0.361275
0.709951
0.4525
0.700341
0.353435
0.314721
0.421196
0.482139
0.315145
0.345069
1.15134
0.33145
0.440352
0.764317
0.340526
0.427415
0.339906
0.38259
0.319143
0.505268
0.945531
0.358321
0.523754
0.443275
0.381931
0.316557
0.329102
0.318045
0.472665
0.425124
0.342781
0.325228
0.399503
0.330231
0.419228
0.367481
0.375025
0.556224
0.407053
0.488217
0.372398
0.363547
0.751086
0.649526
0.595539
0.59008
0.774529
0.542695
0.326685
0.415488
0.34731
0.971274
0.326386
0.354662
0.400026
0.358695
0.501648
0.785815
0.416106
0.389306
0.486678
0.338464
0.394602
0.918743
0.312737
0.318275
0.351994
0.371589
0.740683
0.416808
1.02463
0.576751
0.357257
0.323305
0.349375
0.414197
0.493898
0.641988
0.721128
0.829949
0.435425
0.347925
0.513713
0.988131
0.534036
0.519604
0.870416
0.581413
1.13869
1.04905
0.453475
1.13018
0.993123
0.857068
1.01267
0.324526
0.500737
0.398302
0.318522
0.336324
0.34227
0.587379
0.335327
0.786518
0.384494
0.774391
0.67606
0.334773
0.353951
0.377207
0.325638
0.384403
0.439779
0.664341
0.7453
0.594792
0.870677
1.04274
0.509447
0.586602
0.39103
0.35919
0.64262
0.886548
0.801234
0.317292
0.320572
0.316336
0.314609
0.343504
0.325043
0.321285
0.383368
0.334395
0.40072
0.468598
0.402347
0.362761
0.372444
0.409156
0.577266
0.627819
0.941586
0.928967
0.41157
0.610102
0.423119
0.751423
0.498499
0.939857
0.327384
0.333753
0.904586
0.41123
0.378202
0.403078
0.429899
0.437786
0.990709
1.21294
0.388372
0.783524
0.549546
0.672625
0.744697
0.426408
0.478147
0.519745
0.31302
0.413995
0.352836
0.319868
0.882579
0.40649
0.323642
0.36991
0.36927
0.581319
0.86461
0.855293
0.57538
0.889711
0.857102
0.888011
0.863501
0.352815
0.351121
0.689903
0.363329
0.816127
0.472377
0.769871
0.37473
0.393417
0.318735
0.483478
0.327532
0.442808
0.316178
0.334167
0.323828
0.346747
0.388847
0.576607
0.623737
0.511883
0.97558
0.350661
1.01528
0.67209
0.808363
0.497272
0.315848
0.338257
0.382198
0.330664
0.31779
0.313887
0.370794
0.319765
0.338638
0.306198
0.373543
0.778338
0.484475
0.378126
0.68607
0.64367
0.539131
0.757793
0.426514
1.07524
0.581373
0.465928
0.360794
0.605051
0.765642
0.769339
0.548736
0.933062
0.326996
0.684751
0.330633
0.319285
0.397671
0.332658
0.332281
0.353587
0.334656
0.348666
0.786437
0.335387
0.593337
0.551998
0.765941
0.712905
0.431091
0.406861
0.784632
0.35355
0.474851
0.563091
0.535908
0.308309
0.812642
0.38774
0.39545
0.388264
0.325137
0.32251
0.32802
0.329034
0.323369
0.556351
0.466704
0.352481
0.33426
0.330364
0.367587
0.353057
0.351473
0.496111
0.464559
1.07799
0.829623
0.946097
1.01121
0.428311
0.446234
0.485774
0.994641
0.448799
0.807046
0.774826
0.534705
0.319515
0.512752
0.668506
0.775799
0.3292
0.325483
0.34659
0.351314
0.33081
0.359675
0.496714
0.430324
0.525134
0.4145
0.393507
0.401315
0.415714
0.441611
0.46281
0.82025
0.651707
0.598987
0.773479
0.624708
0.588616
0.626151
0.535571
0.535747
0.355715
0.392378
0.354274
0.388716
0.378128
0.519448
0.402588
0.386797
0.340989
0.390346
0.316242
0.319124
0.316438
0.316905
0.417289
0.314927
0.650301
0.324597
0.329327
0.334447
0.776456
1.04229
0.736454
0.814636
0.360833
0.436619
0.317767
0.341018
0.337636
0.329188
0.40153
0.959554
0.780505
0.565281
0.435195
0.721166
0.340485
0.889418
0.394727
0.877027
0.495892
0.677856
0.750385
0.967394
0.938326
0.852461
0.873443
0.683505
0.444717
0.431739
0.854081
0.400533
0.408085
0.328111
0.741912
0.359252
0.349389
0.333266
0.356299
0.315499
0.656626
0.89486
0.484719
0.420338
0.366614
0.330522
0.332172
0.540631
0.535684
0.429879
0.610558
0.319874
0.325507
0.373609
0.429093
0.430741
0.948267
0.527898
0.86174
0.72765
0.926396
0.840302
0.978456
0.682022
0.95243
0.87733
0.845978
0.94821
0.98515
0.733925
0.927147
0.601035
0.643549
0.384766
0.723993
0.373302
0.346234
0.348473
0.431149
0.356596
0.333869
0.33058
0.522536
0.653941
0.515454
0.627424
0.538591
0.709009
0.442798
0.804726
0.848436
0.359408
0.845768
0.456023
0.737078
0.742131
0.331945
0.338116
0.359122
0.352717
0.335432
0.353016
0.329293
0.405251
0.504359
0.943437
0.814278
0.505652
0.657028
0.337699
0.383632
0.357979
1.03373
0.635907
0.337197
0.325014
0.355846
0.820584
0.325436
0.37503
0.375681
0.814195
0.668485
0.649756
0.382057
0.371376
0.344393
0.452865
0.449954
0.714993
0.441741
0.667603
0.764495
0.742006
0.416467
0.436793
0.509431
0.422845
0.540848
0.322735
0.323353
0.355526
0.453321
0.403146
0.387033
0.385536
0.567252
0.57563
0.709163
0.783072
0.654999
0.64113
0.55421
0.464536
0.475955
0.440329
0.387737
0.417492
0.371764
0.404182
0.402022
0.384938
0.438628
0.541253
0.362106
0.325605
0.323558
0.326471
0.321548
0.363935
0.35723
0.353612
0.327212
0.33053
0.433072
0.445033
0.547557
0.379792
0.402795
0.33364
0.347941
0.342784
0.367721
0.385177
0.316508
0.330196
0.427759
0.402453
0.634701
0.364057
0.677094
0.376804
0.346614
0.353995
0.349974
0.412586
0.956114
0.326459
1.00266
0.366716
0.393066
0.422047
0.310824
0.42117
0.491661
0.320913
0.369998
0.442737
0.401946
0.397932
0.435339
0.3668
0.375379
0.506566
0.788147
0.416627
0.399846
0.421065
0.395871
0.549479
0.63045
0.633723
0.478084
0.523169
0.422299
0.541849
0.688859
0.359251
0.342983
0.351836
0.314657
0.333303
0.684735
0.322097
0.334112
0.384727
0.94976
0.923942
0.681077
0.89987
0.484704
0.801733
0.942893
0.53142
0.841712
0.352745
0.318719
0.326891
0.503955
0.563911
0.334636
0.348961
0.349241
0.394567
0.327661
0.627016
0.346256
0.340465
0.321179
0.440664
0.770603
0.388125
0.379612
0.420442
0.375477
0.353711
0.455083
0.369992
0.351787
0.330578
0.33034
0.318482
0.327459
0.318963
0.315566
0.399989
0.323132
0.332954
0.319059
0.32747
0.439735
0.365949
0.325877
0.315496
0.316527
0.356885
0.319815
0.381207
0.644128
0.403605
0.413165
0.318841
0.316099
0.375701
0.377362
0.365712
0.342907
0.361572
0.315412
0.529499
0.32757
0.348735
0.622139
0.338355
0.329781
0.313872
0.336122
0.340441
0.325365
0.379026
0.478478
0.353245
0.346111
0.319051
0.345726
0.32037
0.320412
0.327957
0.317999
0.350075
0.325811
0.334079
0.348809
0.344114
0.538886
0.338258
0.316626
0.526338
0.331802
0.494977
0.636408
0.335932
0.369751
0.385469
0.317613
0.341317
0.482682
0.351802
0.344243
0.348475
0.373389
0.485542
0.34984
0.466397
0.331819
0.345015
0.415308
0.573619
0.441558
0.612782
0.384764
0.374164
0.402114
0.445591
0.401304
0.342632
0.333375
0.343912
0.353377
0.362349
0.561364
0.403491
0.42494
0.319614
0.406815
0.485394
0.327286
0.365401
0.310273
0.362751
0.369039
0.411329
0.795347
0.5062
0.963037
0.715063
0.365225
0.485111
0.428302
0.836151
0.332235
0.325178
0.329851
0.363513
0.310701
0.381659
0.335689
0.338059
0.331379
0.373096
0.833231
0.744886
0.332731
0.33241
0.359494
0.380162
0.813211
0.58029
0.569212
0.360397
0.519856
0.44897
0.326721
0.328461
0.353326
0.786717
0.381679
0.423899
0.354211
0.430297
0.796669
0.846871
0.361066
0.404583
0.905701
0.345836
0.338132
0.459626
0.334602
0.45312
0.398426
0.372588
0.36638
0.33671
0.337974
0.323364
0.649787
0.409052
0.329172
0.32616
0.36959
0.329539
0.328544
0.325114
0.328205
0.341606
0.594678
0.368749
0.354662
0.390276
0.50803
0.371073
0.37235
0.361108
0.507667
0.42378
0.464024
0.408123
0.881432
0.614898
0.409186
0.718509
0.528123
0.804488
0.325099
0.312448
0.340348
0.319015
0.424689
0.502381
0.324026
0.450824
0.955367
0.571765
0.319321
0.330877
0.33045
0.32644
0.314129
0.322372
0.455472
0.514169
0.394238
0.916989
0.417978
0.47214
0.40463
0.354433
0.325321
0.399461
0.473643
0.381819
0.389184
0.508604
0.486206
0.401149
0.342821
0.348924
0.334689
0.390063
0.429649
0.509383
0.698742
0.372279
0.331282
0.32728
0.359047
0.371287
0.553541
0.319365
0.39436
0.828503
0.494728
0.5486
0.648022
0.461323
0.453513
0.377985
0.380516
0.34522
0.316194
0.324111
0.3592
0.324602
0.324467
0.353832
1.0183
1.07154
0.413736
0.364821
0.392729
0.331962
0.805348
0.868853
0.485247
0.852562
0.552457
0.429324
0.531513
0.528163
0.467728
0.969351
0.469636
0.438634
0.778945
0.80621
0.327332
0.430479
0.313821
0.321427
0.443583
0.327679
0.326161
0.447145
0.397665
0.93968
0.615136
0.39078
0.811793
0.583871
0.43664
0.464981
0.740248
0.809915
0.454083
0.498137
0.517946
0.383917
0.325351
0.318427
0.320333
0.468079
0.350272
0.343965
0.992818
0.691166
0.501752
0.331582
0.418732
0.709081
0.347025
0.388779
0.385752
0.317228
0.386438
0.615856
0.531703
0.523714
0.387894
0.351872
0.334489
0.309476
0.943366
0.440731
0.382776
0.345143
0.429726
0.397676
0.337777
0.574355
0.417152
0.485087
0.329113
0.348741
0.589151
0.351747
0.446118
0.374061
0.402167
0.400934
0.712504
0.675961
0.49728
0.427993
0.468849
0.884763
0.777915
0.485279
0.407683
0.654892
0.792366
0.418769
0.887924
0.557671
0.67277
0.35547
0.55652
0.462892
0.372141
0.45109
0.38137
0.382196
0.562727
0.321428
0.37147
0.415085
0.463601
0.40069
0.388201
0.379392
0.343293
0.565063
0.690672
0.92622
0.428068
0.359697
0.659156
0.573949
0.419743
0.722587
0.321851
0.341283
0.34499
0.605576
0.543481
0.330421
0.320763
0.465753
0.791638
0.643724
0.339997
0.357057
0.414399
0.604105
0.364136
0.514564
0.892367
1.27266
0.915113
0.431291
0.336366
0.395177
0.483831
0.929028
0.494001
0.490756
0.468119
0.535706
0.31418
0.322463
0.322915
0.381182
0.407442
0.57617
0.417136
0.3938
0.423915
0.327183
0.572443
0.771386
0.867625
0.429712
0.535388
0.637632
0.508926
0.755403
0.611539
0.502874
0.596241
0.394486
0.555493
0.601301
0.565181
0.437221
0.74631
0.367868
0.42582
0.40026
0.33593
0.877951
0.389293
0.863539
0.319238
0.382091
0.403429
0.484144
0.402878
0.861438
0.65914
0.422056
0.36459
0.347099
0.499484
0.754734
1.00057
1.01893
0.31682
0.762545
0.353603
0.411567
0.660432
0.423936
0.755259
1.07907
0.317166
0.810363
0.396672
0.398309
0.363316
0.355274
0.351968
0.32039
0.736488
0.365482
0.637476
0.523627
0.732223
0.357228
0.329599
0.36612
0.369107
0.361439
0.902631
0.623149
0.32204
0.730619
0.320986
0.404788
0.473535
0.725912
0.694553
0.404607
0.523564
0.58932
0.557534
0.529744
0.426458
0.436774
0.624382
0.840942
0.336899
0.729376
0.941006
0.415576
0.447579
0.437403
0.411514
0.774822
0.33655
0.325215
0.805619
0.343194
0.700981
0.339469
0.335987
0.340014
0.354871
0.343727
0.344487
0.329721
0.325943
0.334918
0.325723
0.316652
0.338634
0.322875
0.608991
0.933217
0.333234
0.709393
0.354267
0.3386
0.330921
0.320239
0.599696
0.465293
0.579456
0.582523
0.4187
0.885391
0.383103
0.318062
0.3323
0.311191
0.338315
0.304271
0.332356
0.349953
0.358378
0.432712
0.93849
0.358162
0.348106
0.839118
0.807339
0.57809
0.750649
0.942607
0.67267
0.902093
0.667074
0.711612
0.5166
0.669928
0.620002
0.541478
0.902446
0.901034
1.05784
0.665651
0.428434
0.884776
0.94714
0.840103
0.433312
0.806869
0.916532
0.519423
0.641937
0.540315
0.388147
0.557829
0.544763
0.985521
0.94749
1.10085
0.484215
0.42723
1.0173
0.738209
0.94576
0.362767
0.358274
0.783537
0.66615
0.417784
0.335976
0.334858
0.887525
1.18013
0.932021
0.331215
0.344833
0.365489
0.413774
0.351316
0.458152
0.362101
0.716539
0.824091
0.725852
0.731109
0.883496
0.740406
0.805637
0.496216
0.43567
0.380611
0.652667
0.654101
0.441274
0.357919
0.36464
0.535128
0.523333
0.820377
0.319358
0.415191
0.501488
0.45533
0.403119
0.502155
0.410363
0.580054
0.432545
0.839817
0.822429
0.404353
0.316531
0.320339
1.03028
0.975886
1.19965
0.315915
1.09141
0.939447
0.333872
0.959963
0.934259
1.0745
0.313618
0.314514
0.310945
0.314663
0.30804
0.347978
0.356638
0.332776
0.327312
0.994085
0.822728
0.866591
0.764941
0.791026
0.917229
0.316832
0.319592
0.31401
0.332892
0.863007
0.324567
0.367464
0.387278
0.363323
0.359801
0.408105
0.391454
0.383455
0.36422
0.336169
0.646771
0.330699
0.320808
0.365804
0.336414
0.314151
0.322989
0.331963
0.331999
0.644598
0.487134
0.462895
0.38598
0.343709
0.349691
0.348933
0.322957
0.798397
0.347843
0.327366
0.327019
0.486195
0.446705
1.03435
0.983546
0.783723
0.884397
0.343836
0.45255
0.340074
0.36222
0.331376
0.321205
0.314938
0.316946
0.424302
0.614376
0.391261
0.582942
0.379575
0.324907
0.313528
0.333612
0.323045
0.321922
0.491659
0.322195
0.31576
0.358528
0.33328
0.542335
0.355984
0.32526
0.338907
0.34694
0.363974
0.389543
0.866095
0.386075
0.57608
0.431595
0.361271
0.499757
0.609164
0.45914
0.563472
0.830482
0.486802
0.460801
0.575519
0.69544
0.483594
0.418962
0.667802
0.933388
0.441858
0.511902
1.01492
0.444338
0.482116
0.427321
0.522073
0.938611
0.987218
0.734655
1.01014
0.793257
0.520159
0.495972
0.324646
0.360252
0.452582
0.322287
0.441439
0.335486
0.375484
0.45609
0.341348
0.351999
0.353985
0.354236
0.535954
0.484012
0.535291
0.61664
0.342211
0.334668
0.338795
0.325336
0.373273
0.32764
0.344648
0.347054
0.518572
0.427336
0.362784