/*--------------------------------*- C++ -*----------------------------------*\
| =========                 |                                                 |
| \\      /  F ield         | OpenFOAM: The Open Source CFD Toolbox           |
|  \\    /   O peration     | Version:  2506                                  |
|   \\  /    A nd           | Website:  www.openfoam.com                      |
|    \\/     M anipulation  |                                                 |
\*---------------------------------------------------------------------------*/
FoamFile
{
    version     2.0;
    format      ascii;
    arch        "LSB;label=32;scalar=64";
    class       volVectorField;
    location    "0.0563527";
    object      U;
}
// * * * * * * * * * * * * * * * * * * * * * * * * * * * * * * * * * * * * * //

dimensions      [0 1 -1 0 0 0 0];

internalField   nonuniform List<vector> 
3926
(
(10.8098 0.241484 -0.624948)
(9.18784 0.101604 -0.271995)
(8.76898 0.115405 -4.05161)
(4.09331 0.0232265 -4.35471)
(4.29395 0.042373 0.566991)
(2.94856 -0.378548 -6.86389)
(5.68824 0.078799 -11.4554)
(7.52432 -3.85589 -2.6168)
(12.2208 0.149669 -0.348879)
(0.355968 -1.80481 -2.06879)
(12.209 0.687426 -4.22573)
(10.3681 0.339659 0.450994)
(9.22895 0.226025 0.108937)
(10.5854 0.0390494 -0.266358)
(8.63904 0.258311 -0.599564)
(9.30279 0.183971 -0.412158)
(10.9447 -0.124292 -0.735243)
(9.15852 0.363621 -0.885385)
(6.89286 0.356529 -5.18448)
(9.75134 0.0818198 0.384711)
(8.82393 0.330666 -4.22211)
(5.16859 0.713923 -4.85165)
(5.70506 0.308462 -3.81498)
(10.79 0.00841217 -0.332889)
(8.11556 0.251272 -2.51947)
(5.05322 0.287737 -2.4349)
(5.95285 0.147138 -3.09542)
(4.07771 -0.00697041 -3.92983)
(3.80867 -0.0735092 -4.79488)
(10.9196 -0.087216 -0.255684)
(12.1026 -0.0636446 -0.0530367)
(8.12867 0.291167 -3.45686)
(12.1494 -0.0796172 -0.0255035)
(12.2876 -0.0909709 0.149086)
(12.7794 0.0451917 -1.20211)
(12.2311 -0.0769537 0.0100885)
(5.24285 -0.61126 -0.142191)
(8.29343 0.300347 -2.85531)
(8.26956 0.0498403 -0.0536925)
(10.1678 -0.123556 -0.715686)
(5.8274 -0.663128 -5.53147)
(11.4004 3.66049 -5.25657)
(11.7069 -0.128238 -1.64655)
(9.58807 0.346998 -0.877767)
(8.74885 0.0134852 -0.112733)
(8.44831 0.0227709 -0.184866)
(11.2602 0.135919 -2.25097)
(13.3737 0.0590624 -0.844716)
(1.4491 -0.178594 -6.40706)
(7.82038 0.158017 -2.43729)
(7.71601 -0.171557 -3.74485)
(6.31179 1.71511 -2.04762)
(1.33565 0.00219867 -0.124134)
(9.63774 -0.712196 -11.4433)
(7.9137 0.103396 0.0224861)
(11.2267 0.0579594 -2.43886)
(7.56431 0.412642 0.289638)
(1.90794 -0.637661 2.5699)
(8.59292 0.156322 -3.83038)
(1.03427 -0.257673 5.45533)
(9.50955 0.0585781 -1.36145)
(13.5245 0.609607 -2.44472)
(7.06947 -0.732957 -0.0896842)
(6.44915 0.241679 -1.02701)
(12.9771 0.355727 -5.28842)
(13.2717 0.339183 -6.00663)
(13.544 -0.290172 -4.47145)
(13.52 0.0979114 -4.25323)
(9.74039 0.0116454 0.825553)
(13.0804 -0.637149 -6.76712)
(9.71142 -0.0796908 8.09371)
(8.9579 0.320942 -0.0626768)
(9.45816 -0.0943476 0.898062)
(9.6906 0.0608046 -0.157953)
(12.337 0.0894693 -0.585846)
(-0.361418 -0.642944 2.16402)
(11.9997 0.125294 -1.15224)
(3.99342 0.188878 -5.13465)
(6.25395 0.00356428 1.79591)
(8.7308 0.339558 -0.700564)
(3.95109 -0.0829196 0.590931)
(8.03406 0.142425 -2.94381)
(12.9523 -0.0635842 -6.64712)
(2.12062 -0.127934 0.749516)
(9.68854 -0.164442 0.108577)
(9.75926 -0.582105 2.61308)
(9.63666 -0.024706 1.05207)
(9.71372 -0.163799 0.0127516)
(12.8974 -0.764365 -3.56739)
(8.30825 -0.162083 0.594517)
(8.83154 0.219164 -0.849093)
(7.31335 0.233103 -2.7395)
(7.90803 0.102878 -4.5118)
(11.6296 -0.0631232 0.000976986)
(10.4291 -0.00282697 -2.48496)
(10.1425 -0.609412 -3.35896)
(11.1944 0.147153 -1.41739)
(12.8468 0.0697384 -0.957463)
(1.86908 -0.415093 -3.63486)
(12.8649 0.169771 -1.77119)
(13.34 0.79987 -4.00062)
(7.07423 0.27407 1.65735)
(11.163 0.109591 -3.95587)
(7.2618 0.0469242 -2.7652)
(9.69554 0.676285 -6.36879)
(7.77855 0.46486 -6.6543)
(7.89698 0.283146 -3.02673)
(9.42979 0.0632822 2.19045)
(8.27146 0.241436 -2.73122)
(9.16174 0.285141 1.88902)
(8.06583 0.0791741 -4.39735)
(7.89571 0.278775 -2.67289)
(7.38512 0.516659 -0.669895)
(7.57783 0.282616 -2.41586)
(9.17759 0.174309 -0.74683)
(1.28005 -0.0749058 -1.41787)
(4.73214 0.418238 -3.34363)
(9.23764 0.310997 -0.321577)
(6.9847 0.0361489 -8.8321)
(2.54093 0.0583108 -6.9256)
(9.96983 0.250812 -0.666465)
(9.9022 0.244223 -0.616488)
(8.73072 0.417859 -0.866502)
(7.84595 0.217514 -4.18176)
(8.88475 0.373752 -2.26208)
(8.62903 0.219773 -3.32348)
(13.4007 0.489813 -1.97402)
(7.55867 0.586399 1.2267)
(10.9219 0.350149 -6.01796)
(8.60731 -0.00666364 -4.0408)
(9.1833 0.331563 -3.16305)
(9.89999 0.261498 -3.06192)
(10.943 0.132319 -2.48667)
(11.7096 0.154463 -2.13949)
(0.912085 0.389658 -5.95148)
(0.877021 0.00402078 -6.86591)
(1.72375 0.411853 -7.32615)
(7.73718 -0.718614 -8.55477)
(5.07514 0.834827 -8.35769)
(5.01949 0.152149 -2.20063)
(9.87865 0.14488 0.477545)
(8.78751 0.232499 0.408232)
(6.046 -0.0218022 -2.48263)
(5.61496 -0.145505 -3.39853)
(7.99427 0.535465 1.84899)
(3.90334 -0.0948988 -3.85914)
(5.81075 0.255279 -0.636544)
(6.757 -0.10554 -4.97687)
(7.74038 -0.0316274 -2.63052)
(7.06754 0.0824 -2.6845)
(5.82815 0.657004 -2.40736)
(5.8083 -0.15778 -3.17226)
(6.35456 -0.0652877 -2.09359)
(4.99186 -0.329163 -3.04667)
(4.37054 -0.253779 -4.23639)
(5.02283 -0.135702 -5.00461)
(6.87103 0.335409 -2.46621)
(4.06616 -0.650696 -4.93677)
(4.19119 -0.398566 -3.2411)
(4.0197 -0.464132 -3.95907)
(12.5182 0.0843055 -2.71642)
(8.78697 -0.282623 -2.06766)
(7.39855 0.286977 -2.44817)
(2.01307 0.351624 -1.1331)
(2.62096 0.0339693 -5.65977)
(6.67115 0.165952 -0.792461)
(7.81894 0.176115 0.644891)
(9.0738 0.0575491 0.0115267)
(10.9796 0.198218 -1.47848)
(4.85326 0.365064 -4.76095)
(10.5818 -2.92159 -3.60855)
(12.4144 -0.149766 -0.45458)
(9.19109 0.234688 -1.27296)
(8.51796 0.434739 -0.172097)
(10.1923 0.264632 -3.07531)
(12.9139 0.211823 -1.90594)
(7.88406 -0.0797067 -2.44279)
(2.22699 -0.0129077 -3.96353)
(6.21253 0.236837 -4.73597)
(9.20917 0.238563 -2.94936)
(0.4785 -0.190682 -3.58338)
(10.3564 0.193933 -0.546324)
(0.766477 -0.658776 0.946171)
(10.1617 0.230888 0.548813)
(9.44738 0.294787 -0.231508)
(9.91185 0.307349 -3.88315)
(11.7365 0.0949836 -3.26433)
(7.58475 -0.218416 0.662235)
(6.57693 0.167635 -2.8274)
(7.2741 0.253553 -3.0561)
(3.26402 0.362315 -6.3858)
(8.15615 0.205836 -2.91131)
(3.96032 0.476955 -5.26385)
(9.3804 0.296618 -2.32107)
(8.60813 0.111174 -2.20575)
(8.72369 0.444939 -0.242447)
(10.8864 0.219052 -1.66517)
(7.52006 0.269932 0.295732)
(9.40218 0.292987 2.30007)
(5.19601 0.306628 -11.8702)
(6.1194 -0.166473 -0.530338)
(9.39125 1.19765 -9.34833)
(2.70708 -0.68636 2.52072)
(9.57807 0.251452 -2.82862)
(9.05643 0.259859 -2.28376)
(6.44882 0.532469 -4.70575)
(8.16284 0.303244 -0.693551)
(1.23512 0.0611366 -3.23992)
(10.66 -0.333996 -3.07356)
(9.55459 0.221305 -0.516459)
(9.31157 0.193251 -0.294304)
(8.76369 0.328729 -1.84857)
(5.60896 0.186114 -2.38668)
(12.2241 -0.0504711 0.105734)
(8.91067 0.165148 -1.11454)
(3.66519 0.0391856 -1.68486)
(7.85603 0.0685212 1.08491)
(6.87451 -0.0104431 -3.15542)
(7.62255 0.218399 -3.47115)
(6.48501 0.108244 -3.07609)
(10.837 0.122777 -1.39973)
(12.911 0.0318158 -2.69829)
(11.7087 -0.0905314 -1.00522)
(8.92882 -0.155966 0.851462)
(12.686 0.0711013 -0.629378)
(1.42967 0.0972053 -3.05957)
(1.48128 0.103972 -5.76322)
(9.53463 0.112323 -3.84076)
(8.99394 -0.121219 0.402133)
(12.4796 0.205664 -1.45115)
(11.1551 0.358517 -1.21)
(3.68479 -0.310799 1.59536)
(10.6617 -0.349249 0.529067)
(8.49284 -0.0944737 1.47775)
(11.4745 -0.270501 -3.53042)
(5.7012 0.148428 -0.817105)
(12.82 -0.129173 -0.823645)
(4.20659 -0.0172096 -2.9984)
(9.93982 -0.0870851 -0.488972)
(10.6065 0.328534 -3.62593)
(6.73359 0.211748 0.00111968)
(10.9988 0.266018 -2.04615)
(11.7062 -0.130771 -0.0974987)
(2.19375 -0.172711 -1.96763)
(9.45172 0.287139 -0.17818)
(7.0854 0.503293 2.39406)
(1.0745 0.0890764 -6.48116)
(9.95352 0.363881 -3.3523)
(8.4456 0.436269 0.36326)
(8.05872 2.04061 -4.20251)
(4.01971 -0.528835 -8.25232)
(1.51768 0.614958 -5.8332)
(6.44181 0.689083 -0.924828)
(11.8101 0.509223 -4.99301)
(11.7104 -0.252214 -1.67042)
(0.788868 -0.266311 -0.239419)
(7.36417 0.0353502 0.312276)
(11.6221 0.274967 -3.01199)
(10.3374 0.42516 -5.45354)
(6.70597 1.01058 -12.3709)
(7.09077 -0.357935 -9.18042)
(1.63202 -0.249198 -6.05802)
(7.35957 0.15832 -2.23542)
(2.61146 -0.360112 -2.81944)
(2.06747 -0.681272 -4.72745)
(12.7359 0.0657566 -0.50251)
(9.38896 0.202609 0.514893)
(6.06573 0.1834 -1.95629)
(5.78241 -0.15289 -0.880407)
(5.84364 0.0634465 -0.122547)
(2.10547 0.0578773 -5.4987)
(13.2617 -0.0875973 -7.62628)
(10.4511 0.0830576 -1.318)
(13.0364 0.126745 -1.64115)
(9.83189 0.172781 -3.0914)
(8.20577 0.236789 -4.80561)
(9.29232 0.120074 -0.882592)
(10.2313 0.31989 -3.91827)
(8.50527 0.293508 0.22937)
(9.40372 -0.0292589 -1.04412)
(4.24317 -0.0465738 8.25042)
(5.88026 0.216756 -0.260235)
(10.6309 -0.0541378 -0.399079)
(7.39191 -0.227137 0.22409)
(12.5992 -0.192661 0.408729)
(10.0104 -0.245567 1.06347)
(13.1603 -0.172718 -4.00724)
(13.3745 -0.361116 -2.56374)
(5.28402 -0.333662 0.149796)
(10.4111 -0.0615498 -6.03657)
(7.03499 -0.0282976 -4.81877)
(9.19908 -0.130105 -0.317257)
(7.71446 -0.162118 -1.54638)
(13.9776 -0.209225 -2.38062)
(9.37998 -0.185132 0.0205755)
(5.10653 -0.0166905 -2.80412)
(10.0936 -0.0709977 -2.07306)
(9.89542 0.250481 -3.76825)
(10.1213 -0.102428 -3.12919)
(0.952758 0.0708769 -2.83882)
(6.24834 1.62252 -0.935486)
(6.18338 -0.311938 -4.66119)
(7.28899 0.0213933 -0.871402)
(7.61045 0.0647796 -4.19061)
(8.13187 -0.368579 1.84554)
(13.8221 -0.25185 -3.07252)
(11.7321 1.69602 -4.71054)
(13.0412 -0.0458418 -0.64414)
(8.968 -0.0486109 -1.80842)
(7.73983 -0.138 -8.71159)
(13.3861 -0.700318 -5.63774)
(9.15744 -0.679852 5.03694)
(3.33566 -0.114021 -3.73499)
(9.49583 0.219497 1.40994)
(12.7879 -0.333119 -2.31595)
(12.7429 -0.0435941 -0.0810177)
(7.13251 0.0866816 -1.80547)
(10.0393 -0.0127618 -0.676431)
(5.79028 0.0457528 -4.7452)
(13.0419 -0.0276055 -0.505315)
(13.7846 -0.255699 -1.10485)
(9.48232 -0.246026 -1.2155)
(3.05625 -0.477708 -11.9154)
(3.47236 -0.2227 -2.05867)
(4.52624 -0.37721 -4.30176)
(8.57138 0.0396405 -2.9503)
(13.2006 -0.393461 -1.65796)
(4.138 -0.215066 -1.26317)
(9.23872 -0.783117 -0.512936)
(11.3726 -0.0603188 -1.76061)
(4.89536 -0.226791 -2.45663)
(8.0398 -0.115373 -0.981182)
(9.65533 -0.159136 -0.425836)
(9.10228 0.023851 -0.411203)
(9.42337 -0.0578621 0.990358)
(9.2675 0.0256913 -0.217363)
(7.03308 0.369526 -3.65166)
(0.624216 0.330882 -0.7749)
(1.2103 0.464405 -0.381646)
(0.176165 0.403442 -0.505298)
(2.34715 -0.664655 0.704731)
(0.7907 0.357079 -0.465323)
(13.0975 -0.0365849 -0.322703)
(9.23758 -0.180238 -0.658833)
(9.39095 -0.0558685 -2.65748)
(10.1797 0.18663 -0.331255)
(1.47931 -0.0229331 -0.190514)
(2.6499 -0.378193 1.73373)
(1.72467 0.505004 3.55926)
(0.17133 0.0593642 0.560686)
(0.0674289 -0.243003 5.45685)
(0.26796 1.57812 1.00224)
(0.0415935 1.35207 -0.00609292)
(-0.264143 0.308389 0.418581)
(5.99158 0.0670667 0.721115)
(6.69551 0.0108169 0.671306)
(6.42863 0.392859 0.587175)
(3.69018 -0.25809 0.408986)
(12.4305 -0.0183208 0.118458)
(8.97035 -0.266927 0.731426)
(9.2099 -0.33225 -2.65595)
(9.47381 -0.0727599 -0.148301)
(13.5759 -0.408533 -0.582343)
(13.2924 -0.20013 -0.727388)
(13.1373 -0.498957 -1.55785)
(9.22965 0.281793 -5.35923)
(12.6127 0.122106 -2.22431)
(8.56639 -0.0767248 1.60631)
(8.38503 -0.31031 4.34333)
(11.404 0.108135 -0.684188)
(11.2882 -0.118242 -0.372965)
(9.36682 -0.211771 -0.890736)
(3.91883 0.848776 -6.7661)
(8.13001 0.164818 -1.08028)
(13.7883 0.582983 -2.71095)
(9.53132 -0.0635159 -2.98931)
(5.10998 0.100068 -0.553934)
(7.67489 0.0969524 1.25236)
(2.41169 0.212039 -3.93779)
(5.86928 -0.0132145 0.72988)
(9.08806 -0.276396 -1.06311)
(13.2095 -0.135845 -1.6831)
(5.90654 0.240745 -2.63199)
(4.47067 0.689958 -2.40657)
(8.81169 0.58482 2.27536)
(8.90225 0.119834 1.82929)
(11.3829 0.115223 -4.9318)
(12.936 0.240515 -0.046632)
(13.0269 -0.207024 -1.55072)
(12.8976 0.0401409 -0.280654)
(5.55452 0.0925346 -0.682812)
(8.99015 0.192975 2.08132)
(8.75484 -0.14523 -0.620399)
(12.5897 0.125589 -2.95749)
(9.40372 0.193973 3.2086)
(12.852 -0.28816 -1.02684)
(7.97131 0.474119 -4.18718)
(9.21797 0.315334 -0.0410367)
(6.51189 -0.0132505 2.04003)
(9.73937 0.0214186 -0.123452)
(10.5122 0.241363 -0.665292)
(12.0502 -0.0661026 -0.740569)
(7.88157 0.318578 -1.7819)
(9.72418 0.283305 -1.97285)
(6.41578 0.340469 -3.75443)
(5.86013 0.345951 -2.48167)
(8.32857 0.175647 -3.79247)
(9.34231 -0.090034 -0.935483)
(12.773 -0.116422 0.298915)
(9.79537 0.0222081 -0.0451964)
(8.15416 0.491284 -0.100268)
(10.3261 0.267304 -10.3091)
(3.93863 -0.000512147 2.32221)
(4.7201 -0.291241 -2.32535)
(7.61927 -0.00731945 2.36626)
(6.77896 0.093678 0.611717)
(8.77383 0.0911602 -3.13105)
(6.41799 -0.350253 0.463091)
(7.43939 0.0282375 -1.49934)
(9.51978 0.0180339 -0.321828)
(8.57379 -0.320519 0.865045)
(10.1682 -0.0638078 0.387965)
(10.0584 0.361092 -3.92289)
(7.84898 0.312423 -4.48348)
(6.46902 0.132978 0.384949)
(9.12882 -0.17629 1.12799)
(6.70211 -0.433435 -1.60046)
(9.10734 -0.265488 0.571566)
(9.82637 -0.297372 0.173713)
(9.83131 -0.228699 0.0346138)
(6.06701 0.341371 -2.1257)
(9.8393 0.357842 0.229677)
(13.5649 0.1689 -1.43896)
(12.2514 0.0761656 -2.10106)
(9.00811 0.167103 -0.561968)
(8.69286 0.165342 -0.93644)
(5.85749 0.284641 -0.116915)
(9.57004 -0.125311 0.677127)
(6.27002 -0.388715 0.341426)
(8.87755 0.15685 -1.40976)
(8.39425 0.195616 -2.47892)
(10.6347 0.840454 -12.4446)
(1.27957 -0.49751 -4.72347)
(10.5496 0.125329 -0.581448)
(10.2673 -0.460431 -6.16117)
(11.1487 0.711835 -13.9338)
(4.72881 0.28819 -4.85676)
(10.6234 -0.160129 0.442761)
(9.09554 0.339537 1.54103)
(9.38353 0.170959 -0.217922)
(3.11039 0.294545 0.0104315)
(11.2021 0.265549 -3.14399)
(9.83481 -0.310743 0.0809565)
(3.88023 0.635713 -8.05521)
(10.3892 -0.0758476 -0.368884)
(13.5105 -0.244505 -3.51609)
(13.1011 -0.272266 -3.79556)
(12.6623 -0.0197949 0.320676)
(12.6851 -0.0871649 0.0952152)
(12.123 -0.0849241 0.0740856)
(10.0459 0.224608 0.272646)
(4.77478 -0.0995074 -3.45296)
(9.85377 0.268424 0.125474)
(8.72277 -0.278882 -1.81539)
(9.57778 -0.0244711 3.0306)
(8.21436 0.118718 -0.523799)
(10.7651 -0.330935 -2.3365)
(11.5529 -0.030916 -10.1033)
(11.6066 -0.197514 -2.87855)
(11.3539 -0.172186 -1.02457)
(11.009 -0.220324 -0.383011)
(10.8902 -0.186248 -1.33994)
(9.75422 -0.169035 -0.553722)
(9.78804 -0.172968 -0.669814)
(12.1914 -0.435691 -3.77318)
(10.8649 -0.224745 -4.886)
(11.5831 -0.148324 -2.5725)
(9.94542 -0.190515 -5.31444)
(9.64748 0.417918 -1.03967)
(7.48652 -0.650678 4.55024)
(6.7065 0.184054 3.98022)
(13.2752 0.164061 -0.737508)
(9.02179 0.262071 0.202362)
(7.02835 0.670833 0.597509)
(9.59031 0.265498 -0.228738)
(12.2825 0.298479 -0.89167)
(7.15344 -0.893146 6.52262)
(5.12695 0.734878 -4.05726)
(10.3785 0.0462938 -4.32082)
(10.7959 -0.0455515 -11.5436)
(6.35184 0.129041 -1.54215)
(6.87043 0.132876 -4.95592)
(12.8431 0.174479 -4.49391)
(12.6935 0.76844 -7.97298)
(13.1936 -0.172889 -0.485114)
(13.073 -0.0665627 0.194796)
(12.9409 -0.105185 0.160333)
(13.1352 0.0902201 -1.22706)
(12.0007 -0.0388256 -4.94957)
(13.2433 -0.560763 -5.20441)
(12.0473 -0.213618 -3.69558)
(13.2985 -0.279735 -3.31113)
(8.81111 0.479869 -4.02645)
(8.03692 -0.0752943 -4.5312)
(8.15983 -0.0327065 -5.38052)
(6.52138 -0.00458854 1.07697)
(8.03267 0.111887 -1.7613)
(12.5732 0.0495056 -3.3942)
(9.00834 -0.247144 -0.955316)
(12.3016 0.152175 -0.0939574)
(4.26281 -0.12715 -1.74013)
(8.46057 -0.506354 -1.26009)
(4.74368 -0.868895 0.302512)
(5.64703 -0.0598688 -2.13186)
(5.0168 0.132626 -4.55654)
(3.92289 0.210372 -5.56716)
(5.80064 0.361821 -8.86424)
(4.97719 -0.380759 -4.57018)
(11.1103 0.762299 -8.88574)
(9.40909 0.125648 0.48617)
(6.2207 -0.658598 0.728402)
(2.80907 0.24578 -7.9627)
(0.220036 0.297226 -0.0774059)
(5.84594 -0.601176 -6.42786)
(1.56359 0.328268 -7.20554)
(5.40809 0.506553 -0.420807)
(6.87366 -0.126938 -4.00567)
(1.61395 -0.240793 -0.960755)
(1.47966 -0.0167698 -2.83769)
(7.30241 -0.0878903 -4.32192)
(9.09393 -0.248581 -1.20517)
(8.67608 0.104031 -1.1124)
(9.20515 0.134412 -2.86912)
(9.42327 -0.0154891 -0.235176)
(13.2831 -0.167358 -2.00343)
(13.3536 -0.359703 -2.07076)
(13.3954 -0.605991 -5.78979)
(11.6329 -0.216831 -3.6011)
(11.8285 -0.0663575 -0.333767)
(11.7649 -0.106182 -0.679659)
(11.8894 -0.113949 -0.378215)
(13.0622 -0.0914773 -0.556268)
(7.25182 0.193873 -0.82475)
(9.18466 0.354693 -1.51761)
(7.32915 -0.05426 -0.213615)
(12.8591 0.088173 -1.11513)
(12.6152 -0.388584 -0.315658)
(12.4057 -0.041675 -0.400396)
(12.5232 -0.0670945 -0.226724)
(12.3655 -0.0303382 -0.233338)
(12.3968 -0.0379951 -0.106646)
(12.5463 -0.15263 0.568113)
(12.2258 0.273194 -6.21829)
(9.0567 0.131881 0.766973)
(8.88299 -0.286573 0.934468)
(1.94545 -0.0936131 2.4696)
(9.16258 0.398781 -5.04952)
(6.90413 0.408014 -5.8062)
(5.40502 0.0689109 -5.65625)
(7.37707 0.196313 -3.39828)
(12.7402 0.0818173 -1.9057)
(4.54599 0.175686 -1.67822)
(10.4431 0.00191676 -0.974797)
(10.2302 0.0585283 -1.21643)
(11.3291 -0.0503635 -1.84941)
(11.5725 -0.114221 -2.09513)
(13.8307 0.0974856 -4.10018)
(13.7596 0.0496636 -5.4205)
(13.9394 0.200138 -3.23347)
(8.16232 -0.864139 -1.14047)
(8.14625 0.0555924 -1.94137)
(8.99822 -0.0220018 -2.03639)
(9.69302 0.0858986 -1.71862)
(9.89994 0.0832997 -1.52358)
(9.73657 0.0475755 -1.41079)
(13.7196 -0.0669139 -0.693743)
(11.2294 -0.152386 -4.35858)
(10.9513 -0.141203 -3.7494)
(12.6753 -0.796099 -2.65571)
(10.1476 -0.166492 -1.22899)
(1.89144 -0.389936 -4.21138)
(11.8284 -0.260115 -2.56288)
(8.66878 -0.249696 -4.54127)
(8.61758 -0.244449 -1.90306)
(5.62792 0.151837 -2.63986)
(4.05678 -0.0125749 -1.94378)
(4.35343 0.0120365 -8.05081)
(8.83273 -0.205359 -1.90564)
(8.88289 -0.212683 -1.45205)
(8.83523 -0.165763 -1.71994)
(2.98766 0.292062 -3.45228)
(12.3829 0.051154 -0.44993)
(13.491 0.268919 -3.19692)
(7.43281 0.39076 0.112983)
(4.39006 0.896755 -8.2986)
(8.67032 0.0899517 0.102674)
(11.2254 0.462848 -5.31656)
(6.77064 0.575662 -8.79083)
(10.2502 0.367501 -6.9542)
(2.82826 -0.0797951 -3.3463)
(7.36999 0.326681 -4.91343)
(7.68786 0.130167 1.95666)
(7.49984 -0.163641 2.47679)
(7.82483 0.124344 1.48079)
(9.2469 0.20827 -0.353072)
(9.61145 0.0937052 -0.0937434)
(7.46502 0.128445 1.84323)
(6.50694 0.202783 -5.94791)
(5.41765 -0.0648728 -4.13161)
(3.78374 -0.400781 -6.27295)
(3.32617 -0.399982 -5.14467)
(6.4429 -0.39271 -3.97713)
(3.82544 -0.338815 -4.10008)
(7.53713 0.056758 0.220435)
(8.4653 0.219153 -0.18246)
(8.16626 0.202174 -0.172984)
(9.14712 -0.216929 0.228962)
(9.90204 -0.255106 0.269244)
(9.08597 -0.166862 0.273918)
(9.39256 0.238383 -0.763404)
(9.53527 0.269288 -1.02093)
(9.47739 0.206245 -5.062)
(10.4249 0.106168 -4.20338)
(11.6866 0.124392 -2.51406)
(13.0478 -0.423987 -1.85706)
(13.1032 -0.101553 -1.00627)
(13.3569 -0.167465 -0.94674)
(9.33572 -0.0793234 -2.40723)
(10.0496 0.0188321 -3.06269)
(10.1212 0.203578 -1.19796)
(8.61964 -0.211528 -1.58893)
(8.45456 -0.113464 -2.81843)
(9.34653 -0.029881 -1.37145)
(9.95093 -0.0645663 -1.91228)
(4.38273 -0.126181 -4.2325)
(9.69978 -0.114307 -1.50792)
(8.62146 -0.19549 -1.29904)
(13.3944 -0.0219743 -0.0879799)
(13.498 0.0473426 -0.356788)
(13.5946 -0.142269 -3.33316)
(12.9859 0.0190392 -2.5271)
(9.83829 0.162965 0.222218)
(12.0764 0.101835 -1.52178)
(5.43603 0.391137 -2.00238)
(10.1094 -0.14403 0.786999)
(7.44686 0.0896642 -2.70886)
(8.39652 0.206982 -3.36883)
(5.89864 0.324752 -2.78228)
(7.73628 0.397921 -3.97434)
(6.62239 0.0683041 -3.8614)
(8.09659 0.455318 -0.591365)
(8.39564 0.0331415 -3.99329)
(7.51604 0.151908 -3.38268)
(5.99773 0.429028 -0.220298)
(9.10412 0.454962 -1.58618)
(4.57546 -0.143213 -1.64599)
(11.8168 0.195522 -0.629026)
(11.7648 0.204177 -0.922534)
(12.0694 0.168351 -0.665798)
(3.84352 -0.129088 -2.3384)
(3.35203 0.141697 -2.75178)
(10.4129 -0.179008 1.21089)
(10.0926 -0.0732841 1.94018)
(10.8155 -0.237886 1.15668)
(4.90123 -0.143479 -1.04866)
(9.6141 0.264011 -4.16145)
(9.0549 0.20742 -3.52305)
(10.7426 1.38558 -8.50508)
(8.03726 0.317739 -3.84264)
(10.4951 -0.00848077 2.00822)
(6.24193 -0.26382 -2.00592)
(9.08601 -0.244441 -0.043573)
(9.15467 0.0251317 0.307679)
(6.46216 -0.241228 -1.43652)
(10.8634 0.241889 -2.77806)
(11.9371 0.131343 -2.73978)
(9.30356 0.299847 -5.25831)
(5.96845 0.18815 0.750676)
(6.81233 0.280017 -0.0614061)
(5.78696 -0.0118012 2.80827)
(7.70116 0.0633331 0.316757)
(7.14405 0.110948 0.412112)
(5.42819 0.179974 0.488842)
(2.24109 0.67724 3.31292)
(4.38307 -0.0167784 0.388543)
(8.36816 0.13519 -2.13832)
(8.26218 0.204266 -0.280717)
(8.65453 0.0900645 -0.768821)
(9.44786 -0.223481 -0.0392979)
(9.49788 0.0568415 0.0400137)
(6.35066 -0.267895 3.11105)
(6.96653 0.267072 -3.29371)
(7.42088 0.9292 -6.39834)
(5.30031 0.398242 -2.35673)
(6.55714 0.100344 -3.14664)
(9.06208 0.272901 -0.770833)
(9.00667 0.275346 -0.59098)
(9.01812 0.236173 -0.57666)
(12.0921 -0.0756523 -0.0662353)
(10.9353 0.375649 -1.31512)
(10.551 0.302515 -1.45278)
(10.8069 0.231045 -1.6001)
(10.681 0.262864 -0.86285)
(8.71417 0.326535 -1.7147)
(10.0117 0.345617 -1.6725)
(8.98416 -0.0269868 -1.45588)
(10.6539 -0.143676 -1.47481)
(10.799 0.142851 -3.67933)
(10.4244 -0.589604 -5.36472)
(11.3932 -0.0916175 -0.309393)
(9.63723 0.118228 -0.959309)
(9.76744 0.137247 -1.43783)
(9.44071 0.194238 -1.11882)
(9.60694 0.0739283 -1.76287)
(9.23655 0.0236141 -0.3978)
(7.61588 0.289814 -1.30403)
(8.00202 0.469281 -0.300753)
(4.79975 0.340015 -0.63992)
(4.13369 0.521154 -0.945278)
(4.34358 0.552846 -1.59367)
(7.32959 0.241715 0.184573)
(7.23796 0.454157 -0.875624)
(8.06346 0.300102 -0.405713)
(7.51575 0.549598 0.312656)
(8.28957 0.40403 -0.399711)
(8.42982 0.420114 -0.449675)
(9.29292 0.273807 -0.237539)
(9.1738 0.16359 -0.421487)
(9.46534 0.11605 -0.129699)
(6.38811 0.224927 -1.97446)
(9.58837 -0.0627798 -0.562602)
(11.4247 0.115564 -1.52498)
(9.53176 0.0844493 3.31089)
(7.78292 0.433653 0.992945)
(9.91625 0.0930139 -0.850501)
(6.73724 -0.089713 -3.32233)
(11.1867 0.277358 -1.6258)
(10.124 0.251028 0.572374)
(9.31719 0.124949 1.06606)
(9.23143 0.370166 -1.199)
(9.43816 0.274088 1.03504)
(9.63792 0.119117 0.915828)
(2.43201 0.373346 -0.218082)
(9.79177 0.0943814 1.1934)
(8.93615 0.0958637 1.20862)
(8.92177 0.162127 1.69235)
(9.80459 0.441963 -0.681929)
(9.64887 0.41931 -0.774723)
(9.7096 0.43071 -0.954826)
(9.56573 -0.0452071 -0.102459)
(9.21803 -0.0217414 0.0393606)
(9.25828 0.0627077 -0.10458)
(9.25363 0.0836517 -0.186283)
(9.33496 0.094249 -0.146001)
(12.1288 0.282409 -1.0962)
(12.1917 0.203831 -0.608093)
(5.6515 0.149471 0.294803)
(5.3973 0.259334 1.66525)
(11.8103 -0.0805561 -0.111067)
(11.5855 0.20221 -1.97659)
(8.73703 0.105946 -0.35033)
(11.6078 0.219262 -1.89725)
(11.3536 0.227883 -0.850536)
(8.05673 0.259667 -2.34988)
(4.23993 0.284554 -4.86781)
(7.99355 0.23695 -3.17385)
(4.6952 0.468017 -6.41889)
(10.8871 0.417787 -5.56352)
(7.3327 0.382038 -2.82199)
(5.10194 -0.78183 0.197153)
(9.08034 0.0706989 0.468735)
(8.57498 0.345133 0.0371458)
(5.88647 -0.20825 0.315407)
(11.1864 -0.0176474 -0.298859)
(8.60884 0.0645062 -0.224655)
(13.8049 -0.139512 -1.63141)
(2.2673 -0.328085 -0.617401)
(8.87511 0.299284 -0.754034)
(8.64924 0.168619 -0.427943)
(5.77431 0.285192 0.88255)
(9.90064 0.264579 -0.262304)
(13.053 0.0141599 -5.43454)
(6.66188 -0.277743 -3.12783)
(6.25343 -0.198606 -1.40678)
(9.32064 0.27472 0.182163)
(8.84751 0.456567 -0.50498)
(8.59402 0.300981 0.696657)
(9.19276 0.294399 -1.70583)
(10.9247 0.12398 -0.410786)
(9.82421 0.316227 -0.875797)
(10.0424 0.379026 -1.87049)
(9.4779 0.290838 -0.60991)
(9.40101 0.229188 -0.894844)
(12.4977 -0.166986 -4.47003)
(12.8789 -0.0577934 -0.781768)
(11.1501 0.234503 -1.59719)
(12.6949 0.121508 -0.385551)
(9.17841 -0.0773396 -0.446702)
(7.98347 -0.0511308 -1.71584)
(7.02959 0.130332 -3.21427)
(11.3533 -0.0518986 -0.152203)
(12.053 0.0954658 -0.826366)
(8.77092 0.345439 0.65789)
(10.6566 0.207468 -1.66385)
(8.58346 0.331853 -3.84467)
(2.47935 0.176269 -12.9584)
(5.93992 0.137595 -0.304079)
(12.9148 -0.0669175 -1.71219)
(11.1334 0.0452498 -1.00594)
(6.30063 0.416347 -1.19288)
(9.73543 0.386239 -1.19688)
(13.1296 -0.131337 -0.252566)
(10.2449 0.426017 -2.17708)
(9.74736 -0.0133104 -0.664589)
(9.72168 0.274753 -4.06796)
(9.56439 0.258965 -1.21533)
(9.20913 0.256233 0.265436)
(7.96329 -0.0758923 -0.0799443)
(9.69636 0.111865 2.25913)
(7.85089 0.028011 0.984069)
(3.78146 0.21837 -4.39533)
(3.77704 0.55671 -1.76011)
(12.4597 0.991951 -8.08772)
(9.92818 -0.2607 0.181383)
(7.03266 0.156214 3.00638)
(8.36192 0.024484 -2.23518)
(12.1798 -0.0467315 -0.538872)
(11.6124 -3.06269 -5.4811)
(13.4545 0.223584 -2.57672)
(7.23993 -0.470503 -0.112997)
(9.24345 0.14667 -0.351879)
(9.40681 0.139041 -0.237521)
(7.11418 -0.247477 0.0987317)
(0.475099 -0.375561 -0.652891)
(2.52877 0.0903718 -1.81139)
(8.45457 -0.0314379 -3.48842)
(9.33291 0.112347 -0.285204)
(11.2855 0.000568752 -1.18761)
(9.29183 0.0980126 -0.333015)
(5.30046 0.659844 -12.8049)
(8.13931 0.316078 -1.72966)
(9.67001 0.121181 -0.148109)
(12.7389 0.192956 -0.76025)
(9.01078 0.433474 -2.83434)
(9.99066 0.130389 -1.5813)
(9.79201 0.14837 -0.0262365)
(13.038 -0.224211 -3.73198)
(10.6981 -0.0921907 -0.414576)
(12.7418 0.13507 -1.91274)
(13.4626 0.0358309 -1.8935)
(10.9107 0.0629963 -1.44239)
(13.5731 -0.221711 -5.54107)
(12.9376 -0.0934159 -0.0995392)
(7.82242 0.363583 0.361502)
(9.29306 -0.678129 -9.13878)
(4.9972 0.546125 -5.70316)
(8.02737 0.336042 -1.47412)
(1.74043 -0.423694 -3.53654)
(0.997302 -0.280325 -4.82254)
(8.78321 0.107389 -1.62013)
(1.72589 0.881533 -7.61679)
(8.7259 0.344625 -0.840207)
(9.43955 0.163445 -1.22629)
(10.2275 0.176243 -2.14688)
(6.28086 0.543926 -4.4838)
(6.76945 -0.112364 -0.359382)
(7.41168 0.0804198 1.98559)
(8.35977 0.259495 -0.177607)
(10.7764 0.933953 -2.12105)
(2.37434 0.620257 -7.28403)
(0.913061 -0.255863 -3.40569)
(4.77697 0.204246 -2.62266)
(1.13178 0.519381 -3.62782)
(11.3116 0.107153 -4.11924)
(8.25963 0.160128 -1.03721)
(9.43873 0.104626 -3.97203)
(9.27252 0.0858206 -2.73715)
(7.95602 0.207931 -2.07715)
(13.9612 0.0865578 -2.95297)
(6.40097 -0.144566 -4.86876)
(2.35175 -0.0471316 -3.88301)
(8.85452 0.123179 1.53146)
(8.32906 0.00178329 -0.327641)
(12.427 -0.363133 -3.61805)
(12.6708 0.19234 -1.12076)
(6.76647 -0.0649339 -3.87313)
(11.5162 0.118487 0.137119)
(6.24944 -0.377146 -0.838319)
(9.50431 0.297085 -3.7306)
(10.2514 -0.0559153 -0.28801)
(9.86552 0.160795 -0.0803563)
(9.53515 0.190275 -0.419789)
(11.4102 0.124845 -1.53121)
(9.84947 0.223279 -0.1668)
(13.5473 0.326786 -1.9679)
(9.24112 -0.0835033 0.305542)
(9.34013 -0.0167881 8.48946)
(7.72882 0.126957 -1.4682)
(9.30323 0.0225996 -0.562429)
(12.786 0.107284 -1.97726)
(6.69852 1.22479 3.84941)
(0.745124 0.246714 -5.10358)
(8.80195 0.0760793 -5.14321)
(5.6602 -0.133728 -0.0002148)
(13.189 -0.0882095 0.267287)
(10.2275 -0.21344 -1.34236)
(11.431 -0.23048 -1.09689)
(9.95099 0.159773 -2.04073)
(9.61078 -0.966354 -3.08148)
(11.9804 -0.137757 -0.120901)
(9.36319 -0.166488 -3.38302)
(4.67114 5.32172 0.364346)
(9.27777 -0.108972 -0.0661276)
(9.83278 0.0666079 -0.176088)
(9.53725 -0.14442 0.618109)
(8.08781 -0.283092 -3.41293)
(8.52742 -0.103401 -0.0878189)
(3.26832 -0.159361 1.04684)
(9.67752 -0.333114 7.59161)
(10.8437 -0.147784 -4.53377)
(10.4434 -0.347636 0.298109)
(8.65684 0.0100169 1.15509)
(12.1136 -0.11154 -0.563933)
(3.67763 0.0801739 -3.05522)
(9.68708 -0.133532 -0.911461)
(8.64583 -0.0829645 -1.59326)
(9.89237 -0.0475533 -7.35265)
(3.49195 0.14782 -1.45316)
(4.24734 -0.206478 -5.21658)
(11.7701 -0.440849 -4.19264)
(11.5707 0.116678 -4.31689)
(7.29677 -0.155538 -3.53328)
(0.184695 4.52282 -2.54059)
(14.0186 -0.0313184 -3.20258)
(11.0462 -0.0787058 -1.16218)
(12.1544 -0.150345 -1.29767)
(11.1911 0.162271 -4.77023)
(9.4562 0.00885406 -1.05214)
(5.47574 -0.801813 -0.165922)
(11.3706 -1.11099 -7.81462)
(9.7935 -0.213078 0.0465698)
(9.20116 -0.278894 -0.100981)
(9.53545 -0.113238 0.46506)
(8.9213 -0.0242936 -0.182398)
(8.3534 -0.00344123 0.197467)
(9.87346 -0.313293 0.234719)
(7.26802 0.103375 -1.51275)
(8.49574 -0.0163802 2.23028)
(13.3305 0.433344 -2.49962)
(1.6597 0.418419 -9.46931)
(8.22724 0.367503 6.17467)
(12.2968 -0.0109179 -4.06032)
(9.07395 -0.376519 -1.3334)
(7.40517 0.035623 -3.73085)
(4.39258 -0.812389 -8.12384)
(5.07728 -0.152608 -6.12684)
(2.40075 -1.05621 -7.58742)
(9.3728 -1.05088 4.36307)
(10.8833 -0.183218 2.56205)
(8.91178 0.152567 0.980584)
(13.5553 0.157367 -1.92955)
(13.6861 0.0361344 -3.29436)
(12.9892 -0.0792409 -2.46549)
(10.478 -0.0902716 -3.72927)
(6.81065 -0.174816 -0.620524)
(5.32721 -0.0508252 -2.75119)
(10.8879 -0.413355 -3.57728)
(14.0333 -0.182766 -2.91518)
(7.95354 -0.133508 1.26305)
(1.37347 -0.132204 -6.29678)
(13.2301 -0.178575 -2.94401)
(12.702 -0.211317 -3.10141)
(6.49224 -0.219936 -3.88785)
(8.84151 -0.151531 -1.10471)
(13.1162 0.0237393 -0.425401)
(11.2705 0.140828 -0.599408)
(10.3623 -0.199557 1.48575)
(13.3999 -0.262855 -0.155128)
(12.969 -0.0120676 -0.223929)
(7.76139 -0.0931754 -2.29774)
(12.0107 -0.156203 -1.57476)
(7.89875 -0.0616102 -1.5455)
(12.2198 -0.305424 -2.56257)
(12.3511 -0.0273344 0.499764)
(10.7255 -0.433183 -5.80367)
(11.4787 -0.116426 -1.67857)
(9.64144 0.0624572 -0.189291)
(8.82857 0.103615 -1.32734)
(10.4499 -0.0906764 -0.381547)
(10.814 -0.745864 -7.56419)
(6.66476 -0.178238 -2.76553)
(12.4726 -0.520569 -2.23374)
(7.70672 0.0640369 -0.122785)
(3.05489 0.170594 8.22099)
(5.83816 -0.00214956 7.74548)
(7.8438 -0.568858 -4.87238)
(11.023 -0.174052 -1.51385)
(10.4148 -0.226475 -1.77056)
(12.9848 -0.118411 0.22433)
(11.0164 0.287556 -5.18715)
(10.0061 -0.0989981 0.0521124)
(9.82005 -0.163721 -0.798779)
(8.28814 -0.214174 -9.17572)
(9.58466 0.00657759 0.715181)
(10.9133 0.147625 -3.41308)
(12.2599 0.18239 -2.16986)
(10.2439 0.392535 -0.396094)
(11.5728 0.272537 -0.947944)
(11.3496 -1.63369 -3.69462)
(12.5044 0.102888 -1.87021)
(11.1635 0.218054 -2.16294)
(11.3533 0.224562 -1.37748)
(12.3054 0.121402 -3.90274)
(12.7003 -0.0798438 -0.450423)
(12.3835 -0.159838 0.623455)
(12.943 -0.0398287 0.256787)
(12.9593 -0.181427 -0.0224182)