/*--------------------------------*- C++ -*----------------------------------*\
| =========                 |                                                 |
| \\      /  F ield         | OpenFOAM: The Open Source CFD Toolbox           |
|  \\    /   O peration     | Version:  2506                                  |
|   \\  /    A nd           | Website:  www.openfoam.com                      |
|    \\/     M anipulation  |                                                 |
\*---------------------------------------------------------------------------*/
FoamFile
{
    version     2.0;
    format      ascii;
    arch        "LSB;label=32;scalar=64";
    class       volScalarField;
    location    "0.0882685";
    object      k;
}
// * * * * * * * * * * * * * * * * * * * * * * * * * * * * * * * * * * * * * //

dimensions      [0 2 -2 0 0 0 0];

internalField   nonuniform List<scalar> 
47425
(
0.274613
0.306274
0.293004
0.299849
0.440552
0.295204
0.398987
0.302231
0.366887
1.521
0.311668
0.322326
0.34245
0.293597
0.285624
0.313439
0.288852
0.311458
1.04891
0.497533
0.297669
0.28587
0.298525
0.293184
0.2923
0.274159
0.277253
0.779241
0.275178
0.279709
0.289733
0.315842
0.356124
0.27902
0.270246
0.290063
0.282555
0.363339
0.285604
0.294976
0.344944
0.810744
1.08982
0.3784
1.68092
0.321128
0.312048
0.350646
0.283478
0.275618
0.736252
0.58122
0.274042
0.883995
0.349662
0.34972
0.277429
0.277261
0.376132
0.287688
0.834886
0.824363
0.918646
0.299183
0.364462
0.278979
0.341096
0.343359
0.864617
0.291701
0.286158
0.271007
0.273641
0.291816
0.964395
0.368709
0.977942
0.289205
0.829973
0.496897
0.957269
0.293322
0.286704
0.348596
0.346463
0.298306
0.271077
0.267953
0.491823
0.550115
0.286139
0.319846
0.276846
0.363326
0.374597
0.356401
0.275889
0.278627
0.294367
0.346473
0.334355
0.39937
0.288566
0.4152
0.281753
0.34776
0.296595
0.304926
0.472204
0.307034
1.39895
0.318375
0.403004
0.341149
0.304456
0.766318
0.300052
0.592106
0.318461
0.310445
0.306066
0.362698
0.34289
0.323184
0.336492
0.367688
0.300451
0.364887
0.341072
0.277032
0.285348
0.30575
0.464145
0.329218
0.620758
0.321236
0.286964
0.373307
0.292233
0.288916
0.354005
0.333846
0.312769
0.434006
0.309341
0.366223
0.408316
0.339852
0.344899
0.361576
0.438237
0.751726
0.360297
0.75584
0.304543
0.300592
0.313226
0.8758
0.327459
0.305391
0.31137
0.274839
0.269151
0.288644
0.726848
0.791869
0.337739
0.957459
0.321399
0.8331
1.1505
0.327613
0.353841
0.29273
0.323823
0.350013
0.797722
0.273805
0.275846
0.277009
0.800622
0.269771
0.273313
0.274633
0.275893
0.336708
0.291555
0.384859
0.336184
0.278763
0.357974
0.280299
0.382594
0.365297
0.276006
0.292927
0.360532
0.300202
0.305856
0.271747
0.312204
0.359698
0.421733
0.294705
0.308021
0.368145
0.272668
0.290327
0.346541
0.361897
0.276739
0.285048
0.352099
0.299334
0.28411
0.280434
0.290551
0.571634
0.310656
0.352938
0.498048
0.276123
0.600746
0.283672
0.387887
0.47935
0.276878
0.297417
0.324437
0.358567
0.290674
0.293474
0.320162
0.36937
0.356534
0.304355
0.537992
0.310237
0.501135
0.354494
0.323503
0.27131
0.27502
0.283473
0.280249
0.362565
0.287529
0.35755
0.274524
0.285719
0.277638
0.470894
0.283741
0.365695
0.296126
0.276155
0.28912
0.352316
0.29023
0.357613
0.368919
0.352129
0.299651
0.350418
0.350579
0.335238
0.277162
0.348533
0.278216
0.312409
0.304525
0.490021
0.540372
0.279995
0.47956
0.363304
0.481511
0.415208
0.525506
0.49972
0.826275
0.271466
0.894056
0.348297
0.291889
0.285142
0.337511
0.306088
0.350747
0.320164
0.726411
0.293774
0.371308
0.278275
0.289137
0.30467
0.296229
0.281903
0.308662
0.333749
0.310027
0.27192
0.304561
0.282495
0.854604
0.784986
0.735843
0.275892
0.274435
0.282288
0.298707
0.746071
0.302246
0.312581
0.555684
0.317099
0.331617
0.360117
0.299344
0.63004
0.521534
0.293087
0.298637
0.271173
0.313836
0.27599
0.299443
0.274193
0.275262
0.28124
0.285752
0.985595
0.299625
0.283851
0.383803
0.276363
0.905074
0.310683
0.272366
0.281059
0.289904
0.2898
0.271931
0.288323
0.2694
0.280152
0.279119
0.284509
0.287195
0.313482
0.292544
0.278582
0.301273
0.291998
0.295634
0.312665
0.301265
0.287049
0.298077
0.360264
0.322503
0.310491
0.29688
0.299819
0.280327
0.297833
0.352496
0.358444
0.31522
0.288342
0.344064
1.08039
0.285023
0.291101
0.385664
0.289535
0.460137
0.355746
0.364436
0.283299
0.357607
0.289808
0.276067
0.355244
0.326121
0.364513
0.29763
0.288107
0.349718
0.296783
0.2933
0.294332
0.303996
0.283389
0.283287
0.291477
0.316646
0.295044
0.368712
0.273413
0.597772
0.274523
1.02074
0.305846
0.344537
0.33188
0.276388
0.334275
0.275678
0.310473
0.291789
0.529048
0.789618
0.2737
0.309043
0.291238
0.291254
0.298859
0.286861
0.287721
0.342705
0.303169
0.279681
0.294028
0.299653
0.27685
0.419254
0.290028
0.293191
0.458582
0.37799
0.28488
0.577438
0.39809
0.345617
0.389667
0.676246
0.276425
0.289891
0.290732
0.289876
0.60528
0.305621
0.272837
0.278112
0.294978
0.29543
0.300646
0.281431
0.673877
0.586151
0.470185
0.356379
0.36634
0.455206
0.275777
0.2896
0.330749
0.288928
0.355172
0.363124
0.377802
0.289272
0.369613
0.292866
0.292768
0.308808
0.293763
0.292699
0.288707
0.348575
0.357669
0.367378
0.31089
0.306137
0.321287
0.289977
0.816542
0.360541
0.367689
0.344928
0.323146
0.695082
0.304517
0.274705
0.307221
0.350141
0.326979
0.305075
0.319555
0.28108
0.299831
0.275839
0.303298
0.40978
0.272303
0.319313
0.316722
0.330131
0.274763
0.275593
0.276934
0.284347
0.285201
0.304562
0.283435
0.277477
0.284323
0.29927
0.30011
0.314211
0.302629
0.276218
0.302595
0.270198
0.27556
0.28531
0.309521
0.309973
0.308651
0.363305
0.375393
0.706139
0.290936
0.284701
0.323998
0.365735
0.42487
0.426484
0.314385
0.282476
0.320217
0.407496
0.316076
0.4328
0.362381
1.44265
0.315447
0.317534
0.279896
0.425273
0.277284
0.28569
0.290347
0.370267
0.275975
0.270793
0.998803
0.279823
0.333138
0.275908
0.406814
0.269549
0.279071
0.389234
0.377512
0.29204
0.273999
0.26035
0.274381
0.291855
0.274249
0.274054
0.271912
0.349568
0.423295
0.292891
0.321477
0.291878
0.276239
0.495546
0.287032
0.324773
0.179548
0.291199
0.276735
0.238144
0.720659
0.296302
0.190097
0.210101
0.277164
0.346964
0.272222
0.280976
0.361944
0.314489
0.940509
0.287945
0.318431
0.274449
0.429898
0.34481
0.369484
0.297777
0.74575
1.927
0.286774
0.305938
0.327121
0.295595
0.346917
0.358192
0.317848
0.311283
0.378946
0.280746
0.359114
0.44197
0.314309
0.285251
0.446732
0.329621
0.28763
0.302421
0.322806
0.278527
0.361918
0.339087
0.328286
0.343282
0.27994
0.296352
0.918461
0.293934
0.373218
0.801543
0.764088
0.277498
0.352726
0.682031
0.327238
0.38824
0.786069
0.376793
0.737178
0.275178
0.273305
0.354826
0.478137
0.381506
0.375568
0.272421
0.355179
0.280446
0.299779
0.270406
0.320532
0.290183
0.793428
0.659669
0.316369
0.30862
0.325147
0.292189
0.374348
0.351686
0.352409
0.360588
0.34262
0.294091
0.314525
0.354472
0.281214
0.352359
0.338881
0.919057
0.531221
0.315063
0.286438
0.350822
0.27567
0.874506
0.287196
1.39349
0.331189
0.415626
0.320641
0.299984
0.314393
0.27863
0.326532
0.290924
0.272846
0.382534
0.354281
0.368556
0.362589
0.346705
0.937953
0.321018
0.365093
0.344784
0.363677
0.276543
0.327519
0.311089
0.361166
0.341379
0.301654
0.333361
0.297423
0.317116
0.289012
0.283884
0.441397
0.509845
0.284668
0.406785
0.283103
0.302187
0.29054
0.276433
0.625521
0.272743
0.296217
0.292311
0.27434
0.615928
0.89445
0.295459
0.333935
0.277359
0.323016
0.274443
0.302264
0.303387
0.513585
0.301317
0.275707
0.294714
0.278566
0.292919
0.286776
0.270933
0.296678
0.27625
0.271337
0.299581
0.50314
0.275239
0.254482
0.598542
0.523783
0.271081
0.305038
0.785473
0.329004
0.309417
0.466862
0.24592
0.76585
0.315813
0.281688
0.438245
0.314061
0.521168
0.296196
0.326232
0.281212
0.280692
0.406268
0.344205
0.294469
0.319462
0.321587
0.346417
0.34833
0.37843
0.453227
0.432095
0.767416
0.890084
0.826968
0.56871
0.596511
0.363099
0.345465
0.282517
0.275598
0.321276
0.292181
0.307022
0.316861
0.333043
0.277115
0.319873
0.358665
0.27711
0.363809
0.305711
0.276101
0.348649
0.276607
0.283219
0.287409
0.32433
0.391295
0.279395
0.276175
0.284498
0.343069
0.33378
0.47967
0.404092
0.27581
0.322078
0.271603
0.279517
0.28182
0.32624
0.341698
0.444135
0.295379
0.282202
0.284954
0.366931
0.868641
0.293623
0.293567
0.363107
0.320681
0.34293
0.316161
0.301826
0.3768
2.3398
0.410608
0.849409
0.366857
0.362252
0.27115
0.371799
0.281716
0.313812
0.309735
0.283306
1.67969
0.395196
0.335213
0.661346
0.341753
0.269336
0.29814
0.373276
0.282804
0.320801
0.199448
0.279792
0.358644
0.356344
0.376455
0.68444
0.358352
0.340485
0.455815
0.284161
0.286933
0.405655
0.490408
0.312648
0.37839
0.410262
0.3169
0.289729
0.282152
0.306463
0.339283
0.337867
4.14183
0.642357
0.336291
0.518648
0.486265
1.07761
1.60425
0.471775
0.348486
0.360762
0.373541
0.344803
2.89616
0.282764
0.303668
0.372762
0.229125
0.308793
0.368024
0.342488
0.277387
0.369235
0.435339
0.363484
1.42628
0.272187
0.3512
0.376584
0.365703
0.357266
0.34985
0.37481
0.416635
0.318237
0.334625
0.425559
0.298358
0.285848
0.310744
0.385019
0.279321
0.381126
0.349628
0.341993
0.603318
0.822887
0.28186
0.3635
0.293249
0.36189
0.350213
0.618045
0.520271
1.18581
0.285535
0.33706
0.299375
0.840436
0.297322
1.80664
0.39096
0.371166
0.451842
0.540992
0.303528
0.286134
0.289027
0.298083
0.423056
0.297626
0.368566
1.26509
0.350472
0.277921
0.282933
0.628672
1.10665
0.468256
0.510482
0.895964
0.3837
0.331425
0.358203
0.292828
0.432546
0.35266
0.368893
0.981299
0.302243
0.280352
0.285833
0.357109
0.355519
0.366151
0.307984
0.290167
0.42707
0.283924
0.31678
0.286033
0.352838
0.346463
0.348239
0.315446
0.306675
0.290305
0.360572
0.293724
0.296336
0.306274
0.2913
0.345754
0.411474
0.321182
0.340172
0.285128
1.5646
0.365779
0.34987
0.314249
0.87506
0.728606
1.24649
0.317363
0.31826
0.307244
0.720518
0.34336
0.311134
0.348338
0.340396
0.36418
0.876023
0.348378
0.290139
0.344733
0.32587
0.273764
0.535715
0.958296
0.294364
0.966834
0.325338
0.610424
0.523848
0.301777
0.330854
0.357612
0.592849
0.325177
0.308673
0.308948
0.68328
0.47043
0.583104
0.298719
0.311085
0.280478
0.292059
1.54366
1.47101
0.328311
0.331526
0.361687
0.854296
0.284237
0.276305
2.38822
1.34041
0.355629
0.288883
0.831378
1.47881
1.1975
0.360825
0.785542
1.4558
0.965742
0.308216
0.409255
0.406932
0.307976
0.311424
1.55886
1.28459
0.328403
0.337286
0.345086
0.291985
0.310009
0.315803
0.434074
0.326956
0.366938
0.282487
0.371882
1.48644
0.947336
0.293681
0.528281
0.406039
0.30822
0.463694
0.276489
0.32554
0.293172
0.31101
0.376768
0.282729
0.723095
0.290372
0.801684
0.542459
0.976834
0.392212
0.421493
0.323086
0.349644
0.350715
0.508047
1.04246
0.345104
1.05273
0.469947
0.700435
0.436551
0.824068
0.652588
0.30445
0.362438
0.928795
0.332628
0.285591
0.290241
0.785064
0.676713
0.29312
0.307866
0.598793
0.368185
1.04329
0.756028
0.341297
0.416559
1.00157
0.338219
0.297492
0.853643
0.288552
0.816517
0.761869
0.286775
0.282721
0.301396
0.277875
0.359508
0.293467
0.290488
0.351223
0.357808
0.434241
0.308608
0.295368
0.47457
1.83532
0.749571
0.324586
0.31116
0.517965
0.29
0.947214
0.324708
0.324426
0.350776
2.07476
0.33035
2.03794
0.377315
0.462302
0.310785
0.734186
0.574103
0.605685
0.396776
0.498437
0.339555
0.363526
0.354808
0.549657
0.330251
0.424479
0.752257
0.388158
0.415799
0.886783
0.320083
0.292522
0.654444
1.49261
0.366755
0.311993
0.35933
0.379488
1.17824
1.06653
0.27816
0.296376
0.359141
0.790967
0.355932
0.540611
0.343079
0.346817
0.352531
0.4436
0.325202
0.558089
0.580967
0.317973
0.348023
0.402281
0.306663
0.855376
2.04577
0.312627
0.800274
0.823598
0.376772
0.737394
0.360611
0.333927
1.00954
0.336685
1.13642
3.13144
0.300786
0.339866
0.404009
0.365345
0.353173
0.360453
0.465589
0.365846
0.306429
0.358864
0.307861
0.67372
0.361129
0.330942
0.353957
0.575748
0.287689
0.783562
0.703867
0.332748
0.821055
1.95646
0.283587
0.426041
0.443589
0.341919
0.315703
0.482034
0.851985
0.460265
1.09603
0.288588
0.716647
0.420578
0.27644
0.35061
0.349575
0.454374
0.309483
0.354375
0.533695
0.27723
0.533317
0.34042
1.40339
0.361768
0.276672
0.339068
0.485089
0.329459
0.71672
0.411762
0.296357
0.630634
0.285423
0.316078
1.26859
0.274481
0.357558
0.666429
0.316078
0.991883
1.15911
0.350191
0.365492
0.284334
0.847168
0.485852
0.938819
0.747413
0.378992
0.31366
0.39178
0.960491
0.949814
1.23026
0.339853
0.357545
0.329343
0.296025
0.36725
0.678612
0.347203
0.329985
0.317935
0.27994
0.299594
0.353101
0.290187
0.348867
0.350156
0.388915
0.284365
0.346843
0.534081
0.301535
0.282243
0.357753
0.326944
0.359399
0.279315
0.313536
0.318522
0.292863
0.375959
0.541448
0.336941
0.29469
0.282349
0.276637
0.488392
0.302457
0.299656
0.500563
1.01127
0.668943
0.292127
0.48943
0.433656
0.369858
0.443843
0.388066
0.423858
0.347239
0.293213
0.345002
0.357001
0.290464
0.353894
0.366227
0.335975
0.291348
0.293857
0.343702
0.470452
0.334916
0.380027
0.778118
0.34648
0.643037
0.369865
0.828269
0.272319
0.348211
0.323447
0.282281
0.295029
0.365883
0.277713
1.25538
0.523715
0.763483
0.341831
0.862588
0.285411
0.310312
0.494311
0.294817
0.756644
0.389237
0.582799
0.331599
0.94767
0.91132
0.290982
0.275558
0.951498
0.298737
0.97679
0.318127
0.34362
0.289488
0.283977
0.284312
0.301481
0.317743
0.652361
0.368809
0.385281
0.308407
0.326637
0.274396
0.355068
1.31202
0.348812
1.39171
0.56976
0.289374
0.35868
0.30816
0.310765
0.30517
0.333092
0.331454
0.362906
0.315848
0.280422
0.31707
0.344454
1.30777
1.48534
0.315618
0.329364
2.1341
0.323347
0.280171
0.280401
0.276883
0.31865
0.359001
0.400063
0.377935
0.308956
0.28866
0.362962
0.274774
0.2715
0.293649
0.679148
0.384523
0.78028
0.715191
0.77457
0.292051
0.283291
0.281454
0.278309
0.278638
0.598512
0.305051
0.272482
0.29866
0.346341
0.292607
0.403911
0.288559
0.360793
0.415105
0.305978
0.280255
0.288614
0.307969
0.31039
0.287809
0.317532
0.302507
0.470418
0.304089
0.350193
0.385869
0.302744
0.306265
0.284685
0.310743
0.295425
0.344077
0.377022
0.286132
0.27101
0.297581
0.298933
0.290335
0.333923
0.277146
0.312541
0.287151
0.296719
0.793785
0.294627
0.387822
0.269884
0.281424
0.619911
0.295359
0.346032
0.275919
0.286322
0.328978
0.353277
0.702216
0.367717
1.50743
0.279345
0.287208
0.341325
0.276376
0.27184
0.375794
0.309876
0.271811
0.27374
0.879202
0.394817
0.619953
0.341018
0.500621
0.363139
0.287871
0.383169
1.49838
0.341496
0.293425
0.291769
0.740384
0.285986
0.297127
0.30836
0.307213
0.385202
0.729817
0.289341
0.303002
0.347457
0.304968
0.332965
0.846078
0.754786
0.286909
0.280758
0.277103
0.333137
0.318749
0.275003
0.746894
1.18485
0.283046
0.332049
0.806124
0.291764
1.68528
0.414136
0.275732
0.285991
0.282285
0.29214
0.541251
0.309157
0.308337
0.294357
0.329722
0.29638
0.361543
0.569462
0.362926
0.452156
0.463548
0.428299
0.539519
0.332827
0.387718
0.368466
0.379195
0.320442
0.295638
0.766268
0.541965
0.377901
0.328254
0.36054
0.325223
0.314283
0.238998
0.274539
0.274811
0.357061
0.349904
0.45629
0.381814
0.800634
0.668515
0.304266
0.377891
0.29014
0.292296
0.365123
0.280452
0.300731
0.27995
0.275557
0.227133
0.226991
0.276267
0.387406
0.640873
0.971099
0.317664
0.275362
0.438016
0.463481
0.781136
0.301309
0.779916
0.892054
0.952515
0.854217
0.368606
0.277094
0.273698
0.360613
0.807584
0.275094
0.372716
0.320247
0.276288
0.486386
0.444934
0.426123
0.308909
1.21982
0.277022
0.286036
0.311762
0.31491
0.561654
0.647847
0.320332
0.429601
0.300784
0.338287
0.306385
0.847612
0.353672
0.817601
0.371896
0.812724
0.352741
0.455823
0.6356
0.491296
0.380212
0.38269
0.663561
0.352512
0.353863
0.36066
0.3514
0.360715
0.340968
1.22619
0.493739
0.309022
0.547567
0.567492
0.542165
0.291034
0.283895
0.644017
0.610193
0.775997
0.298644
1.07426
0.28906
0.952797
0.611945
0.51327
0.66446
0.281664
0.329947
0.283468
0.326822
0.322808
0.479878
0.39797
0.282278
0.295022
0.342263
0.307209
0.279375
0.274985
0.431136
0.277879
0.272594
0.311297
0.387369
0.398018
0.310384
0.343305
0.350221
0.336907
0.518963
0.399442
0.29256
0.291701
0.451253
0.521405
0.296203
1.91659
0.319944
0.387468
0.921906
0.357468
0.295462
0.278147
0.456041
0.301759
0.272989
0.35008
0.2977
0.285628
0.297205
0.282116
0.334327
0.30459
0.310079
0.286781
0.33977
0.630469
0.289068
0.301039
0.29234
0.300666
0.385639
1.11037
0.300271
0.284514
0.310083
0.527692
0.255186
0.323941
0.307595
0.795464
0.331686
0.369871
0.354174
0.370035
0.331092
0.339701
0.298397
0.472992
0.356563
0.34264
1.25802
0.302842
0.373979
0.331374
0.322331
0.353474
0.39078
0.298712
0.336521
0.282335
0.321636
0.308815
0.330863
3.08114
0.288055
0.382554
0.375972
0.343899
0.603071
0.331329
0.658762
0.354469
0.52732
0.635263
0.312923
0.281214
0.389093
0.356083
0.313735
0.283211
0.735998
0.420626
0.340476
0.935574
0.614025
0.292712
0.454844
0.382773
1.23519
0.875197
0.361905
0.404025
0.462405
0.553439
0.439701
0.881675
0.214674
0.582886
0.301925
0.554896
0.355614
0.369332
0.374126
0.349077
0.31053
0.345544
0.556759
0.302593
0.349528
0.359165
0.460521
0.71508
0.384768
0.69414
0.320222
1.00171
0.373325
0.374643
0.802873
0.528174
0.668387
0.591628
0.599836
0.508012
0.429246
0.397273
0.32344
0.354885
0.35201
0.721247
0.332328
0.332763
0.295682
0.457726
0.344432
0.288896
0.801706
0.464915
0.474059
0.161702
0.387681
0.314485
0.337434
0.3289
0.34985
0.324741
0.269648
0.317812
0.366492
0.161926
0.155851
0.466578
0.325026
0.402656
0.382853
0.421482
0.362516
0.346078
0.330895
0.133575
0.336036
0.367263
0.138399
0.362412
0.81734
0.5612
0.320703
1.49377
0.379391
0.435627
1.04457
0.384268
0.36787
0.287323
0.554591
0.276826
0.283941
0.326637
0.354753
0.353868
0.315192
0.574987
0.353682
0.434251
0.294109
0.376417
0.35969
0.275426
2.11858
0.472871
1.03511
0.426558
0.287889
0.882116
0.449569
0.282345
2.25603
0.284289
0.279917
0.44469
0.426961
0.937499
0.991732
0.318772
0.636203
0.937512
0.380835
0.607242
0.943725
1.00014
2.15384
0.345896
0.330324
0.542651
0.608501
0.386431
0.905607
0.329075
0.303206
0.478853
0.327542
0.285292
0.369792
0.713181
0.645504
0.273834
0.470155
0.289883
0.379546
0.313736
0.376393
0.561027
0.391927
0.743997
0.351377
0.360678
0.691507
0.282963
0.291955
0.409165
0.284408
0.325178
1.08276
0.304996
0.83986
0.764825
0.77019
0.795116
0.376378
0.358945
0.280149
0.276732
0.382259
0.28575
0.295262
0.385254
0.295014
0.371952
0.890405
0.284406
0.482807
0.28337
0.431172
0.33679
0.797672
0.347307
0.425539
0.288816
0.308159
0.395966
0.281887
0.306032
0.298845
0.281531
0.481118
0.301699
0.352201
0.32635
0.292029
0.342071
0.312548
0.352988
0.932358
0.306013
0.29187
0.28973
0.353018
0.13389
0.579738
0.43193
0.634384
0.984092
0.212242
0.390599
0.0711663
0.182714
1.11452
0.370468
0.500403
0.241646
0.676071
0.647606
1.15506
0.326539
0.30373
0.502864
1.27576
0.312623
0.361679
0.412216
0.391137
0.375275
0.363147
0.90401
1.43302
0.174318
0.340645
0.14154
0.333562
1.30405
0.298878
0.327766
0.300785
0.28923
0.404374
0.299123
0.533381
0.41208
0.318096
0.369388
0.298783
0.499517
0.598243
0.298591
0.392655
0.329763
0.769791
0.411985
0.342308
0.491012
0.474693
0.277883
0.280382
0.340909
0.290613
0.65377
0.283963
0.395685
0.548482
0.304063
0.311281
0.299824
0.299074
0.562995
0.370724
0.474858
0.290247
0.295945
0.433105
0.567381
0.293648
0.320402
0.292225
0.287367
0.565826
0.404657
0.721231
0.309761
0.288439
0.397885
0.356371
0.31402
0.295541
0.350296
0.361245
0.496668
0.297947
2.00778
0.369079
0.368612
0.286421
0.358215
0.807365
0.940188
0.354899
0.794975
0.33735
0.960793
0.379034
0.644645
0.425959
0.497677
0.380739
0.304322
0.337049
0.375092
0.511079
0.340908
0.329381
0.897724
0.374529
1.80356
0.373237
0.312407
0.360297
0.54677
0.385896
0.28611
1.02854
0.284998
0.308645
0.286058
0.344916
0.696039
0.434618
0.326711
0.46076
0.345905
0.30948
0.298309
0.32537
0.375235
0.389215
0.365382
0.319141
0.314672
0.361195
0.313032
0.279087
0.349449
0.319478
6.49311
0.340642
0.41297
0.31215
0.359947
0.325605
0.371396
0.280775
0.339802
0.317407
0.314952
0.350648
0.76268
0.276054
0.813787
0.455475
0.391242
0.379797
0.316243
0.382507
0.402074
0.708074
0.294612
0.313422
0.317714
0.449942
0.338827
0.281208
1.18593
1.55273
0.62567
0.280853
0.286763
0.463937
0.352971
0.353594
0.451751
0.364427
0.304862
0.32653
1.6078
0.282423
0.511217
0.278941
0.303354
0.377435
0.298827
0.373261
0.410869
0.284923
0.541881
0.359383
0.353362
0.39683
0.893424
0.297189
0.35995
0.33459
0.356292
0.321999
0.33286
0.278856
0.269708
0.374465
0.534877
0.361091
0.332847
1.36947
0.363523
0.555332
0.358353
0.383028
0.353794
0.327853
0.76403
0.314829
0.474925
0.336065
0.355007
0.320296
0.351747
0.519958
0.413727
0.300348
0.573842
0.376929
0.591667
0.699707
1.50158
0.290441
0.407096
0.377687
0.239937
0.351066
0.240331
0.397477
0.221316
0.350149
0.812639
0.359643
0.566722
0.614633
0.331472
0.20226
0.396046
1.02021
0.4633
0.604618
2.07763
1.33004
0.677404
0.739634
0.289336
0.337542
0.69691
0.350254
0.913638
0.336185
0.748189
0.710546
0.308126
0.35086
0.305673
0.27513
0.338678
0.277297
0.653753
0.37521
0.345445
0.50192
0.305959
0.341027
0.287504
0.301497
0.334888
0.318695
0.374821
0.277234
0.368812
0.837131
0.287307
0.289923
0.31558
0.286821
0.831847
1.19275
0.358321
0.396228
0.483759
0.282836
0.271797
0.307623
0.322296
0.302354
0.308014
0.302771
0.290609
0.525692
0.296204
0.324375
0.302681
0.280995
0.283458
0.928836
0.298838
0.316581
0.305227
0.397573
0.344614
0.314676
0.607706
0.366225
0.302078
0.348629
0.336355
0.337776
0.380688
0.358902
0.294089
0.368539
0.349805
0.297773
0.314268
0.33068
0.400607
0.411354
0.303054
0.315799
0.361115
0.390457
0.429305
0.533873
0.901131
0.855972
0.317339
0.283517
1.15005
0.476686
0.515022
0.291403
0.283808
0.301246
0.277185
0.297917
0.283724
0.289258
0.310706
0.287893
0.290845
0.296381
0.290233
0.281875
0.497926
0.333778
0.31392
0.29276
0.303158
0.554025
0.286211
0.294781
0.367246
1.01385
0.476858
0.374181
0.362234
0.288343
0.319786
0.42921
0.611813
0.356367
0.299329
0.353551
0.29952
0.304611
0.325954
0.388424
0.343072
0.298954
0.356308
0.380548
0.56189
0.350518
0.719035
0.544827
0.364526
0.355755
0.307939
0.309866
0.354315
0.276853
0.302953
0.545896
0.291933
0.323443
0.679638
0.330767
0.351101
0.405585
0.347569
0.298833
0.330759
0.287743
0.326317
0.678482
0.335006
0.388127
4.83436
0.532583
0.934042
0.769896
0.303063
0.304301
0.473009
0.283905
0.499143
0.445721
0.638417
0.369858
0.279214
0.763909
0.279642
0.488161
0.374244
0.2986
0.663732
0.925716
0.282391
0.287448
0.822005
0.281228
0.290565
0.288821
0.281993
0.340205
0.534547
0.532013
0.310511
0.739673
0.306189
0.300866
0.302912
0.795348
0.304002
0.835157
0.283569
0.321365
0.287344
0.386098
0.334771
0.449712
0.287462
0.633865
0.430946
0.433817
0.647554
0.308936
0.302948
0.916126
0.406304
0.318126
0.380892
0.912169
0.308704
0.386857
0.318913
0.536674
0.363227
0.290051
0.281501
0.415247
0.300215
0.349125
0.313249
0.283687
0.307468
0.291298
0.29311
0.325623
0.748067
0.310383
0.292973
0.292154
0.301998
0.310225
0.343422
0.276834
0.354127
0.399716
0.374826
0.367468
0.298677
0.359823
0.29145
0.344414
0.892756
0.385263
0.678459
0.303092
3.32951
0.326103
0.444741
0.362183
0.295669
0.369293
0.289174
0.292137
0.329296
0.343896
0.271929
0.29736
0.280841
0.600888
0.28053
0.297634
0.330223
0.676619
0.112949
0.300712
0.737548
0.822398
0.547952
0.522572
0.793586
0.121431
0.369206
0.157674
0.329665
0.456967
3.84429
0.372782
0.338642
0.278469
0.283086
0.708897
0.311755
0.371239
0.822328
0.356978
0.579033
0.345261
0.542121
0.288796
0.350863
0.334235
0.27719
0.368446
0.27389
0.321291
1.00753
0.916569
1.08109
0.408392
0.893617
0.295962
0.274203
0.287531
0.349248
0.280363
0.331759
0.288018
0.371152
0.363146
0.280152
0.286566
0.347121
0.281051
0.310769
0.341662
0.310503
0.339404
0.449482
0.300129
0.331467
0.770519
0.331461
0.733051
0.74226
0.329544
0.368468
0.2846
0.427376
0.31504
0.330177
0.712238
0.284802
0.338545
0.314529
0.324553
0.297356
0.292788
0.443912
0.464889
0.3755
0.318497
0.746218
0.341016
0.594995
0.549772
0.360507
0.974279
0.406604
0.335999
0.307977
0.351536
0.34879
0.313812
0.285956
0.328235
0.164663
0.533776
0.175243
0.290889
0.31895
0.385472
0.134063
1.09459
0.332117
0.360344
0.351524
0.147748
0.355665
1.08151
2.68371
0.345425
0.288357
0.365534
0.460309
0.293846
0.335039
0.363563
0.296256
0.34965
0.304769
0.807599
0.32451
1.63608
0.386062
0.829206
0.334563
1.75828
1.00445
0.831015
0.308062
0.324568
0.400938
0.360186
0.293013
0.348596
0.307672
0.755376
0.283904
0.41552
0.647282
0.282409
0.281997
0.297757
0.317462
0.333262
0.360466
0.348263
0.374618
0.371665
0.307331
0.380193
0.31345
0.406734
0.307391
0.352775
0.287876
2.6371
1.4312
0.343119
0.40738
0.275258
1.68779
0.276478
0.277481
0.341577
0.275725
0.360126
0.344538
0.270531
0.27307
0.334598
1.93391
0.532881
0.370891
0.751092
0.283044
0.361219
0.309337
0.35956
0.744975
0.365557
0.762899
0.272361
0.303624
0.720353
0.807572
0.308483
0.317102
0.567351
0.377036
0.320904
0.434723
0.345812
0.352685
0.370347
0.356309
0.270801
0.367534
0.340249
0.428615
0.282637
0.346995
0.27589
0.319354
0.802312
0.813293
0.294826
0.432775
0.309056
0.341315
0.299054
0.479358
0.296559
0.308682
0.322719
0.333349
0.395294
0.355557
0.435345
0.330167
0.276397
0.322457
0.28442
0.337921
0.283946
0.47112
0.405659
0.318129
0.543512
0.312957
0.279646
0.339819
0.286144
0.359945
0.572807
0.302427
0.38394
0.357089
1.09656
0.354401
0.337961
0.363149
0.656116
0.364059
0.480175
0.336558
0.360231
0.467182
0.37302
0.341979
0.748435
0.403453
0.363187
0.304762
0.289689
0.4932
0.302606
0.934571
1.37469
0.375887
0.378394
0.357432
0.428929
0.39897
0.34167
0.763532
0.427629
0.582656
0.284884
0.380239
1.14165
0.433463
0.314651
0.420793
0.297257
1.19865
0.34217
0.35
0.297758
0.277405
0.285526
0.319142
0.288483
4.95454
0.283174
0.614526
0.278919
0.380104
0.340177
0.471248
0.316562
0.321579
0.307586
0.639413
0.418106
0.452588
0.290261
0.287969
0.404856
0.33137
0.318201
0.284033
0.281144
0.278412
0.302382
0.278883
0.337689
0.282398
0.512649
0.38494
1.33347
0.695358
0.525094
0.500853
0.347406
0.354961
0.277664
0.525523
0.294231
0.298518
0.29402
0.410702
0.445404
0.295407
0.374714
0.714975
0.443002
0.284553
0.287357
1.65191
0.744661
0.342705
0.788481
0.787254
0.571783
0.703526
0.510026
0.691231
0.360878
0.564661
0.693854
0.280765
0.287723
0.274404
0.424407
0.550677
0.296544
0.279869
0.358628
0.325951
0.376037
0.699482
0.42809
0.911644
0.336845
0.290047
0.305939
0.290132
0.325805
0.66633
1.0101
0.853823
0.719402
0.31405
1.31455
0.537204
0.307237
0.492727
0.425849
0.700369
0.365487
0.429505
0.700496
0.692602
0.426115
0.817353
0.448221
0.789858
0.34935
0.299729
0.363931
1.11236
0.717985
0.347308
0.306148
0.492989
0.396859
0.529959
0.321032
0.342008
1.07865
1.2441
0.173098
0.37656
0.162909
0.28235
0.167817
0.331316
0.420233
0.536622
0.149946
0.387073
0.446696
0.115916
0.414144
1.2362
0.365721
0.336876
0.797468
0.296093
0.441199
0.288154
0.277298
0.292998
0.300473
0.803372
0.638487
2.14517
0.34575
0.344248
0.585106
0.331799
0.370867
0.363395
0.321096
0.300909
0.523811
0.379922
0.365849
0.289932
0.374002
0.359277
0.679457
0.412098
0.734422
0.917848
0.705783
0.373698
0.356754
0.68828
0.23594
0.487717
0.319916
0.34362
0.289091
0.737055
0.57411
0.627904
0.654598
0.550146
0.285244
0.381274
0.824909
0.743471
0.343556
0.355739
0.408764
1.87276
0.311552
0.285053
0.361694
0.313859
0.810546
0.344977
0.54719
0.636413
1.00944
2.08501
0.483588
0.404124
0.746796
1.11996
0.800728
0.523905
0.845251
0.892507
0.47244
0.335624
0.399854
0.356454
0.273446
0.298833
0.380838
0.458551
1.80281
0.338998
0.383765
0.399654
0.368547
0.424737
0.506031
0.434915
0.353496
0.374204
1.03486
1.00971
0.146374
0.353465
0.311989
0.330255
1.62784
0.836124
0.364014
0.554367
0.301239
0.387402
0.443092
0.503236
0.300628
0.300297
0.298373
0.348428
0.861591
0.408534
0.320911
0.719309
0.287636
0.906894
0.672323
0.422221
0.654866
0.328956
0.283548
0.311004
0.285998
0.34533
0.351231
0.298896
0.314496
0.300507
0.284507
0.448755
0.508349
0.673108
0.289404
0.423015
0.320463
0.350045
0.308422
0.488216
0.314478
0.304356
0.30001
0.286544
0.291183
0.293132
0.4099
0.280812
0.322483
0.327844
0.552953
0.291363
0.345283
0.452383
0.73236
0.954055
0.344237
0.766787
0.413222
0.331182
0.307097
0.481475
0.307487
4.21301
0.3704
0.292932
0.380832
0.375771
0.36394
0.405245
0.662474
0.945913
0.394056
0.805017
0.304605
0.277446
0.350012
0.285234
0.281889
0.364903
0.282944
0.289758
0.528596
0.29082
0.189778
2.05223
0.507071
0.282748
0.283716
0.532801
0.303177
0.295319
0.522539
0.297813
0.696737
0.353647
0.737821
0.283475
0.491482
0.394181
0.605171
0.287445
0.391457
0.289518
0.934987
0.364327
0.282425
1.29379
0.382824
0.458236
0.315166
0.337561
0.373675
0.28116
0.453726
0.281146
0.291133
0.289761
0.402209
0.547612
0.295586
0.288697
0.29133
0.286559
0.298936
3.28161
0.282844
0.408615
0.282005
0.514064
0.321726
0.327635
0.325124
0.42096
0.302682
0.372166
0.274992
0.306037
0.300002
0.311126
0.28354
0.391555
0.362106
1.00373
0.940524
0.731323
0.35309
0.304533
0.304144
0.28211
0.287463
0.988043
0.577837
0.355527
0.329361
0.277041
0.298218
0.273118
0.288048
0.474594
0.468977
0.702164
0.906461
0.328931
0.362427
0.356673
0.282995
0.514813
0.341026
0.411918
0.349662
0.319548
1.02201
0.371942
0.276505
0.303309
0.361296
0.29609
0.449802
0.283144
0.571949
0.333743
0.844653
0.446488
0.705004
0.29095
0.300526
0.315792
0.374405
0.323957
0.358234
0.292507
0.283225
0.287394
0.293952
0.354883
0.537195
0.330741
0.790684
0.375425
0.315011
0.467014
0.381689
0.36145
0.232223
0.987737
0.808383
0.209956
0.288456
0.288343
0.787605
0.302008
0.368585
0.338059
0.326336
0.252805
0.347802
0.348694
0.284548
0.376208
0.315126
0.926818
0.479738
0.393664
0.270763
0.356317
0.381715
0.311548
0.287578
0.831562
0.790087
0.313397
0.712168
0.29628
0.28251
0.35589
0.294282
0.834722
0.279547
0.280524
0.285422
0.601424
0.281769
0.319499
0.409725
0.414122
0.280877
0.300636
0.302383
0.305517
0.292831
0.335073
0.325465
0.536108
0.386336
0.355337
0.523738
0.346982
0.54479
0.32402
0.815065
0.401964
0.222317
0.588728
0.118819
0.38907
0.473789
0.529856
0.352846
0.282614
0.284669
0.282663
0.34422
0.75983
0.360892
0.280778
0.336115
0.334364
0.272011
0.435878
0.304304
0.357359
0.417487
0.301237
0.290535
0.314529
0.305231
2.82266
0.902734
0.344353
0.344875
0.381022
0.340214
0.7438
0.837062
0.919708
0.717734
0.331456
0.30024
0.30665
0.271752