/*--------------------------------*- C++ -*----------------------------------*\
| =========                 |                                                 |
| \\      /  F ield         | OpenFOAM: The Open Source CFD Toolbox           |
|  \\    /   O peration     | Version:  2506                                  |
|   \\  /    A nd           | Website:  www.openfoam.com                      |
|    \\/     M anipulation  |                                                 |
\*---------------------------------------------------------------------------*/
FoamFile
{
    version     2.0;
    format      ascii;
    arch        "LSB;label=32;scalar=64";
    class       volScalarField;
    location    "0.0882685";
    object      nut;
}
// * * * * * * * * * * * * * * * * * * * * * * * * * * * * * * * * * * * * * //

dimensions      [0 2 -1 0 0 0 0];

internalField   nonuniform List<scalar> 
47425
(
0.0046341
0.00461595
0.00416615
0.00190885
0.0029521
0.00425689
0.00402811
0.00306262
0.00742777
0.00284038
0.00233912
0.00738791
0.00474082
0.00377657
0.00303109
0.00364541
0.00430008
0.00222334
0.000232987
0.00249783
0.00360204
0.00664051
0.00294407
0.00477721
0.00661619
0.00638899
0.00365373
0.000458799
0.00401533
0.00518999
0.0068836
0.00714149
0.00745914
0.00414551
0.00487372
0.00446219
0.00663108
0.00537829
0.00438786
0.00403935
0.00491662
0.00576733
0.00505888
0.00260976
0.00095989
0.00320566
0.00333987
0.00451853
0.00367
0.00598269
0.000602623
0.00241731
0.00569459
0.00130161
0.00317622
0.00289174
0.00628209
0.0048599
0.00245363
0.00481194
0.00101532
0.00066416
0.00125438
0.00270057
0.0073849
0.00632713
0.00555492
0.00392336
0.00112653
0.00489126
0.00370506
0.00521858
0.00562907
0.00329209
0.00173471
0.00746319
0.00129252
0.00365615
0.000189578
0.00173268
0.00165054
0.00459594
0.00680903
0.00742906
0.00525576
0.00373327
0.00501667
0.00493457
0.00378111
0.0013551
0.00671399
0.00430156
0.0069202
0.00319828
0.00256851
0.00185045
0.00596793
0.00532806
0.0033895
0.00447917
0.0055647
0.000888874
0.00562909
0.00090385
0.00574891
0.00666012
0.00549547
0.00330436
0.00557544
0.00704504
0.00378057
0.00515515
0.00520402
0.00222337
0.0071494
0.000319449
0.0071694
0.000692627
0.00419136
0.00507826
0.00388223
0.0074714
0.00590238
0.00232719
0.0035394
0.00624116
0.00360513
0.0074179
0.00329023
0.00685202
0.00648012
0.00330846
0.000944615
0.00282497
0.00503122
0.0040789
0.0060724
0.00598311
0.00431998
0.00304935
0.00499002
0.00228863
0.00454713
0.00440378
0.00612049
0.00742414
0.00332675
0.00542156
0.00234277
0.00499667
0.00438002
0.000525053
0.00738985
0.00039789
0.00265589
0.00366273
0.0026354
0.000287649
0.00368682
0.00440097
0.00723429
0.00646382
0.005487
0.00643033
0.00113648
0.000389438
0.00743194
0.00168003
0.00307234
0.000757169
0.00180313
0.00395747
0.00479059
0.00296833
0.00467248
0.0011604
0.000369475
0.00398815
0.00534256
0.00666683
0.000300039
0.00540706
0.00463028
0.00614888
0.00614092
0.00696047
0.00524189
0.00101785
0.00229304
0.0048049
0.00746955
0.00396983
0.00469508
0.00474277
0.00622479
0.00708252
0.00582732
0.0042957
0.00723224
0.00329881
0.00480885
0.00293631
0.00516634
0.00706004
0.00221734
0.0023399
0.00523915
0.00698127
0.00400401
0.00747105
0.00445738
0.00438432
0.00745915
0.00324604
0.00447716
0.00445793
0.00384251
0.00203586
0.0030069
0.00379959
0.00166042
0.00233291
0.00411417
0.00298946
0.00235325
0.00157537
0.00629733
0.00234812
0.00688088
0.0037221
0.00409044
0.00417319
0.00321148
0.00748889
0.00219287
0.00337292
0.00154516
0.00286961
0.00172118
0.00198661
0.00394184
0.00460729
0.00676006
0.00284841
0.00638624
0.00733162
0.00426618
0.00590011
0.0064884
0.00378619
0.00673241
0.00197841
0.00433081
0.00742026
0.00328429
0.0067785
0.00661973
0.00297986
0.00313764
0.00739659
0.00300269
0.00745955
0.00385939
0.00262771
0.00482796
0.00382135
0.00651693
0.00408897
0.00448242
0.00387305
0.00386166
0.00192244
0.00162566
0.00584523
0.00199713
0.0020544
0.00199995
0.000509964
0.00166568
0.000552116
0.00099452
0.00461693
0.000966091
0.0028919
0.00374736
0.00344681
0.00330861
0.00343091
0.00394827
0.00726135
0.000698704
0.00463835
0.00737543
0.00502611
0.00435579
0.00320719
0.00273195
0.00616362
0.004776
0.00466625
0.00367705
0.00630735
0.00368282
0.00476609
0.000890114
0.000785468
0.000509426
0.00679332
0.00580829
0.00666067
0.00308424
0.000774205
0.00358583
0.00275303
0.0018059
0.00448303
0.00322612
0.00299317
0.00325836
0.00136479
0.00195857
0.00692749
0.00504455
0.00584435
0.0039949
0.00657649
0.00391032
0.00436473
0.00527422
0.00399967
0.00348263
0.000960471
0.00346947
0.00390927
0.00297232
0.00675763
0.000798473
0.00630856
0.00607329
0.00543427
0.00671111
0.00665018
0.00593376
0.0056597
0.00525864
0.00570721
0.00480713
0.00624631
0.00349676
0.00390246
0.00662394
0.00627368
0.00497189
0.00642516
0.00651097
0.00238372
0.00384738
0.0068318
0.00636032
0.0038573
0.0018367
0.00517393
0.00398851
0.00323204
0.00590404
0.00621755
0.00274792
0.00743424
0.0047758
0.00667235
0.00271482
0.00130202
0.00370851
0.00689735
0.00192608
0.00685686
0.0040866
0.00382784
0.00502326
0.00662277
0.00563153
0.00672958
0.00660257
0.00481455
0.00391642
0.00439933
0.00367445
0.00559369
0.00717397
0.00370499
0.00546216
0.00554559
0.00390446
0.00502588
0.00442892
0.00610491
0.00515455
0.00344306
0.00323681
0.00567911
0.00107231
0.00628223
0.00228168
0.00455313
0.00336751
0.00333666
0.00608289
0.00233829
0.00616715
0.00341802
0.00602636
0.0011564
0.000934596
0.00645272
0.00238619
0.00372454
0.00347743
0.00368019
0.00395191
0.003639
0.00392666
0.00465473
0.00597615
0.0029841
0.0042953
0.00589962
0.00370864
0.00380013
0.00569482
0.000826761
0.000337731
0.00647453
0.000452592
0.000429925
0.00391934
0.000411039
0.000992035
0.00596168
0.00370784
0.00392955
0.0037572
0.00100024
0.003653
0.00557981
0.00587646
0.0040282
0.00384047
0.00386082
0.00357457
0.00125277
0.000730441
0.00115934
0.00543752
0.000903236
0.00360461
0.00482295
0.00678299
0.00486021
0.0068412
0.00422913
0.00478994
0.00284693
0.00421303
0.0074896
0.00369312
0.00498311
0.00414995
0.00694472
0.00458986
0.00439431
0.00523083
0.00562931
0.00338526
0.00268873
0.00499213
0.00400246
0.00686217
0.00138531
0.00277634
0.00182992
0.00744304
0.00248961
0.00277907
0.00269715
0.00661105
0.00356726
0.00740266
0.00486034
0.00259627
0.00315301
0.00338246
0.00290497
0.00502651
0.00220708
0.000800508
0.00589043
0.0014485
0.00558228
0.00144965
0.00558359
0.00549339
0.00645874
0.0042028
0.00481915
0.00283313
0.00469368
0.00620591
0.00642551
0.0054762
0.00417019
0.00254974
0.0033042
0.00681043
0.00527946
0.0043951
0.00476735
0.00489236
0.00463334
0.00433726
0.0022725
0.00472292
0.00372038
0.000623109
0.00488656
0.00421648
0.0061937
0.00741179
0.00161462
0.00214505
0.00427362
0.00545984
0.00413298
0.00374205
0.00683719
0.00202314
0.00747828
0.00557608
0.00217936
0.00258599
0.00488017
0.00269255
0.00698817
0.00402286
0.00405435
0.00496208
0.00663499
0.00531789
0.000907637
0.00453674
0.00235827
0.00627913
0.00187265
0.00583888
0.00482532
0.0018882
0.00225937
0.00430135
0.00627833
0.000690738
0.00506768
0.00506347
0.00495892
0.00582708
0.00629445
0.00203548
0.00286022
0.00569512
0.00440174
0.00439119
0.00659847
0.00176292
0.00660686
0.00486036
0.000394967
0.00417913
0.0067619
0.000742605
0.00120506
0.00705084
0.000304567
0.000320749
0.00402551
0.00744586
0.00533712
0.00653417
0.00426007
0.00370153
0.00131425
0.00682456
0.00261279
0.00568631
0.00187401
0.00214056
0.00433117
0.00457008
0.00163937
0.00650234
0.00562608
0.00330438
0.00327224
0.0022902
0.00291892
0.00293271
0.00667371
0.00325718
0.00285124
0.00287249
0.00532509
0.00281267
0.00299701
0.00606146
0.00238815
0.00359253
0.00376407
0.00261411
0.00328304
0.004148
0.00492955
0.00541876
0.00152013
0.00507652
0.00609459
0.00571056
0.000274458
0.00375838
0.00443653
0.000485558
0.000749131
0.00678037
0.00463416
0.000139135
0.0020008
0.000714126
0.00246247
0.00315409
0.0007989
0.0046877
0.00577429
0.00590924
0.00270446
0.00335451
0.0033283
0.00599829
0.00306851
0.00421853
0.00367612
0.0056677
0.00413987
0.00357522
0.00170158
0.000919761
0.00267771
0.00267596
0.00388421
0.00526869
0.00342003
0.00741649
0.00605397
0.00567845
0.00526681
0.00507196
0.00185443
0.00469472
0.00600965
0.00174468
0.00187793
0.00122987
0.00109581
0.00377039
0.00684564
0.00476367
0.00657057
0.00135394
0.00421088
0.0013585
0.00406874
0.00358151
0.00465918
0.00448662
0.00544927
0.00322462
0.00170594
0.00334056
0.00482073
0.00187049
0.00390015
0.00748587
0.00403235
0.00393118
0.00190209
0.00463689
0.0018273
0.00321869
0.00747321
0.00637024
0.00240362
0.0039253
0.00334614
0.00743286
0.00490921
0.00389718
0.00424885
0.0039741
0.00372277
0.00445455
0.000817315
0.000563796
0.00408661
0.000729014
0.00428027
0.00276194
0.0032767
0.00586124
0.00427042
0.00450183
0.00384647
0.00385252
0.00628496
0.000528556
0.00217026
0.00321521
0.00506635
0.00610913
0.0036346
0.0049468
0.00230739
0.00711391
0.00171053
0.00387606
0.00646054
0.00394435
0.00613878
0.00507162
0.00421671
0.00548875
0.00340938
0.00681802
0.00596103
0.00338369
0.000933127
0.00683041
0.000759124
0.00206485
0.00193773
0.000727873
0.00401747
0.00344087
0.00192503
0.00308962
0.00074802
0.000803311
0.000869971
0.00304066
0.00453058
0.00309643
0.00282011
0.000787232
0.00238431
0.00353457
0.00512089
0.00407956
0.00378854
0.00307351
0.00537418
0.00405692
0.0011844
0.00180105
0.00555482
0.00246468
0.00100392
0.000647852
0.00413082
0.00059409
0.00176596
0.000619119
0.000792837
0.00449994
0.00295792
0.00655634
0.00614546
0.00463929
0.000703963
0.00114392
0.0045874
0.00469418
0.00678333
0.000884876
0.00086359
0.00679024
0.00220329
0.00351051
0.00677211
0.00215686
0.00680907
0.00678684
0.00404998
0.00461443
0.00144501
0.00602617
0.00672081
0.00475263
0.00509108
0.00506067
0.000939659
0.0018565
0.00661383
0.00114409
0.00573761
0.00608206
0.00603571
0.00172362
0.00442152
0.00232991
0.00251599
0.0052613
0.0066972
0.00116498
0.000609576
0.00423967
0.00368187
0.00186803
0.00509938
0.00560954
0.00287402
0.00262586
0.00294507
0.00784036
0.00247009
0.0010339
0.0074237
0.00100283
0.00481985
0.00388766
0.00633602
0.00194376
0.00256102
0.00650252
0.00488673
0.00114671
0.00301158
0.00202784
0.00436176
0.00495958
0.00436793
0.00363379
0.0041836
0.00292459
0.000646363
0.00430241
0.00244668
0.00175183
0.00173805
0.00100067
0.00169569
0.00396825
0.000518432
0.00650244
0.00624592
0.00371457
0.00254323
0.00367711
0.00128812
0.00122647
0.00312122
0.00417992
0.00415322
0.00305853
0.00348792
0.00382388
0.0107336
0.00143491
0.00376943
0.00323551
0.00244618
0.0017671
0.00600947
0.000526034
0.00383682
0.00537182
0.00386731
0.00382989
0.0113418
0.00626017
0.0030849
0.00386328
0.000643098
0.00262803
0.00468661
0.00356351
0.00526462
0.00344396
0.000717916
0.00462404
0.00266837
0.00510324
0.00167709
0.00286743
0.00376014
0.00546091
0.00528976
0.00357869
0.00232129
0.00365706
0.0015198
0.000711826
0.00501671
0.00652872
0.00450437
0.000957745
0.00492106
0.00262187
0.00667321
0.00162874
0.00143737
0.00315791
0.00286517
0.00434281
0.00655658
0.00514762
0.00310906
0.00127044
0.00201459
0.00115033
0.00601819
0.00206621
0.00223867
0.00283031
0.00341424
0.00581897
0.0016659
0.00162312
0.00338281
0.000827175
0.00342085
0.00339991
0.00404926
0.00456634
0.00327886
0.00447984
0.0011243
0.00477564
0.00451006
0.00404607
0.00562305
0.00072903
0.00292716
0.000651556
0.00145545
0.00073703
0.00204137
0.00374854
0.00119001
0.00332559
0.00116871
0.00195341
0.00200155
0.00202772
0.00273903
0.00482835
0.00403636
0.00746824
0.00132133
0.00365813
0.00330027
0.0040911
0.001235
0.00545917
0.00421302
0.00573852
0.00746033
0.00285456
0.00166597
0.00285684
0.00292249
0.00485325
0.00227402
0.00648413
0.00305823
0.00299002
0.0061726
0.00216287
0.00216532
0.00408385
0.001879
0.00361876
0.00345531
0.00201947
0.00286712
0.00300187
0.000206434
0.000693729
0.00211887
0.000733875
0.00321023
0.00308945
0.000557956
0.000882505
0.00440868
0.000957222
0.00325623
0.00419834
0.000566197
0.00256592
0.00658619
0.00311028
0.00132502
0.00551305
0.000638872
0.000325858
0.00216386
0.00077794
0.0021763
0.000880311
0.000818124
0.00514794
0.00439615
0.0027165
0.00168128
0.00359799
0.00694712
0.00191458
0.000661765
0.00378546
0.00154031
0.00414557
0.00196859
0.005951
0.00560077
0.00317319
0.00288603
0.0040825
0.0016393
0.00459408
0.00145979
0.00663108
0.00538584
0.00560601
0.00278156
0.00489901
0.00674575
0.000740538
0.0022804
0.00209933
0.00366391
0.00250026
0.00290701
0.00123963
0.00390863
0.00104141
0.00301949
0.00485067
0.00297945
0.00321302
0.000840454
0.00183638
0.00162214
0.00587665
0.00446164
0.00187548
0.00392278
0.00292959
0.00499061
0.00740451
0.00595325
0.00377667
0.00352752
0.00077145
0.00361286
0.000479689
0.00366192
0.00430924
0.00294227
0.00485409
0.00365092
0.00390675
0.00425274
0.00191752
0.0053512
0.0013463
0.00686365
0.000348787
0.00137374
0.00148292
0.00195646
0.0041272
0.00524876
0.00342711
0.0045809
0.000596872
0.000717306
0.00335292
0.0021265
0.000981095
0.000868634
0.00228227
0.0011138
0.000679707
0.00342042
0.00432799
0.000538875
0.00377845
0.00422334
0.0040358
0.00109444
0.000465733
0.00375431
0.00333949
0.00122407
0.00243676
0.00191794
0.000721091
0.00320967
0.00103779
0.00114152
0.00331927
0.00423575
0.00124585
0.00545141
0.00212088
0.000225754
0.00682458
0.00411981
0.00366465
0.00491957
0.00296412
0.00294678
0.00698288
0.00292975
0.00406346
0.000763899
0.00149589
0.00426071
0.00138396
0.0078653
0.000375206
0.00652575
0.003385
0.00215025
0.00485379
0.000946551
0.00382321
0.00296684
0.00233775
0.00488469
0.00385775
0.00630172
0.00209554
0.000642943
0.00548203
0.00162438
0.000666095
0.00250077
0.00341139
0.000936966
0.00157709
0.00478133
0.00477533
0.000975819
0.00172263
0.00233476
0.000788964
0.00258599
0.00086131
0.00311616
0.00269197
0.00209005
0.000967493
0.00649356
0.00489193
0.00205667
0.00428479
0.00255693
0.00382212
0.00184935
0.0047915
0.00333876
0.00575602
0.00145962
0.00560387
0.000595576
0.00215228
0.00556562
0.00739773
0.00184798
0.00154295
0.000820909
0.001793
0.00187878
0.0010336
0.000818592
0.00390903
0.000902441
0.00513911
0.0027465
0.000384925
0.00145027
0.00308877
0.00337269
0.00561305
0.00136264
0.0011256
0.00146411
0.00333006
0.00836368
0.00680163
0.00165995
0.00333235
0.00379483
0.00627769
0.000961321
0.0027254
0.0015398
0.00399603
0.00144023
0.0038891
0.00266974
0.00103282
0.00178476
0.00233797
0.00228724
0.00527436
0.00038918
0.00159472
0.00144034
0.00137931
0.00767929
0.00504782
0.000981558
0.000761513
0.00160487
0.00254528
0.00258314
0.00169125
0.00220171
0.00164799
0.00513328
0.00123231
0.00125112
0.00509425
0.00110392
0.00329799
0.00236339
0.002647
0.0011849
0.00241942
0.00539915
0.000638503
0.0032545
0.000630305
0.00257578
0.0034727
0.00295326
0.00177405
0.0011909
0.00235658
0.00361365
0.00281068
0.00113883
0.00370166
0.00407305
0.000675737
0.00642101
0.00354968
0.000805111
0.00326461
0.00300659
0.00287412
0.00235639
0.00110972
0.00347154
0.000148339
0.00235695
0.000746316
0.00344815
0.00106004
0.00252738
0.000852838
0.00139604
0.00148174
0.00395532
0.00390659
0.00741052
0.00392142
0.00348158
0.00286133
0.000682222
0.00375538
0.00595218
0.00389717
0.00462412
0.00278572
0.00415377
0.00678353
0.00745237
0.00295145
0.00090863
0.00636378
0.00275079
0.00219057
0.00509636
0.0060569
0.00279373
0.00204032
0.00747109
0.00519295
0.00323556
0.00345539
0.00529476
0.00387981
0.00113124
0.00385036
0.00310357
0.00523041
0.00655166
0.00192523
0.0045846
0.00575228
0.00083833
0.00237669
0.000922357
0.00607294
0.000861935
0.000406732
0.00501786
0.000386961
0.000746874
0.000501686
0.00387116
0.00442338
0.00423757
0.00130574
0.00673501
0.00435508
0.00443035
0.00378055
0.00261826
0.00336257
0.00338269
0.000979475
0.00425049
0.0026183
0.000776453
0.00400487
0.000297717
0.00156539
0.0011932
0.00588712
0.00298731
0.00188105
0.00555504
0.00442122
0.00192709
0.00653506
0.00284275
0.00155092
0.00048855
0.00681601
0.00141593
0.00477159
0.00292088
0.00227705
0.00484411
0.00128597
0.00432587
0.00198949
0.00430223
0.00126335
0.000273353
0.00371504
0.00656184
0.0022155
0.0044999
0.00113234
0.00374103
0.00367657
0.00421312
0.00397436
0.00515096
0.00702208
0.00362483
0.00210234
0.00487894
0.00218345
0.00384967
0.0037601
0.00677534
0.00229588
0.00407478
0.00394964
0.00547942
0.00417683
0.00423154
0.00303936
0.0040394
0.00427586
0.00560631
0.0022828
0.00256786
0.0074721
0.00376191
0.00345673
0.00488735
0.00375254
0.00419763
0.00420502
0.00390071
0.00379198
0.00623842
0.00376651
0.00543971
0.00444952
0.00597049
0.00198784
0.00219981
0.00196174
0.00361908
0.00454565
0.00393035
0.00112831
0.00485269
0.00466939
0.00515265
0.00140282
0.00297158
0.00119138
0.00120642
0.00123348
0.0029339
0.00427269
0.00384803
0.00397655
0.00590166
0.00117166
0.00378347
0.00593959
0.00392696
0.00310597
0.00380515
0.00155527
0.00379902
0.00233328
0.00265404
0.00326959
0.00579383
0.00420162
0.00357343
0.00365311
0.00432746
0.00290799
0.00314569
0.00253284
0.00356357
0.00508198
0.00492081
0.00206752
0.00185456
0.0044411
0.00400116
0.00225001
0.00364746
0.00225463
0.00571658
0.0048073
0.00224158
0.00441618
0.0053982
0.00452715
0.00644971
0.00577086
0.00329126
0.00413226
0.00218846
0.00421317
0.00217283
0.00541176
0.00410323
0.00099665
0.00383821
0.00414959
0.00467133
0.00484048
0.00386046
0.00419281
0.00030235
0.00345091
0.00489399
0.00556196
0.00486613
0.00489085
0.00676608
0.00571647
0.00348862
0.00395173
0.00571378
0.00621269
0.00275867
0.000958505
0.00121237
0.00293187
0.00172848
0.00348962
0.00370482
0.0035227
0.00308197
0.00191054
0.00313317
0.00381823
0.000803107
0.00456002
0.00381707
0.00370571
0.00384923
0.00522051
0.000282092
0.00442989
0.00346715
0.00743038
0.00254894
0.00231342
0.000396934
0.000215047
0.00438995
0.0053446
0.00654985
0.00382648
0.00353201
0.00459854
0.000194748
0.0019228
0.00449437
0.0024688
0.00115368
0.00460231
0.00805761
0.00333184
0.00652121
0.00474059
0.00610306
0.00406012
0.00257375
0.00373782
0.00408259
0.00480621
0.00174402
0.00407092
0.00743715
0.00161664
0.00571894
0.00309906
0.00263602
0.00100532
0.00153469
0.00335752
0.00287962
0.00478325
0.00284778
0.00278019
0.00556173
0.000570594
0.00152446
0.00287974
0.00373293
0.00339963
0.00373144
0.00370225
0.00107658
0.00675067
0.00618513
0.00574167
0.00538215
0.000799046
0.00118792
0.0011961
0.00173593
0.00279586
0.0028797
0.00683936
0.00631772
0.0045491
0.00466355
0.00486174
0.00523988
0.00674458
0.00103158
0.000702125
0.00669867
0.00515138
0.00234503
0.00267658
0.00267008
0.0066434
0.00428122
0.00186391
0.000864525
0.00330824
0.00197055
0.00275881
0.00158177
0.000533956
0.00309126
0.00571784
0.00657648
0.0061717
0.000863936
0.0049165
0.00435008
0.00405721
0.00681444
0.000790383
0.000415601
0.000424284
0.00160848
0.00503292
0.0055968
0.00639954
0.00200247
0.00349918
0.000860818
0.000833171
0.000792132
0.000530348
0.000790291
0.00156476
0.00645147
0.000737861
0.00739758
0.000318897
0.00390475
0.00074751
0.00444167
0.00158483
0.00536338
0.0028368
0.00224757
0.00225489
0.00418338
0.00559503
0.00398869
0.000836088
0.000975887
0.00500266
0.00516265
0.000456848
0.000486487
0.00343714
0.00151131
0.000804509
0.00152781
0.00438233
0.00638849
0.000923987
0.000837924
0.00142216
0.00703123
0.00138845
0.00586267
0.000852641
0.00110784
0.000624275
0.00224525
0.00538407
0.00137995
0.00625287
0.00459681
0.00364851
0.00204381
0.00506723
0.00337244
0.00395337
0.00370523
0.00399539
0.00587679
0.00591351
0.00309297
0.00631462
0.00535027
0.00406779
0.00384858
0.0014189
0.0036819
0.00231756
0.00394797
0.00440679
0.00410762
0.000896939
0.00332275
0.00321361
0.00176933
0.000533705
0.00406378
0.00483264
0.00284504
0.000899122
0.00181969
0.00119067
0.00432221
0.00598532
0.00398112
0.00325753
0.00510538
0.00327136
0.00302653
0.00349678
0.00646033
0.00431943
0.00410655
0.00424931
0.00305884
0.00397947
0.00356012
0.000614835
0.00331299
0.00385586
0.00398708
0.00279502
0.00102606
0.0031415
0.00346258
0.00430237
0.00300428
0.00114268
0.00104532
0.00367892
0.00312095
0.000353236
0.00146801
0.00201578
0.00398058
0.00145303
0.00306447
0.00392459
0.00243918
0.001049
0.00464199
0.00398881
0.00295558
0.00613045
0.00231594
0.00263191
0.00301388
0.00332891
0.00194432
0.00390524
0.0058416
0.00654494
0.00164061
0.00315882
0.00364812
0.00598769
0.00468078
0.000754866
0.00293936
0.00332165
0.000419964
0.00162035
0.00546213
0.00338416
0.000937147
0.00153985
0.00222207
0.00662274
0.00288527
0.00096163
0.00442604
0.00676508
0.000637375
0.00168052
0.00124511
0.00221745
0.00470855
0.0043333
0.00147169
0.000568112
0.000740721
0.0048399
0.00500596
0.000571014
0.00462632
0.00180229
0.00305078
0.00146225
0.000914231
0.00470972
0.00327074
0.0011104
0.00393912
0.00519032
0.00438864
0.00353638
0.00527482
0.00082452
0.000277225
0.00317773
0.00351153
0.000674479
0.000486684
0.000641725
0.0018938
0.00102396
0.00183738
0.000502058
0.00352553
0.00353175
0.000849444
0.00210791
0.0021414
0.00115122
0.000960259
0.000422995
0.00518075
0.00478485
0.000696326
0.00639065
0.00417908
0.000759513
0.00501108
0.00324868
0.00387755
0.00271314
0.0049422
0.005854
0.000438478
0.000636364
0.00246156
0.000625962
0.00235801
0.00343474
0.00422436
0.00410437
0.00317794
0.0041246
0.00475731
0.00373679
0.00414463
0.000624571
0.000579358
0.00381052
0.00156516
0.00382122
0.00417949
0.00248421
0.00347921
0.00358993
0.00423282
0.000377108
0.00101381
0.00414301
0.000557041
0.00277606
0.0013646
0.00272858
0.00329514
0.0012374
0.00277801
0.00100101
0.00279108
0.00288373
0.00288411
0.00583395
0.0011119
0.00669847
0.00509922
0.00219191
0.00419651
0.00138283
0.00320909
0.00229093
0.00337998
0.000794644
0.00373402
0.00340577
0.00362571
0.00659159
0.00580455
0.00296024
0.00182905
0.000424548
0.0026869
0.000747969
0.00293424
0.00413484
0.00515979
0.00426094
0.00463768
0.00407955
0.0033158
0.00113446
0.00197984
0.0011103
0.000575829
0.00268805
0.00397013
0.000156053
0.000774858
0.00605517
0.00625281
0.00114176
0.00373732
0.00066237
0.000426777
0.00265301
0.000692185
0.0012223
0.0026296
0.000691258
0.00155389
0.0052073
0.00348346
0.000953596
0.00120689
0.0055379
0.000889935
0.00592148
0.00262926
0.00399322
0.00261831
0.00169338
0.00076549
0.000929104
0.00589206
0.00568904
0.000223467
0.00653217
0.00440279
0.00110777
0.0053401
0.00270344
0.00414896
0.00291889
0.000508287
0.00131278
0.000908129
0.00160929
0.00315235
0.0010195
0.00536699
0.00451722
0.000933215
0.00627839
0.0035422
0.00260481
0.00485115
0.00119121
0.00060796
0.00628335
0.00214319
0.00653836
0.000686752
0.003694
0.000543642
0.00274316
0.00328979
0.00504299
0.00242685
0.0026408
0.00581489
0.00387277
0.00311836
0.00649877
0.00138142
0.0031627
0.00342427
0.00596299
0.00358142
0.00341322
0.00224059
0.00281915
0.00198304
0.00289822
0.00317813
0.00341305
0.00132228
0.000525108
0.000738292
0.000661878
0.00106248
0.000787099
0.000826705
0.0024724
0.000183315
0.000631776
0.00177615
0.00162384
0.00234855
0.000911402
0.000924292
0.00204096
0.00147014
0.00198366
0.00577966
0.00236103
0.00198119
0.00366235
0.000867137
0.00335034
0.000649313
0.00175198
0.00108081
0.00134344
0.00139952
0.000666179
0.00168333
0.000572904
0.00257819
0.00328825
0.00364139
0.00149715
0.00478134
0.00520672
0.000859778
0.00318493
0.000919903
0.00174257
0.0050225
0.00231581
0.00381593
0.00143312
0.00111323
0.00598875
0.00474854
0.00150995
0.000916725
0.00359414
0.00263485
0.00127025
0.00101629
0.00394269
0.00650788
0.00379487
0.00389861
0.000673605
0.00671152
0.000829354
0.00034946
0.0047885
0.00227269
0.00394501
0.00303296
0.000840359
0.00272707
0.000754483
0.00310241
0.00408722
0.000473565
0.0010182
0.00497014
0.00227223
0.00493293
0.0061627
0.00125289
0.00353309
0.000705438
0.00348874
0.00585764
0.00263065
0.0059389
0.00461407
0.00492536
0.00440543
0.00268888
0.00183432
0.00134042
0.00500902
0.00100058
0.00498226
0.00616423
0.00212403
0.00117105
0.000761917
0.000801909
0.00189973
0.00191169
0.000996693
0.000844963
0.000821618
0.00078894
0.00273315
0.00296854
0.0038242
0.00133441
0.00481437
0.00252045
0.00303801
0.00122545
0.000487509
0.00348142
0.00264968
0.00347541
0.00402143
0.00333285
0.00314364
0.00540711
0.0042794
0.00254736
0.00276786
0.00259255
0.00507153
0.00282624
0.00153745
0.000703141
0.00413952
0.000530931
0.00744378
0.00261164
0.00684125
0.00437977
0.000824396
0.00266363
0.0010574
0.00351265
0.00330902
0.00308343
0.00423016
0.00444447
0.00409348
0.00303679
0.0146457
0.00703257
0.000717809
0.00271478
0.00111579
0.0027265
0.00105465
0.00532714
0.00440354
0.00326334
0.00371191
0.00282958
0.000899157
0.00600804
0.00435694
0.00110947
0.00246715
0.00243077
0.0023563
0.00243944
0.00215651
0.00200696
0.00447857
0.00720258
0.00612505
0.00189018
0.00135351
0.00433559
0.00047101
0.00686621
0.00162543
0.00636507
0.00574251
0.00168974
0.00435071
0.00635542
0.000873149
0.00742105
0.00393736
0.00128042
0.00410511
0.00640294
0.00117034
0.00628671
0.00710285
0.000988276
0.00256736
0.00284211
0.000694561
0.00682891
0.00173016
0.00120406
0.0015515
0.000854882
0.0011072
0.00396244
0.00582477
0.0027375
0.00557386
0.00166054
0.00278898
0.00470957
0.00527372
0.00348112
0.00112246
0.00292332
0.00411421
0.00370798
0.00336497
0.00230414
0.00738817
0.00209993
0.00101214
0.00351975
0.00311229
0.0042306
0.00359378
0.00264571
0.00432331
0.00211454
0.00307036
0.000569317
0.00361469
0.00696644
0.000903445
0.00286875
0.000637361
0.000922419
0.00654264
0.00322851
0.00111075
0.00309252
0.000652123
0.00131346
0.000555347
0.00131715
0.000626118
0.00299732
0.00134981
0.00149643
0.000500406
0.0010476
0.00278317
0.000619006
0.000679384
0.00291267
0.000319036
0.00111568
0.00484283
0.00309221
0.00138875
0.000856161
0.00689398
0.0035903
0.000891554
0.000672019
0.00102522
0.00117159
0.00144591
0.000744039
0.00268331
0.00356354
0.00412362
0.00634154
0.00300395
0.00598238
0.000918084
0.00289734
0.00421885
0.000620858
0.0036465
0.00224788
0.00404602
0.00562626
0.00306554
0.00394868
0.00173978
0.00586649
0.00160606
0.000568694
0.00442011
0.00575227
0.00312994
0.00451988
0.000989489
0.00412538
0.00488175
0.00530833
0.000517621
0.00577763
0.00320848
0.00603972
0.00152874
0.00294379
0.00414731
0.00557949
0.00476224
0.00157243
0.00338774
0.00241379
0.00711801
0.00644933
0.00624663
0.00459187
0.00426857
0.00340407
0.00573742
0.00322077
0.00353516
0.00215409
0.00113654
0.0010078
0.00293265
0.00160865
0.0040935
0.00254538
0.00344604
0.00366252
0.00594591
0.0031155
0.00419166
0.00584826
0.0019837
0.00442395
0.00289405
0.000970353
0.00455696
0.00262911
0.00106585
0.0033921
0.00103421
0.00168366
0.00110447
0.000305809
0.002666
0.00478614
0.00222912
0.000413831
0.00224088
0.0065779
0.00566172
0.00455412
0.00313018
0.00421996
0.00665552
0.0067829
0.00331933
0.00265793
0.00698553
0.00633288
0.00691046
0.00481201
0.00260242
0.00157894
0.00285353
0.00571517
0.00316546
0.00085928
0.00491433
0.00557637
0.0040087
0.00057308
0.000571734
0.0037487
0.00539699
0.00423511
0.00266651
0.00377937
0.00103228
0.00156513
0.00452723
0.00395189
0.00518064
0.00326756
0.00165466
0.00444973
0.00313017
0.00332013
0.00118295
0.00190677
0.00149008
0.000857454
0.000198397
0.00194037
0.00186616
0.00395543
0.00369653
0.00319685
0.00315323
0.00516652
0.0041174
0.000448928
0.00582845
0.00172833
0.000515378
0.003208
0.00288725
0.000695472
0.00191954
0.00382875
0.0036937
0.00688982
0.00285382
0.00101316
0.00371016
0.00136238
0.0083826
0.00238049
0.000706594
0.000785927
0.00308105
0.00275202
0.000968319
0.00425771
0.000620266
0.000539799
0.0011314
0.00741959
0.00614746
0.000310441
0.00530264
0.000484195
0.00179901
0.00294224
0.00100929
0.00139823
0.00573582
0.00675964
0.000901718
0.00575225
0.0055423
0.00444009
0.00596501
0.004208
0.00324847
0.00193054
0.00513459
0.00033634
0.00300251
0.00337168
0.00362628
0.000286283
0.00394253
0.000522405
0.00441063
0.00273014
0.00340391
0.001002
0.00559036
0.00383003
0.00450564
0.000946478
0.001707
0.00168351
0.00122607
0.00257703
0.00572864
0.000754548
0.00323759
0.00309846
0.00327873
0.00494968
0.00294888
0.00381847
0.00717955
0.000338857
0.00114867
0.00410449
0.0044631
0.0031853
0.00357242
0.00258033
0.00252209
0.00418835
0.00216741
0.00403199
0.00450232
0.00408267
0.00149794
0.00432352
0.00410072
0.00420137
0.0033244
0.00675456
0.00536793
0.0043596
0.00271596
0.00376885
0.00267373
0.00250586
0.00338298
0.000839788
0.00456074
0.00242223
0.00174274
0.00108064
0.0014204
0.00348123
0.00866737
0.00167509
0.000843822
0.00387762
0.0010394
0.0039155
0.00663388
0.0025986
0.00168761
0.00372776
0.00389715
0.006521
0.00445994
0.000328177
0.00444103
0.00607496
0.00218636
0.000488629
0.000437277
0.00316285
0.000282764
0.00148607
0.00111304
0.0020223
0.00132706
0.000475404
0.00432851
0.000652714
0.00379311
0.00447683
0.00812361
0.000441649
0.00190529
0.00634183
0.00527777
0.000948653
0.00356468
0.000440713
0.00536282
0.00283186
0.00371093
0.00282793
0.000600423
0.0068915
0.00308553
0.00275649
0.00496335
0.00358604
0.00515578
0.00274005
0.000429056
0.000428621
0.000775661
0.00130867
0.00123125
0.0053152
0.00563999
0.00472739
0.00354554
0.00637151
0.0012944
0.0068555
0.00079928
0.00409837
0.00597523
0.00530755
0.00462135
0.0060667
0.00313877
0.00288365
0.00720339
0.00300817
0.000806224
0.00472833
0.000933148
0.000897756
0.00597837
0.000316687
0.000518304
0.00268126
0.00283526
0.00342731
0.00113334
0.00463161
0.00181506
0.00111311
0.00491974
0.00148996
0.00669699
0.00186091
0.00385819
0.00216365
0.002222
0.000850444
0.00332799
0.0035712
0.000595246
0.0011805
0.00180929
0.00133777
0.00566128
0.00282587
0.00381092
0.00169409
0.00310307
0.00612336
0.00118697
0.00246132
0.00225849
0.00646391
0.000545694
0.00076617
0.000521268
0.00514623
0.00360894
0.000791142
0.000491384
0.00215643
0.00353324
0.0024725
0.000956479
0.000577504
0.00158828
0.00561564
0.00688719
0.00417584
0.0044217
0.00399028
0.0005149
0.00477138
0.00154334
0.00306882
0.00632317
0.00255788
0.00249641
0.00517465
0.00385116
0.00569054
0.00227204
0.00229785
0.00468802
0.00669126
0.00227914
0.00266345
0.00264486
0.00189396
0.00201146
0.00353569
0.00548455
0.00533802
0.00493452
0.000695848
0.00335551
0.000856865
0.00192979
0.00346231
0.00455136
0.00312946
0.00703526
0.00238474
0.00747109
0.00188412
0.00231
0.00358892
0.00395667