/*--------------------------------*- C++ -*----------------------------------*\
| =========                 |                                                 |
| \\      /  F ield         | OpenFOAM: The Open Source CFD Toolbox           |
|  \\    /   O peration     | Version:  2506                                  |
|   \\  /    A nd           | Website:  www.openfoam.com                      |
|    \\/     M anipulation  |                                                 |
\*---------------------------------------------------------------------------*/
FoamFile
{
    version     2.0;
    format      ascii;
    arch        "LSB;label=32;scalar=64";
    class       volScalarField;
    location    "0.0882685";
    object      omega;
}
// * * * * * * * * * * * * * * * * * * * * * * * * * * * * * * * * * * * * * //

dimensions      [0 0 -1 0 0 0 0];

internalField   nonuniform List<scalar> 
47425
(
59.2593
66.3512
70.3298
157.083
149.234
69.3474
99.0506
98.6839
49.394
535.493
133.242
43.6288
72.2342
77.7417
94.2314
85.9817
67.1736
46.9253
1369.4
199.186
82.639
43.0494
101.399
61.3712
44.1796
42.9112
75.8821
682.808
68.5319
53.894
42.0903
44.2264
47.7433
67.3064
55.4496
65.0045
42.6106
67.5566
65.0896
73.0255
70.1588
140.575
215.427
144.994
1751.16
100.175
93.4312
77.6017
77.2419
46.0693
566.191
240.441
48.1233
679.154
110.088
120.938
44.1619
57.0507
76.979
59.7863
822.285
1241.21
732.348
43.1075
49.3524
44.0924
61.4042
87.5165
767.507
43.634
77.2342
51.9311
48.6121
88.6414
555.94
49.4036
756.616
79.1008
1331.13
286.779
579.972
63.8219
42.1064
46.9233
65.9206
79.9048
54.0352
54.3012
130.074
405.959
42.6184
74.3558
40.0056
113.601
145.842
192.602
46.2285
52.2942
86.8467
77.352
60.085
91.1544
51.2632
95.1385
49.0099
52.2152
53.9707
92.2799
84.6936
43.5816
319.825
61.7586
77.441
153.438
42.5849
864.152
41.8517
225.418
75.9803
61.1323
78.8376
48.5449
58.0936
62.3407
95.0702
58.9134
83.3399
49.1901
103.662
40.4307
44.0344
92.4146
123.28
116.539
123.381
67.9903
47.257
62.3935
67.6468
94.7467
70.9426
125.631
68.784
98.5533
50.5418
49.3287
122.737
62.6852
147.219
72.3635
100.054
498.12
48.7557
682.569
45.7272
82.0679
58.7252
870.736
88.8187
69.3917
43.0408
42.5196
49.0525
44.8879
432.987
793.083
45.4443
569.905
104.611
719.169
638.054
82.7836
73.8617
45.1779
69.3043
65.5752
718.666
68.6547
51.6318
41.5503
969.17
49.8923
59.0274
44.6639
44.9269
48.3743
55.6203
74.2111
146.611
58.0164
47.9245
70.6072
81.4884
77.0217
44.3399
41.3591
61.8692
69.8841
42.2907
82.3773
64.9228
122.5
81.6309
41.7426
48.6991
157.334
52.0443
41.5866
86.5484
48.4399
62.0855
65.0154
47.2036
92.215
63.4576
62.9069
75.6147
266.067
45.9637
92.8886
299.953
118.36
146.019
94.8906
164.83
253.733
43.9674
126.662
47.1506
61.6367
71.0619
70.3237
99.6931
49.3224
162.588
90.2348
348.178
108.111
291.157
178.442
82.0691
58.8871
40.6831
99.5196
43.8832
49.4523
67.3973
60.6006
42.31
75.4636
41.239
234.682
65.5167
49.2833
90.1643
40.7399
43.6755
118.233
92.4995
48.3484
122.863
47.2051
77.6421
133.355
72.6144
87.7277
42.5296
72.6962
62.0684
80.6621
78.8588
254.895
332.4
47.9014
240.124
176.842
240.761
108.28
315.49
180.842
830.829
58.7979
807.573
120.439
77.8917
82.7262
102.01
89.2149
88.8357
44.0915
623.187
42.542
50.3438
55.366
66.3799
94.9958
108.431
45.7365
64.6276
54.9152
84.3142
43.1116
82.6978
59.2719
840.594
999.387
648.896
40.6123
47.2489
42.3813
96.8493
673.512
84.2891
113.541
307.705
70.7332
102.791
120.313
91.8693
461.64
266.284
42.3078
59.1999
46.3993
78.559
41.9662
76.5776
62.82
52.1901
70.3158
82.0507
742.156
55.2866
72.6097
129.126
40.8964
737.31
49.2478
44.8465
51.7197
43.1976
43.5778
45.8277
50.9432
51.23
49.0874
58.0636
45.5483
82.1318
80.3293
44.1647
44.4049
60.5952
45.4459
45.4056
45.4941
78.3041
42.0166
46.865
93.398
53.3104
60.0106
74.4339
92.7645
47.4806
47.902
128.277
48.2153
66.0037
43.2144
126.736
829.782
76.8565
42.2048
200.232
42.2256
112.596
92.9364
72.5498
42.7765
63.5008
43.0649
41.812
73.7856
83.2704
82.8565
80.9998
51.5056
48.7482
80.1036
47.5099
45.7138
77.8587
56.3859
63.9629
47.6139
61.4303
85.6925
69.4154
48.1436
487.293
43.6984
447.365
67.1727
102.312
99.4648
45.4369
142.957
44.7011
90.8342
45.4641
457.495
361.194
42.4162
48.9594
78.1942
83.7555
81.2074
72.588
79.066
87.2764
65.1315
46.7996
98.5315
69.7631
46.9267
97.5566
76.3205
51.4839
146.303
1119.21
44.0001
281.384
925.95
88.1824
948.005
681.675
46.367
78.1833
73.986
77.1521
599.026
83.6631
48.8972
47.3264
73.2282
73.6072
77.8711
78.7312
520.349
660.435
154.637
65.5407
72.1751
126.284
57.1801
42.695
68.0525
42.2334
83.9822
75.8097
132.705
68.6613
49.3502
79.3003
58.7521
74.4123
42.3001
63.7707
65.7002
66.6386
63.5368
108.523
115.627
61.3239
80.2724
42.2573
589.429
129.862
75.2834
46.3424
129.798
250.113
45.8192
41.5525
45.9607
47.2993
67.2749
48.3028
101.349
83.0993
46.7406
54.8768
137.421
97.8592
46.2281
48.8584
56.7371
52.7185
49.2091
50.1681
42.8774
67.6566
59.1808
107.5
60.3865
44.7117
44.2491
42.0566
71.9655
123.232
43.3828
40.558
57.3156
61.477
57.8015
58.3175
66.803
71.4673
50.784
76.9238
100.902
424.712
59.5379
67.5209
52.3109
49.345
138.186
135.689
73.564
51.737
77.4785
108.897
46.2289
147.154
48.4578
258.721
46.3972
49.7791
57.3536
131.344
39.679
71.0167
71.6135
74.6193
41.5939
50.921
1100.44
61.6793
141.263
43.9406
101.877
46.1646
57.8347
86.6758
72.7147
67.8948
43.642
376.916
54.1434
57.6393
55.3042
47.0311
43.1988
57.0132
122.631
48.122
73.0342
66.469
41.864
281.094
43.4446
66.8206
454.59
69.6794
40.9256
320.688
598.03
42.0237
624.154
655.032
68.8519
46.5983
51.0054
43.001
84.9619
84.9619
715.626
42.1925
121.874
48.2649
120.594
55.6979
85.3081
65.1579
454.9
296.356
50.9723
92.5857
99.9685
83.1685
118.851
122.137
47.6269
95.5684
132.906
97.7364
67.4381
141.186
50.3501
47.0597
141.52
91.7516
76.4145
115.688
98.3254
67.1474
73.418
62.5766
52.8153
67.6215
45.9325
51.8954
1285.12
61.5572
79.3377
1040.25
1019.97
40.9267
76.1143
1561.58
163.554
94.8534
319.22
119.462
761.493
58.7021
47.3314
60.046
176.796
113.729
112.841
45.4164
115.75
66.4795
81.5477
47.7101
77.4257
57.8442
466.288
717.218
118.149
48.2285
83.7099
41.9474
109.457
47.4195
58.2113
63.5012
65.0526
43.5833
169.607
75.5044
46.7937
65.6858
180.455
575.547
240.98
83.5623
41.8424
73.6452
41.9554
645.895
68.2034
677.901
81.3984
116.048
65.9698
66.8619
57.6945
86.4071
53.6779
87.0883
56.5985
204.51
90.8377
49.2336
72.8212
88.1934
402.011
65.9889
199.799
69.3896
48.664
43.4117
136.261
79.2522
72.698
45.9283
61.4464
67.3931
70.0009
79.7955
77.6335
63.7291
125.087
194.992
69.6588
97.6587
66.1415
109.411
88.6684
47.1629
146.477
60.5851
77.0101
75.8752
43.6502
293.586
412.14
91.8944
65.9123
45.4007
88.8726
55.4788
130.998
42.647
287.885
77.7379
42.6755
74.718
45.378
57.7565
68.0094
49.3615
87.0183
40.5177
45.5185
48.2012
163.716
40.2962
335.231
289.872
270.308
372.428
75.9279
228.278
59.1279
45.4049
142.044
306.133
403.033
103.863
62.1749
141.532
111.365
166.645
124.227
92.2975
54.9146
68.8044
107.236
111.991
54.7934
78.7449
271.52
56.2052
62.7076
153.541
117.77
113.734
185.778
744.178
468.283
217.535
240.145
80.6898
116.793
43.0907
44.8458
69.251
415.051
170.258
69.0721
70.9481
40.8524
361.489
415.318
40.81
165.121
87.0843
40.7703
161.646
40.6233
41.7306
70.9655
70.2861
82.2937
46.3636
41.0926
59.8612
67.3863
65.9558
135.567
107.609
41.702
236.858
47.3373
45.9576
46.6922
189.276
77.2805
190.623
117.401
53.6372
42.5483
66.9732
1424.99
69.2561
79.733
68.6939
62.8863
61.1333
110.007
114.944
127.943
298.43
99.3155
821.556
49.4171
64.388
56.257
65.7902
44.4627
161.446
120.942
43.5687
279.569
91.9667
71.5681
230.791
78.352
54.3061
68.2566
69.8244
67.5984
109.691
308.569
65.0314
73.934
203.412
216.596
683.981
211.331
85.8022
167.393
43.7006
45.9393
109.206
192.829
85.0254
82.0414
89.46
101.531
47.8178
67.9356
100.199
97.2737
88.357
349.412
447.663
89.2152
160.299
198.786
609.817
266.953
197.806
90.8268
67.1584
96.5893
90.0293
255.353
45.1688
47.1962
96.4885
356.283
117.5
78.5267
96.1099
52.6888
107.212
125.218
78.6074
534.513
53.3361
65.0945
131.331
97.258
65.4224
66.1373
104.734
107.14
87.0201
56.4376
120.289
43.7243
43.7831
43.8505
77.9755
56.7603
145.364
52.3928
209.974
279.221
260.579
98.3746
83.7016
43.9335
70.3024
112.643
486.481
258.251
741.521
44.4612
57.6741
54.4111
296.942
87.0829
310.475
234.684
228.674
133.57
213.993
88.7289
84.1593
71.3777
45.6828
129.025
66.4368
75.4969
264.906
68.6499
68.689
50.3166
265.219
378.063
150.51
209.995
644.611
187.962
88.4142
66.2557
88.0528
101.669
180.535
184.303
342.407
45.3531
58.0637
70.8146
47.817
61.4873
100.092
93.3206
54.2633
123.508
52.0087
75.1909
49.8444
47.2952
121.372
67.8097
110.418
43.3449
44.4337
158.561
45.2988
96.898
102.432
43.2495
62.4856
94.6148
78.647
68.8131
78.7916
452.811
181.126
122.028
104.685
1839.75
1050.27
588.278
432.448
99.1395
49.0755
1291.35
389.074
52.9387
62.532
104.537
86.7438
395.413
135.771
44.0526
110.836
58.9848
49.6574
199.392
950.688
136.036
1242.81
149.491
249.982
640.304
58.621
75.26
131.644
352.618
90.3774
44.4319
45.1445
736.06
124.273
378.564
72.0575
158.024
47.1311
52.1462
486.468
509.702
80.4191
50.9243
76.7923
585.219
42.8643
51.3021
411.257
481.891
72.5919
42.8245
1027.66
648.488
570.419
98.4811
314.184
500.79
652.631
78.8552
86.1162
110.386
63.4915
104.524
485.17
1327.25
64.1237
60.3493
58.7214
51.2841
45.8847
80.5051
119.457
65.5143
49.5561
47.4509
98.4682
421.384
1227.99
50.1534
224.681
106.817
71.5253
157.598
56.9601
89.1667
75.0425
45.294
196.487
52.8347
537.097
42.3058
775.665
394.877
658.724
200.47
102.126
61.5547
102.023
76.5601
221.599
1453.29
102.926
396.352
174.028
513.107
162.956
739.871
630.857
89.0094
83.743
1723.58
88.033
48.7025
71.9166
686.825
1133.06
78.0756
51.6952
489.182
75.3248
543.961
756.64
106.334
110.377
822.972
101.896
43.442
627.641
50.4207
384.989
971.715
42.0209
68.6248
82.2443
56.4835
121.287
99.589
41.6
119.882
88.055
115.955
57.5037
41.9318
208.927
233.344
573.082
49.7393
91.923
240.886
44.6009
847.268
84.9307
109.351
150.048
424.747
85.6329
323.395
180.056
145.316
56.6917
451.981
221.376
242.199
89.0305
161.652
62.0734
76.0303
74.3002
354.159
191.713
112.714
706.863
150.1
108.556
240.971
118.903
139.959
676.433
229.86
74.9714
151.698
83.8617
148.415
308.268
576.702
58.0528
44.9087
62.3939
437.709
63.5153
289.073
57.6534
62.3141
47.654
160.845
53.9015
201.747
324.019
53.281
59.3714
90.3364
78.4499
947.847
398.079
113.827
749.132
354.073
121.981
218.637
64.2451
55.7113
721.081
55.7972
341.26
374.41
44.2227
57.7645
121.239
96.2745
56.2585
70.2855
170.834
70.6424
76.6833
65.2974
79.1599
252.354
65.4637
185.427
151.395
251.722
54.5449
717.044
441.374
53.4346
595.263
254.771
56.18
102.795
582.511
213.051
45.416
186.608
503.761
209.049
589.144
56.219
581.548
119.537
54.2651
68.9073
105.996
192.255
116.919
64.3485
220.588
51.3469
231.416
104.6
1332.27
140.45
79.6706
114.811
273.437
54.9523
304.136
113.946
105.44
553.757
77.1068
77.6023
1188.81
42.7474
100.73
371.061
61.337
329.903
403.29
148.614
68.6374
81.9043
922.712
206.136
519.377
216.758
76.7834
69.7013
98.7492
688.012
641.013
311.04
86.9949
48.2483
83.9855
85.0262
128.35
322.348
92.4549
55.4392
61.6616
60.539
44.0689
85.0074
42.7782
46.813
118.639
78.1581
44.6849
126.088
243.809
59.1668
46.5987
128.056
63.7117
48.1053
53.7874
96.9032
92.1813
48.5463
96.9013
478.631
87.5091
48.3404
53.9821
42.2239
253.679
65.9725
52.0935
582.689
425.493
289.697
46.5501
567.827
146.684
73.7082
864.269
89.6024
844.868
89.6989
66.2871
81.415
66.6255
43.1274
81.2599
82.6633
88.8694
111.276
87.3905
101.606
166.389
78.7946
82.9027
436.885
86.5146
1457.74
70.9889
694.158
46.2568
116.564
171.95
50.8153
66.7302
189.863
42.4959
441.607
337.681
1088.85
50.1512
609.204
59.8146
106.239
184.854
60.8609
588.384
89.9791
292.939
77.0761
750.124
684.125
78.3254
41.9939
429.472
66.3875
435.126
85.0373
93.462
68.711
71.4524
55.1959
42.9333
87.6576
310.303
75.5921
176.455
80.1126
86.8692
40.4992
154.654
307.067
88.3149
253.989
136.41
68.385
118.012
76.2884
72.6789
54.4334
145.914
129.078
48.5681
83.9594
81.1234
64.8757
91.7922
311.548
299.01
78.226
86.8583
342.089
85.8479
51.5047
63.0182
46.3752
160.299
163.197
203.932
104.429
67.9672
73.4438
63.2345
56.6231
58.1446
56.9898
484.131
129.4
654.939
514.506
627.954
58.0211
66.3028
73.1425
69.9875
47.2135
326.312
80.6273
45.8755
76.0537
111.508
76.8975
259.705
75.9563
154.629
117.785
93.583
48.3712
68.6911
86.1828
84.9659
66.5077
109.193
96.1656
185.727
85.3328
68.9088
78.4158
146.429
165.141
64.1024
77.6634
131.299
94.3333
167.221
50.053
56.3746
132.755
67.6903
53.7837
73.7601
42.9702
54.1585
87.2464
71.8054
362.715
69.93
88.7904
49.8699
68.5859
594.24
76.9521
83.3894
59.0663
59.1515
85.2174
84.2577
908.001
106.557
308.016
50.2242
59.0219
69.7886
40.8473
47.5538
107.72
78.4152
47.5711
44.0614
318.705
106.563
511.354
116.314
263.984
104.063
77.7019
108.771
486.176
178.743
93.6509
76.4147
921.899
62.7158
77.8417
83.2122
79.8117
73.7863
910.104
65.3157
87.3924
46.7616
119.645
54.2819
880.884
973.97
65.3559
52.5312
42.3067
87.0609
90.2458
59.8023
1135.81
616.212
62.978
134.498
484.737
63.3952
209.154
124.296
42.2822
60.3281
46.2529
71.9535
210.296
82.7103
75.5248
43.8231
54.9252
72.8041
48.6131
352.25
63.4604
145.901
175.852
426.031
351.55
99.129
134.642
77.0325
133.154
115.259
42.3429
592.431
355.514
131.227
87.9346
106.053
87.1573
84.8897
221.997
40.6685
44.431
62.1877
65.012
135.565
72.4132
348.373
385.105
44.3658
131.226
42.4221
42.0735
80.2626
60.137
61.8567
53.4267
40.8561
220.18
323.291
41.242
75.2044
273.29
362.814
47.1946
41.4489
102.311
182.892
903.543
91.0785
395.787
323.347
602.184
390.464
72.1072
48.4613
41.6177
58.4301
934.773
55.9532
85.6803
78.9327
40.5446
615.38
1025.83
1004.33
192.05
242.369
49.4964
44.6963
53.3052
82.7996
652.466
538.332
404.392
532.078
380.599
53.3283
47.4907
836.93
47.8091
879.681
95.2421
877.063
79.4162
151.177
118.507
173.187
169.166
169.716
158.618
63.0044
88.7167
68.5056
64.647
72.1045
66.0451
1280.7
713.637
89.9067
362.313
587.346
354.863
66.4106
44.4386
554.662
489.695
528.053
42.474
773.71
49.3051
1002.01
552.378
663.928
295.941
52.3143
62.1984
45.3341
71.0976
88.4765
173.277
78.5379
83.7015
74.6254
92.373
76.8908
47.5387
46.5012
124.453
44.0057
50.9497
76.5274
100.652
96.9887
84.2999
148.132
88.709
76.4519
126.342
95.858
88.0477
90.7705
147.711
976.953
58.7754
318.933
68.6278
87.9159
506.628
63.0693
57.206
46.4716
114.551
92.6344
53.4709
107.014
98.3635
81.6831
45.6325
65.3133
81.4132
71.68
101.372
72.0651
95.4377
273.967
87.2528
78.0731
73.3218
107.572
76.5235
353.453
43.2402
66.1295
103.214
328.028
244.123
88.0532
98.5582
919.013
225.942
183.488
88.9755
71.4771
108.042
86.5572
53.8791
126.697
76.8125
85.9003
425.643
49.3996
161.48
125.906
106.949
106.183
200.986
76.4902
57.6078
43.1379
52.864
97.7628
78.4887
398.109
61.54
92.0277
127.91
103.532
844.027
56.1989
120.605
104.744
267.846
412.548
140.825
42.4619
134.855
64.5934
44.8234
41.8637
543.768
99.3801
56.7801
421.914
130.406
67.5495
142.937
663.902
1102.77
180.83
71.7647
707.557
99.9509
270.125
144.128
602.958
234.814
123.762
92.3108
499.728
90.2776
69.7115
85.2488
98.7102
53.4982
61.9565
339.911
43.762
99.5373
532.507
154.987
563.177
88.7873
438.029
48.0284
1138.21
105.892
106.079
658.505
250.568
312.126
482.724
455.201
259.538
82.854
83.0272
421.347
55.532
84.2314
321.768
66.3185
56.1536
76.2548
168.707
69.6921
49.3502
727.808
478.456
192.585
258.325
164.41
91.5601
79.8782
80.1341
110.087
78.7329
56.6808
85.0495
63.6221
259.259
269.007
122.445
54.0712
105.374
82.2525
128.065
104.195
96.4026
78.1736
261.733
58.2448
67.5743
248.454
130.549
598.957
205.675
97.3263
673.202
136.569
111.526
374.252
133.254
127.55
49.2502
498.78
41.3267
55.6833
50.0094
84.5351
67.1527
98.2184
250.985
104.64
119.432
78.7649
110.523
99.2054
41.7844
364.987
159.741
565.929
1004.74
107.145
389.216
153.215
68.2845
393.029
66.7197
60.3572
109.005
128.766
695.678
500.915
53.6595
316.834
348.77
95.9251
1919.71
397.565
165.171
344.459
61.4589
88.3851
241.122
334.359
145.657
722.851
52.92
51.5189
154.394
50.0844
47.874
106.157
323.127
534.851
49.4472
136.978
42.7924
144.355
62.2577
143.754
331.305
93.4148
324.593
59.6357
63.3987
759.805
43.3183
53.2239
102.844
53.2589
120.283
260.973
45.7407
927.35
547.572
848.106
494.079
119.396
66.224
52.1985
61.2617
85.4327
45.5133
83.3556
147.901
60.8132
69.0822
649.741
45.0882
170.38
43.3397
136.822
71.3305
721.611
126.608
120.664
44.6366
126.979
149.942
48.4767
59.3984
95.834
43.3207
195.055
95.3926
102.854
54.7293
44.4342
100.22
45.6575
125.211
470.165
43.3661
74.6548
50.1572
62.2057
254.976
213.42
121.885
459.541
860.809
256.733
83.0156
388.218
289.206
627.492
74.4522
213.069
265.136
340.116
317.305
785.677
53.729
43.943
212.985
643.936
52.9784
417.096
123.037
433.67
80.0454
64.4743
672.905
613.89
261.668
56.5955
247.057
129.378
341.303
43.6367
197.647
62.908
55.5493
93.9632
93.9183
285.995
98.8776
63.3343
159.507
78.2988
282.571
433.183
42.7459
82.6897
52.9565
839.719
99.0552
129.915
229.905
136.366
70.4806
43.0835
89.8342
74.5426
521.498
42.3097
104.16
310.27
63.4987
49.3788
76.0008
72.501
669.945
135.942
209.591
93.5555
72.4074
914.563
524.635
59.0823
141.008
59.2396
46.63
416.599
97.8567
536.482
56.1421
49.2415
92.663
60.0062
46.3046
60.0039
70.9711
134.348
270.765
222.278
347.468
68.4913
69.6664
46.465
168.649
613.459
937.133
66.3604
368.109
176.467
688.718
75.6103
340.165
108.374
182.089
128.258
79.5781
252.584
77.9111
191.946
112.214
59.3731
1004.85
107.579
440.728
107.394
77.6855
108.105
173.929
71.3683
66.8577
403.767
102.967
119.051
56.4047
122.04
452.723
123.704
78.9248
154.826
46.4689
62.6823
43.6044
74.2894
76.0097
146.122
68.2388
90.8547
95.0952
74.2397
74.0002
62.7943
72.0623
59.6585
432.071
48.4377
106.016
47.7337
66.3171
119.423
71.3447
52.7064
77.1656
97.2645
84.8489
123.923
341.927
45.9474
186.779
410.533
158.581
156.245
50.1029
156.802
92.2793
352.81
63.7067
43.5153
51.8713
177.72
54.0911
64.8605
855.04
226.141
384.927
44.1241
49.9369
193.701
81.1296
55.6366
134.338
49.1072
77.4281
53.6944
391.659
44.1084
152.949
44.3699
42.7088
74.2367
66.2129
131.332
106.015
41.723
313.198
62.6948
66.0648
87.5041
806.919
64.0768
61.7964
122.224
63.1036
56.7251
119.348
59.2105
51.142
107.57
211.47
123.521
80.9018
369.331
108.032
241.015
48.5037
182.4
62.8051
93.1467
245.488
48.9516
132.152
65.7077
82.1147
151.473
70.5215
558.824
114.457
43.1135
513.707
131.392
928.308
307.192
229.508
84.7247
91.6897
122.129
367.933
58.8575
432.758
91.7988
353.474
64.7367
434.308
61.8984
250.66
216.624
119.099
326.75
507.715
350.265
1079.58
541.93
332.903
430.125
433.189
322.863
41.9693
94.015
339.739
68.1662
662.803
57.5189
517.454
611.752
114.831
98.4581
74.1273
43.3853
112.744
46.3522
248.209
129.502
81.8812
185.688
83.9048
151.71
71.0584
53.5876
109.243
48.0932
215.442
47.2572
67.6922
695.016
64.9999
42.2858
100.826
63.4576
840.683
289.125
73.4002
74.6427
170.629
48.9537
84.7123
48.9694
49.6874
102.709
74.2684
54.2651
61.0235
334.319
87.434
53.5289
42.5233
43.5696
45.3777
202.278
70.0088
93.0009
53.1993
84.4459
97.4819
54.4286
216.036
71.3832
47.3646
58.6292
82.1681
132.702
110.471
97.9931
49.4607
118.292
83.4526
50.9164
50.7376
74.7477
87.9641
101.127
66.5036
120.117
64.9958
92.2276
114.033
317.09
776.457
1109.01
119.032
59.2372
515.923
167.193
229.831
44.3003
50.1275
42.478
88.5526
70.5971
42.6299
42.6452
44.1011
108.314
41.6353
46.8003
41.999
58.5775
191.332
51.2791
110.011
51.2251
95.7707
233.742
58.24
52.8626
66.765
1088.36
834.056
99.8161
67.1178
68.0839
58.7794
113.567
479.028
61.9139
66.1173
89.4639
42.0153
93.2229
49.0453
87.2916
109.602
90.0429
61.2094
199.577
275.965
62.3081
2040.7
280.785
195.335
61.7515
83.3048
96.9287
112.366
53.5859
73.5788
294.479
44.9228
187.142
651.471
103.107
121.604
583.18
63.1412
78.0497
89.547
41.7634
114.344
401.099
90.2941
91.654
439.918
223.728
1013.89
621.039
98.3635
47.4256
137.287
66.6802
184.968
151.137
564.274
49.8488
45.4194
635.648
52.7363
188.056
78.7865
101.487
657.62
662.063
49.2329
42.5242
911.599
48.89
52.4268
65.0485
47.2746
80.8473
164.554
275.577
60.4743
572.449
101.978
51.213
83.5327
717.429
77.1084
599.25
64.2923
61.1365
84.4159
83.1981
59.8837
117.417
63.8005
553.644
116.887
121.635
528.154
119.881
52.8831
748.205
118.73
102.672
86.2391
184.288
104.685
81.549
44.4197
265.064
72.3619
70.6669
63.073
130.363
84.0369
58.8371
44.7866
67.7324
141.86
72.2466
65.102
79.7572
499.396
71.7894
71.4441
69.5376
90.843
45.9283
63.9767
63.4998
130.388
106.058
140.188
146.644
88.2882
428.469
63.3424
55.9064
409.528
356.514
477.653
87.0647
335.978
51.6605
527.056
93.4035
284.46
94.3157
43.5732
112.421
195.126
92.2528
69.7764
42.4953
62.9698
410.181
63.1679
48.9936
53.1639
1384.73
258.301
44.0334
1435.7
553.404
321.417
258.405
598.002
255.426
78.0158
241.568
86.9114
102.074
383.07
844.068
61.8774
43.9099
53.6375
483.524
44.3302
842.359
153.339
126.058
156.034
122.09
329.343
41.9062
113.712
121.254
55.8472
102.745
53.1228
117.257
1957.07
1754.93
820.889
96.3915
725.78
42.4125
48.6177
60.8224
98.5033
44.0026
54.8597
42.0127
73.4545
88.6073
46.8856
53.9922
75.1124
46.3269
99.0101
118.482
43.1052
112.827
118.052
42.8782
52.0871
858.272
55.4435
845.555
590.518
122.907
129.959
83.0391
121.358
68.0194
50.9841
639.863
57.8897
56.3218
46.9657
49.435
77.0714
135.322
140.028
172.686
112.831
46.0492
576.726
60.5589
328.855
410.963
63.6794
344.771
86.2915
52.9494
60.6626
57.409
61.689
45.6682
126.614
50.7797
301.749
217.713
336.185
56.5246
56.3431
81.839
272.828
507.594
93.9978
145.74
63.8129
255.84
63.5763
192.589
389.666
82.7199
56.1581
91.606
893.977
61.585
58.9421
118.47
46.8525
136.695
122.083
156.068
84.2629
287.508
169.919
360.861
71.3655
262.773
440.715
312.007
53.1068
171.37
86.9913
101.872
53.4253
65.3043
62.351
487.709
84.6085
96.9094
335.415
81.5668
61.9588
95.1466
45.1244
139.748
48.2481
63.7608
162.172
103.559
77.6741
163.374
95.4947
96.4161
79.4646
124.371
43.1585
276.509
231.539
103.461
104.901
44.0489
238.954
58.9314
42.9423
83.8206
45.7375
105.882
87.8762
50.046
55.0524
98.1873
296.277
210.545
49.6423
798.395
43.1317
97.5322
93.7846
48.1617
749.726
145.152
655.062
50.0393
67.1231
532.519
669.983
84.8853
99.8252
185.17
127.983
48.5543
105.485
63.2319
142.576
81.89
131.411
49.8302
133.098
99.3473
104.692
59.6662
86.787
42.0737
59.6147
605.62
438.252
103.47
108.016
97.9493
84.9571
84.1864
162.065
43.3566
48.9529
59.2917
84.89
79.3566
66.5826
109.868
51.0234
57.5327
51.7973
71.0085
57.4357
68.5575
205.199
90.839
67.689
915.577
76.2188
63.5833
77.2096
42.807
81.9515
203.992
45.1757
73.925
80.3557
336.776
64.2395
63.184
93.7464
1412.45
94.2844
155.524
116.125
64.441
89.8415
79.8269
62.1191
854.339
92.6174
68.32
62.1686
42.0573
285.812
45.6182
300.615
414.087
112.119
72.0054
59.3156
118.661
86.2174
55.3316
442.345
117.886
289.229
42.7853
136.687
440.979
118.188
48.0915
97.9441
52.9577
422.073
54.9179
55.4721
87.8438
41.309
59.4955
86.989
50.5259
417.959
41.9444
396.564
45.0079
71.6844
66.2714
145.804
84.7313
122.886
111.111
575.25
111.001
116.37
73.576
44.0899
103.98
57.937
52.0535
78.6645
74.4728
62.1719
119.406
46.3243
65.7642
46.998
303.902
86.1019
521.364
550.051
325.164
153.703
67.4412
70.1259
60.005
189.384
87.6397
42.8155
41.4994
111.323
152.749
45.6721
70.024
1010.75
136.467
64.8835
73.602
364.359
826.13
58.8743
550.12
540.094
198.792
369.704
158.797
551.948
71.3358
214.2
736.935
73.3433
41.5429
60.7445
109.349
312.399
42.4667
43.9068
70.2224
138.715
152.216
812.127
106.87
1057.8
118.141
68.469
81.9606
75.4107
76.7003
462.474
200.804
428.234
481.795
66.4019
329.865
1046.84
65.5254
189.006
124.74
402.767
150.066
130.595
686.113
1006.95
108.797
637.62
123.015
447.696
79.7286
43.1569
149.662
812.998
699.756
62.0318
99.3746
143.149
98.8899
260.081
48.4057
72.2959
964.999
344.66
329.694
84.8898
303.787
65.4212
324.7
55.0966
118.953
182.729
267.961
86.2155
122.623
264.123
105.264
784.634
70.493
59.007
412.172
46.0495
142.137
44.4687
54.2752
42.1373
79.9828
419.436
428.692
322.665
57.5471
63.0681
317.306
56.5589
492.571
72.007
52.602
78.8996
200.436
153.844
599.621
49.4972
71.2155
62.3891
269.16
98.1189
571.771
907.715
418.106
104.578
59.3163
432.755
317.474
146.819
45.9044
61.277
41.7822
672.759
285.073
400.95
1099.85
238.915
92.4424
77.9372
758.268
407.928
62.4663
87.484
99.7561
409.628
60.2855
46.8552
88.213
79.7261
768.104
244.753
220.73
213.649
311.983
310.815
159.452
87.9202
816.769
371.989
704.348
199.753
384.657
670.73
149.003
57.2712
108.137
58.1487
58.84
78.3916
79.0107
133.313
269.562
83.3143
177.266
180.894
145.303
113.539
189.508
115.067
103.869
127.653
774.405
1109.01
389.162
68.8968
115.895
81.8707
239.806
601.019
155.898
536.209
79.1112
470.32
378.504
172.109
46.8055
42.6739
68.3962
63.2482
710.769
95.3298
57.6249
437.282
70.5619
859.974
474.834
107.566
474.081
63.0413
44.0023
45.6712
42.0438
96.4146
59.5552
88.2888
126.698
71.5762
44.1159
139.139
579.6
545.516
43.2626
104.437
47.0241
61.4931
56.2598
601.822
47.417
53.647
52.876
102.695
44.645
54.6941
99.1812
54.7726
57.684
52.0548
237.65
43.3088
55.277
134.447
404.752
364.543
63.7283
439.124
642.591
53.2934
51.8785
163.712
77.5194
339.251
70.5958
88.5899
82.9204
216.416
67.0204
89.1331
994.051
499.556
81.7672
617.018
45.6511
45.936
60.6173
44.1546
46.5461
69.9462
52.4708
78.8842
216.299
87.3512
302.548
238.589
185.566
79.4136
42.1256
501.956
126.331
80.7683
526.777
99.6052
679.592
60.0292
420.472
43.6466
182.682
84.4942
221.638
45.7108
83.7549
75.1665
507.351
49.0445
41.9563
195.377
80.2308
140.313
60.0775
73.4261
91.5374
46.5929
140.129
47.7257
62.3422
143.82
93.166
390.624
67.5594
44.9083
60.2111
42.7959
50.6956
320.93
41.7905
95.7815
42.5175
216.564
111.881
48.3453
107.488
109.954
55.2563
69.5154
74.9834
124.583
143.724
50.627
48.0091
89.828
65.6027
298.515
634.518
501.393
58.9149
43.699
58.6423
63.8382
87.6342
929.254
234.58
62.2195
52.1128
76.8677
45.0548
47.348
74.5723
151.634
207.139
509.123
331.597
56.1638
78.9243
70.2361
41.8998
218.877
71.6115
121.717
111.608
48.4116
980.574
76.7438
56.4916
69.3998
72.9012
156.179
595.462
44.1714
424.082
53.7098
717.073
124.927
530.07
67.9935
42.8525
60.0675
104.677
47.8036
48.5082
122.455
43.419
42.5057
53.9946
60.9065
235.127
51.7606
740.355
69.6802
59.8827
155.534
171.477
48.3928
376.079
942.273
730.972
450.89
415.824
54.4624
384.455
289.352
71.2699
56.5482
52.34
636.77
88.7804
94.7214
47.278
77.8965
250.738
785.484
158.346
85.0815
46.2874
64.5026
192.497
44.5951
54.9437
619.59
457.013
214.234
755.632
72.6093
45.6865
69.7047
79.6006
1115.51
50.3228
45.075
42.3657
262.454
45.5392
49.3946
89.1787
99.2592
43.8598
110.209
45.1982
140.141
84.5692
139.231
48.6664
235.348
86.1807
110.181
158.324
108.878
179.907
47.465
617.871
93.0759
256.312
291.425
272.262
84.6746
128.936
206.574
64.7044
43.6682
50.8086
52.5717
84.7309
565.942
114.626
45.2734
81.1607
64.3486
47.9107
118.605
61.6659
132.514
102.306
46.1399
95.3486
47.9644
77.7621
297.811
601.822
71.3163
98.1611
78.8808
101.808
512.269
243.23
417.594
818.992
139.354
45.9805
47.5675
43.62
103.149
807.474
78.4819
740.42
109.535
43.8747
116.614
416.292
45.3622
45.7694
54.632
73.054
59.6463
203.612
74.4408
88.823
323.884
53.5731
95.7147
65.3771
127.813
216.485
50.3873
693.522
80.829
106.804
54.4062
135.033
45.1644
138.525
123.23
93.6681
88.6773
79.3542
65.7776
69.4434
49.4749
222.371
61.4509
49.6409
113.171
200.492
226.406
174.326
97.2127
107.872
192.783
69.6709
246.121
137.531
130.278
98.3904
103.974
133.111
71.2017
177.905
284.04
96.7211
52.2813
48.5293
250.392
87.138
98.9604
48.6502
97.6106
87.2171
47.7374
91.4291
408.987
99.4869
70.0087
84.3239
657.753
76.9554
86.9362
145.703
57.9974
151.676
46.1161
788.629
84.7289
76.4004
80.164
53.6701
110.029
53.7318
421.29
42.1553
74.5904
659.812
59.2301
106.178
193.515
97.2094
49.1604
602.453
58.6451
43.1689
101.98
126.962
60.9666
339.589
43.6735
342.543
95.9296
42.6443
68.7966
114.34
716.144
180.575
71.0196
43.17
129.225
406.85
444.243
115.201
122.18
955.373
210.343
226.695
125.987
79.0432
101.052
59.7944
508.867
1041.8
152.996
158.195
100.196
1215.59
433.537
531.202
383.832
183.54
64.6204
49.3875
152.802
73.7491
543.045
303.009
71.7179
970.459
104.664
130.697
70.1731
50.3854
103.327
85.8416
89.1939
79.7679
147.777
184.326
860.695
57.3932
119.105
632.809
607.225
182.268
174.919
60.557
604.153
47.0237
65.8886
338.265
148.443
42.3983
326.047
421.091
72.3025
121.336
47.903
91.8366
53.9755
80.9273
172.086
80.2314
599.42
45.7194
49.7166
84.5022
467.768
172.303
121.185
159.33
242.672
119.568
77.5113
432.625
106.218
67.3879
195.103
786.148
216.193
59.3023
331.424
160.407
93.6228
65.1091
126.494
46.6199
105.174
78.9841
72.7661
62.6826
60.0814
84.6682
42.9869
42.4049
49.4743
100.246
49.5256
160.565
388.282
720.861
93.4967
90.3177
58.9754
47.6667
101.592
636.898
51.463
141.246
71.9269
244.615
66.154
151.453
212.425
445.973
47.9922
57.0244
279.797
52.6875
68.3165
152.686
98.098
410.038
86.4036
214.334
481.882
180.518
629.017
195.88
379.63
102.918
181.549
145.081
53.3515
499.455
150.643
82.5306
178.593
108.074
96.7958
42.7329
50.8314
48.8734
43.5524
87.3905
352.613
41.351
949.212
107.575
352.06
111.99
384.456
1017.27
54.7729
245.265
782.176
169.37
354.952
76.0614
69.5359
747.371
981.22
290.343
166.772
51.0232
479.485
101.771
644.826
52.5626
52.4844
240.146
998.627
61.093
85.1583
50.4108
249.113
509.456
47.5777
420.358
201.425
529.198
713.035
49.438
335.766
73.6114
612.149
281.69
199.544
443.828
247.054
489.297
346.639
228.085
81.5168
78.3183
72.8087
48.3026
53.4788
1425.62
74.5364
112.432
80.0403
78.5029
150.499
1199.61
161.645
193.272
287.313
165.689
215.767
123.334
42.3718
78.0488
1075.21
651.808
283.929
189.19
256.51
88.901
493.399
59.7502
266.142
386.015
58.1341
552.397
88.1551
333.455
305.601
193.715
286.26
289.34
177.043
48.702
131.658
59.6667
571.957
71.5625
193.111
84.3355
271.501
54.1397
67.0166
320.753
117.526
266.962
44.375
1404.11
46.1327
58.917
57.1351
53.5982
105.092
518.342
200.839
108.946
653.475
72.6072
49.6138
55.7647
869.108
97.4678
100.439
837.502
356.911
908.337
540.113
195.291
280.876
156.653
183.826
714.072
65.7064
427.457
150.111
65.7624
179.135
63.8339
170.584
82.031
615.545
477.418
586.606
384.542
323.59