/*--------------------------------*- C++ -*----------------------------------*\
| =========                 |                                                 |
| \\      /  F ield         | OpenFOAM: The Open Source CFD Toolbox           |
|  \\    /   O peration     | Version:  2506                                  |
|   \\  /    A nd           | Website:  www.openfoam.com                      |
|    \\/     M anipulation  |                                                 |
\*---------------------------------------------------------------------------*/
FoamFile
{
    version     2.0;
    format      ascii;
    arch        "LSB;label=32;scalar=64";
    class       volScalarField;
    location    "0.0882685";
    object      p;
}
// * * * * * * * * * * * * * * * * * * * * * * * * * * * * * * * * * * * * * //

dimensions      [0 2 -2 0 0 0 0];

internalField   nonuniform List<scalar> 
47425
(
0.0597406
0.443552
0.0876824
-8.33045
-25.6171
0.0482305
-23.4979
0.0365293
11.1267
-41.2484
0.0122802
11.5771
-18.6605
0.0215245
-4.49951
10.3724
0.0644855
22.3363
-118.348
-40.9402
0.671887
13.7441
-0.0332815
0.533245
12.5143
0.455515
0.0150328
-49.1798
0.0377666
0.173792
13.8501
10.5063
11.764
0.271886
0.118702
0.0253667
14.5157
11.5556
4.88048
0.313437
0.62916
-4.59332
-1.46429
11.4676
-43.0476
0.57702
0.0538161
11.3625
0.389896
0.272815
42.6619
-2.98858
0.164102
-38.3137
0.223033
6.69102
0.332483
0.102086
-11.0118
0.0545073
-40.182
-37.7122
-52.788
19.077
10.9712
0.992376
11.8449
-5.19598
-45.5816
20.9545
1.66039
0.41285
-1.12732
1.22724
-47.8352
10.8105
-52.4576
0.124441
-57.5611
-25.8721
-49.592
8.5474
18.9718
10.6925
1.06204
-0.160099
-1.20731
0.341215
-7.18279
-31.3931
13.0625
-0.0326251
0.332819
-0.1583
-0.12882
0.0562833
0.190368
-0.217838
0.0959345
9.6432
10.5643
19.6625
7.35185
44.0252
7.39968
-1.67541
0.604759
0.054531
0.388175
11.8326
-33.35
11.4616
-2.03664
-0.351863
-3.40894
31.6103
-2.98454
44.1267
6.22974
-6.37542
-0.376522
11.7886
11.349
-11.6056
9.30372
-3.79068
-0.1809
10.8685
0.262468
0.458044
19.6099
-1.53757
52.6558
6.12572
-5.07794
-14.4407
0.907403
-3.66915
9.30489
-3.08598
11.8327
-5.99499
4.08387
-3.61183
9.34476
10.9308
-24.3876
11.0868
4.09972
11.7119
-3.03072
35.748
11.1605
-8.79841
19.4719
0.630069
-0.675962
-124.492
0.182974
0.0759918
-4.90069
0.617695
0.327817
9.03384
-51.7411
-94.251
11.1354
-48.6622
0.502715
-48.6227
-48.7954
0.397322
10.9279
16.6241
0.0517763
12.0592
25.0001
-0.0143755
0.113959
0.198017
18.4106
0.621939
0.0208461
0.163947
0.23808
10.5457
8.31865
47.3888
0.177948
0.379579
11.6708
0.181285
-14.5274
11.8916
0.29043
-4.04411
11.876
0.35921
-4.78744
0.0124536
0.16513
-0.891428
1.11614
-3.78532
7.04499
-0.0868355
0.024879
-3.29946
10.4383
10.8115
0.0307325
-4.14471
10.8894
0.517337
-0.771365
-5.20904
-0.170215
-30.4327
19.5698
11.6731
-28.4067
-7.12649
1.33018
-0.477529
0.311405
-26.2488
0.297649
-4.97806
-7.61812
-11.9928
0.18733
0.0954897
-0.796648
11.4982
0.0719124
10.662
-30.9822
0.352375
-28.0849
0.081781
-0.00428972
0.261813
0.296707
-8.25443
6.43782
10.8215
-0.0183974
10.71
0.475365
0.0682462
0.571464
-24.2657
-0.00832633
11.8569
0.205337
0.00494814
13.1017
0.114195
5.68492
10.749
0.149539
11.3938
8.04169
7.93854
-14.7327
-0.806246
0.0723305
-14.4352
0.262357
7.9889
8.46335
-28.2033
-30.6625
8.38139
-25.9099
8.60824
-27.0974
32.6103
-29.2646
30.4131
-37.2887
0.212281
-41.4359
0.311267
0.243072
-5.90455
0.28168
0.0443497
0.827023
-3.16728
53.3223
18.0032
11.0062
0.108111
0.0752257
9.24689
-6.6949
8.7907
11.2227
-12.1899
0.254594
0.437653
0.0718678
0.00284979
-45.293
-57.6027
32.5944
0.214308
0.327437
9.57081
8.95982
45.306
0.0148061
-0.0200243
-21.9796
0.144593
0.327472
0.146728
0.0940446
-33.1129
-20.5967
10.2093
9.78691
0.0324157
-0.0074891
-0.0338729
10.0482
0.272404
0.299962
0.0950234
-9.04941
-52.3897
3.24379
0.0779654
11.713
-0.00551925
-51.5475
11.4682
0.32914
0.543264
10.131
9.91862
0.598191
11.7422
0.332479
0.00447006
0.144761
14.3072
0.0275516
0.156185
10.4218
5.60938
10.5294
11.3814
10.7623
-3.67164
0.307945
18.3928
11.2082
11.109
16.3617
-6.65476
0.502973
0.0506109
6.73024
-1.38703
0.0589255
11.123
11.4212
8.26643
0.0187136
-43.9109
-1.27806
9.40641
10.9454
9.24065
-5.6073
10.4306
10.8139
14.1127
10.7326
9.18016
0.570354
11.3054
0.603407
11.3235
0.0318804
8.49634
11.7732
0.0401702
4.69138
6.14353
0.0736287
5.23369
0.341416
5.26304
11.7642
0.0320309
-15.1557
0.108675
-32.9879
0.19226
-37.0206
0.155709
0.742352
0.17301
0.0357227
0.144778
-0.0505565
0.0726969
6.08435
-52.0465
55.2335
0.422933
5.71584
2.83247
1.28843
0.317821
0.0280785
0.25661
0.109115
0.402852
0.569501
1.20826
0.0234539
0.00419214
-10.6572
-7.01345
-3.46992
14.6995
-51.3144
-1.0044
24.8028
-50.7811
0.887647
-52.4764
-35.365
0.519106
-1.80014
-0.757449
-4.88045
-53.3718
0.00996406
0.479201
0.29355
-5.4203
-3.0547
0.296785
0.481404
-30.1739
-51.8168
-27.9721
11.6021
17.3554
-5.72758
0.506062
-0.855152
-15.4925
-0.675798
11.5726
11.8334
11.8528
5.49691
11.7699
0.4871
9.11314
0.12212
-2.8818
0.40914
0.300514
11.6395
11.759
10.6286
6.55807
9.80485
0.25938
-1.92292
-30.2376
10.7016
-14.9639
11.795
-3.37031
-15.574
11.7141
0.430656
10.1851
11.1373
10.7166
8.01432
0.316703
-2.18547
10.2884
0.258766
6.44221
19.9401
0.488792
12.8361
10.6266
14.3078
0.440466
0.164852
0.75054
-0.012395
2.38889
-0.00544008
-0.0371428
0.40098
0.602443
-1.8115
0.0551754
0.0404208
22.2421
-5.10737e-05
0.958749
0.682349
0.444014
0.100211
0.15633
9.81378
6.3955
10.9023
10.9044
42.7182
0.116385
0.0113901
11.1326
11.3542
-21.7415
-25.4652
0.18947
0.689726
0.679748
-13.2382
10.4415
-28.9422
11.7618
-32.5426
25.4317
17.9651
0.0202708
-22.9028
0.206287
0.328754
0.152179
1.35229
-0.0419084
0.408604
-52.0639
0.122399
-0.0322708
0.201071
-19.896
0.378856
0.0404212
-20.3172
-16.7669
0.135323
0.140921
-31.1759
0.247792
-2.18339
0.0548438
0.353403
0.304422
-12.0962
-15.1202
18.0202
0.795123
0.557871
0.0216809
-29.0738
17.21
1.62022
-30.9504
0.115516
0.1539
-31.1317
-42.7272
12.4397
-30.935
-30.9702
0.0425782
11.7157
0.0994793
15.5932
10.6784
-0.0182691
-44.0701
10.1797
-0.00927962
0.298399
-17.8754
-11.216
11.7547
5.27715
-48.6197
-27.1147
0.55113
0.183071
-0.669985
1.8962
0.24508
0.310321
10.6754
6.76784
11.7535
-3.97872
10.8861
-30.4236
4.75704
2.67929
-32.2155
9.43085
0.299298
6.11683
8.89958
0.339066
11.1487
-4.81886
28.0083
10.9097
-2.71947
0.755095
-75.0805
7.93539
-14.8468
-44.6285
-45.2379
0.157385
0.347516
-47.6968
-0.0205175
2.63932
-31.5455
11.2042
-41.1929
-0.0290458
0.18189
11.0191
-37.2286
11.86
11.9304
0.462041
0.112559
0.455378
-0.00589869
0.352733
0.740183
-0.0935346
-34.8291
-26.33
0.71453
13.2525
0.0771908
16.8391
10.2361
11.8359
11.8356
11.8938
11.8224
18.3752
1.53641
11.7668
8.4147
-5.50969
0.0181906
-54.9057
-31.5524
-0.00471096
17.1957
3.39839
0.0874298
-55.3478
0.0152891
-50.3842
0.236562
-16.7132
-16.3226
0.524727
12.2512
8.33277
24.8544
0.0664579
0.322991
-0.465534
-20.8577
11.6967
-19.259
-0.583983
-52.42
-14.6072
-0.551407
-17.2745
11.7841
0.533381
4.56674
-0.407758
-18.3759
11.6577
10.3373
-17.7175
0.0703575
-0.628044
-0.077742
0.31224
27.6128
26.1625
14.4145
14.6846
0.0105961
-0.0633552
1.03944
-0.26093
-3.88848
0.0174888
0.364504
0.0250427
0.496912
29.7614
-16.4172
-0.0584099
10.6231
0.418373
0.473532
0.347733
-0.0218376
-4.98942
-27.848
0.311445
0.112223
-0.0336334
0.547091
13.7654
0.075732
-0.988246
0.379205
0.377411
0.471899
17.1892
34.4599
0.553503
-30.6794
-14.4116
-36.1749
-30.6087
-0.531929
-12.0013
3.52254
-0.311741
41.3273
-31.0733
53.5091
-14.8329
-0.311585
-24.0889
0.230304
55.4957
1.33241
-0.998408
0.807697
0.106646
-14.5769
0.712411
0.623154
0.387469
-30.8507
24.6924
11.0671
11.3397
43.5442
39.9121
-17.9005
-43.7247
-32.2864
45.0728
42.1388
11.2261
0.318674
16.6621
0.238748
5.26122
-31.1412
0.682641
4.48823
5.75106
0.285609
-31.7093
-31.5961
0.0687895
4.57969
0.483913
0.276835
5.81012
0.246592
14.8759
-0.00862507
0.395106
30.4963
0.0457834
0.0705349
0.0817737
0.235952
0.20441
50.4074
-21.4582
0.0507036
4.15154
0.447813
14.5251
14.9652
-17.4482
0.268366
-30.5667
-19.0292
4.94793
1.17638
23.0955
-42.6942
-0.00589789
-0.0335813
-7.34294
0.438632
11.4168
2.74971
-0.00226937
11.927
-34.1361
-19.6257
-43.4029
11.8963
25.4352
0.108668
-13.4595
16.234
-18.4749
-0.0558734
17.7771
-36.8259
-8.57422
-19.7373
-31.2204
-18.948
-0.857594
0.0258611
-14.9983
-0.0294475
-19.9624
-30.1655
-0.0114263
-20.7723
0.410013
0.499016
-39.0795
0.436796
-0.0185228
15.642
14.5741
10.8684
-26.5086
-9.74971
0.569816
-12.5414
46.1241
-1.88357
13.0879
0.647763
-1.53165
0.472129
0.369367
-30.9748
-53.1799
-11.1564
-2.02425
-21.1569
-23.8629
-31.8258
6.3241
0.319895
11.4754
11.6683
0.626609
-13.9141
15.3713
22.2185
11.5386
-30.4333
-19.2774
1.35843
0.152439
0.287491
-0.179931
31.4912
11.2375
-24.7944
0.0289799
2.13874
11.3448
11.3292
11.2299
11.0385
11.5653
-20.9804
-4.96563
22.661
26.7796
16.416
6.02632
-2.48071
34.1349
-0.887315
-8.84482
-2.00418
-18.0954
-14.1325
-17.2513
-2.06074
11.5709
14.3636
11.3739
-0.136812
-34.8233
-33.5283
-43.822
9.54262
-10.9461
4.53666
-23.4435
0.0732275
-38.4624
-0.0111479
-0.256238
-13.954
6.99889
-0.0778299
8.79407
0.221546
4.22825
-15.0555
0.551264
-4.15598
-26.7426
-7.93414
-3.08174
15.7387
48.9826
-51.3899
39.6513
-29.9171
-58.2487
0.188716
0.426836
23.2479
0.205598
50.1618
0.229319
0.187541
-51.7907
13.9347
1.00514
0.308266
11.1593
21.2686
9.74731
0.323158
12.2902
-21.3485
8.69522
12.082
12.287
11.7881
0.335828
-16.0962
-8.87192
27.621
13.328
0.32791
9.37664
0.342161
0.314215
7.13388
-12.1573
-6.51582
-13.6561
-12.7213
9.68982
-43.9746
0.294931
0.327922
0.282043
-45.4635
-46.5277
-30.6795
-30.8622
-0.782902
-1.62127
-40.9893
-31.6462
-7.47824
10.9972
0.26619
-1.33075
-42.1588
2.79108
-3.41474
0.463818
8.05733
-0.618531
31.049
-111.228
-18.1691
-33.9416
0.522239
53.0394
-51.3702
0.911511
9.63916
1.10023
-34.4516
9.68042
-7.4962
16.7692
-29.7312
-0.412325
-31.2877
1.06087
-13.0591
-0.271124
5.94452
-36.0924
-33.8181
9.07424
18.0652
-14.7653
-46.0882
8.53195
0.131297
-34.8937
-41.6203
10.4309
7.89408
-62.5248
-51.7121
-43.7929
9.24004
-12.6898
-27.3502
-43.2684
8.6415
23.2469
-22.7557
-11.2668
-9.01119
-33.4704
-41.3165
-6.475
7.13625
11.0068
11.5083
13.0139
9.00161
-5.64385
11.7646
11.7199
12.672
-1.79812
-30.4544
-39.118
9.87353
40.6072
-22.5673
10.1584
-20.2751
4.50324
9.02394
-11.7256
-4.08133
9.17422
8.12844
-56.4449
12.131
-36.762
-52.5018
-36.7222
8.74838
-12.8136
10.666
0.883011
1.47184
-20.4555
-41.6011
-0.313258
-32.8097
-20.1951
57.8971
-24.6615
-46.4057
-33.1449
-0.0576616
-0.169016
-43.2946
-1.40198
13.8367
-0.0184383
-45.0748
-42.2207
-0.00948472
-0.71803
-36.1847
-14.2495
-43.4208
44.2898
0.16812
-5.08726
-45.4293
-2.12407
21.2638
-35.0881
13.8911
-55.0592
-19.0554
9.89087
0.255613
0.138304
-0.60746
0.192395
-0.69072
-1.65784
0.193484
6.1116
33.4894
13.986
23.5487
-20.6697
-10.8643
28.3394
-6.22237
2.53131
-15.9791
12.0788
-68.9425
0.502819
-0.245819
0.578429
-40.9146
0.394696
-57.4582
0.406847
5.97815
5.62773
-52.3216
49.6679
-31.7745
-26.4582
33.5268
-5.13404
11.2528
-11.9648
-27.2892
-30.9215
-28.0815
43.407
11.1023
-19.5771
-30.5915
-7.60941
-7.38549
-40.3224
-30.1083
1.50464
-18.4048
10.9898
11.2575
-25.5334
-45.851
-3.2315
9.10443
11.1426
-51.8794
11.2653
-10.8571
-14.371
11.25
11.5011
-24.7075
3.21952
48.9032
-24.4803
2.85251
28.9475
26.0958
8.50846
-87.0477
-40.9137
-19.0094
-118.671
60.0502
11.5683
-22.7487
11.5723
22.519
-53.9837
1.99051
-54.1627
-28.5976
-5.4103
19.9621
-10.6305
11.4192
11.473
14.2201
-23.9352
1.5283
0.0908249
25.202
0.108772
-18.9876
12.5517
-14.9894
-2.82337
-28.1928
14.4454
-58.351
-43.3451
5.11009
-39.0362
-31.2253
0.0865933
46.8468
-38.8713
-6.7874
28.1388
-14.6264
-21.9343
-27.0747
-36.4921
6.18496
-47.7629
-24.2749
4.61123
-2.65031
0.37251
-27.201
-5.92537
23.942
-18.6527
0.0989247
22.4161
0.403876
-64.1093
0.00362872
0.0927658
-8.7835
-26.7886
20.1172
-11.9945
-16.7659
-9.93727
-54.5465
0.0243222
-15.8533
-65.8028
0.509482
-9.38052
56.1523
-8.7691
-33.1512
-49.7879
0.105284
8.61571
0.023785
-129.25
-30.3774
-25.9557
-29.9245
18.749
-7.26108
-1.12834
-40.5796
-49.7341
-19.2171
0.312697
11.3015
0.806083
0.415695
0.825914
51.7081
11.7002
11.0097
-10.2043
0.383054
14.7403
11.8971
20.931
11.4505
0.226578
20.0342
12.3888
9.10118
-21.7013
0.943153
10.8293
8.61175
-12.8036
10.8524
0.343784
0.507134
9.34462
11.8265
11.5931
-52.1793
10.78
16.8869
0.576771
0.215347
-27.4164
12.5161
11.9915
-50.2616
-48.0829
57.0513
13.6365
-51.3119
22.6519
0.0829181
-48.7329
9.05622
-50.1393
0.23894
0.196236
11.3355
17.771
9.568
0.264592
0.318491
0.833116
5.15308
7.62805
0.527806
-21.2765
0.391328
-15.8678
56.6923
10.8166
-46.801
-13.2754
-72.2041
0.484686
9.59282
0.0402054
12.2347
0.266243
10.8765
0.678609
-43.1453
-27.8123
-40.0167
-6.78334
-15.3987
0.818815
0.781993
-32.7754
0.931792
-53.3586
-3.48915
-48.0078
0.675786
-58.524
-87.3675
-1.10981
0.015849
-30.8911
0.198313
-30.4814
10.5613
-0.110678
0.703666
-0.859898
-2.11022
-2.96974
-15.9153
-33.3537
-10.5918
10.5895
0.677832
10.6776
0.343511
10.5339
-31.1065
8.48047
-31.055
-0.809271
0.99232
8.11028
0.338463
8.45207
7.69915
0.117043
0.490233
11.4097
0.281875
-6.11642
0.304136
0.162833
-31.4993
-30.0326
-4.15882
-0.626216
-25.466
0.219088
0.256524
0.271571
0.283979
0.0668975
0.269011
10.7657
10.4832
0.520915
0.3704
40.026
0.151473
0.326249
0.486269
-49.8344
-0.87685
-52.9784
-38.0789
-47.1727
8.0047
0.191749
-0.594029
0.0496148
0.501334
-43.9593
-13.9419
0.424227
0.3293
-0.675069
-0.678559
-29.8836
-0.734602
-0.00118807
-19.6548
0.475774
0.417691
0.155039
0.321225
0.105386
0.21579
0.340677
-14.1664
-20.8633
0.0400465
10.6711
-5.81062
-12.2552
-10.9871
0.34081
0.494222
-14.1759
0.0795568
-0.0515684
0.588129
0.357947
-13.3716
0.0482228
0.682513
0.411728
0.338788
0.614683
-8.87108
-0.0407604
-44.3081
0.346259
-18.0851
-0.338628
0.0473571
-45.8963
-0.0286774
-1.13277
0.0842834
0.455716
0.545572
-1.06289
49.4793
-0.855586
-31.9202
0.380956
0.104445
0.767933
0.392365
0.189832
-0.606959
0.222225
0.378686
0.107453
-24.8022
-11.5745
-42.1888
9.21688
-17.6318
-0.64016
0.330287
-0.602572
-35.7195
0.0649115
0.0562003
-0.012526
-60.0115
0.0177955
-0.017099
-0.00192056
0.213192
0.267152
-149.385
0.0227292
0.819516
10.7945
-0.00525787
-8.74427
29.4365
23.8805
0.0316023
5.84957
-0.0155365
0.509379
0.327939
0.1533
-58.7638
-48.5523
-0.00871256
0.325831
-44.2275
0.0474775
-7.17334
-25.2522
0.0600341
0.489061
3.8309
0.0587214
-13.5632
-0.0297179
-0.375598
18.1751
1.83055
0.0480263
10.7891
-29.171
10.8438
-30.6397
-27.0026
-31.5082
-28.0636
0.410993
10.7753
-21.3424
10.921
-1.77367
15.1829
-35.8641
-29.6219
11.224
-11.2729
11.2145
0.25807
0.344317
-30.7844
0.417628
0.411895
11.0436
11.0709
39.6099
42.2571
60.6191
-20.7704
26.4172
11.2382
13.4962
21.294
11.1024
0.361101
-0.0121285
0.259068
0.156952
-30.7882
-30.7101
0.414004
1.79621
-8.02348
-51.1753
-3.23491
0.356569
-2.73419
-24.3861
-59.8608
0.388264
-37.3595
-15.7766
-32.5934
-42.8637
-14.7505
0.269477
0.336091
11.7057
-61.579
0.0931303
11.8064
0.277219
0.156207
-48.4395
-48.527
-50.3657
-1.25969
-30.0941
14.8258
8.47709
0.192962
-17.1765
-52.3713
-51.3855
-30.9364
58.3928
-31.0186
32.3926
10.6591
-45.6084
11.3669
-64.5531
10.7602
-60.4139
10.6581
-29.5369
0.585548
-22.1277
11.2373
11.1652
-0.403772
11.0295
10.9095
32.3588
1.89009
11.1432
10.9149
-72.152
-44.4159
-16.6808
-28.6121
-45.0286
-28.6542
0.52429
13.4324
-39.6623
-33.5947
-39.8115
12.2855
-49.2727
4.67703
-51.0513
-52.3961
-39.8435
-26.7817
13.6423
1.86215
7.91016
11.1078
0.834236
-34.648
-4.21652
-1.69454
0.73792
0.0389477
0.109922
0.66872
0.255989
-28.5046
0.277851
0.139111
0.442952
-0.323535
-23.3689
0.652857
-0.0348807
0.127865
0.761393
-11.1084
-8.1149
0.438838
11.7966
-34.0538
-51.9637
-3.5935
-46.3079
-13.098
-2.46711
-27.3617
35.3118
7.6551
7.11818
-10.6574
-0.0159379
0.0156797
-6.6207
-0.0529661
0.0244141
-2.30369
0.0453246
0.735124
1.20057
10.1531
-7.26793
-0.177843
41.588
0.0321507
11.1426
0.0269586
-0.0380221
41.3698
-44.6568
22.8213
0.063417
-0.905699
-29.6361
-30.3424
-3.63036
0.0711599
10.0285
-14.8186
0.0852399
0.0993846
-15.0108
10.9587
0.0927692
11.9321
53.0701
-0.657714
-1.11398
-22.1554
-4.03592
0.329734
0.284958
-1.38188
10.8991
10.8788
9.03576
11.001
11.4488
2.98181
1.47078
-8.22322
-51.6205
3.62012
-7.80997
10.9345
10.8407
58.5957
1.93469
-0.162514
-0.819932
-21.0571
-40.5152
3.96884
14.6159
-0.96182
27.9726
-7.36447
13.5476
-35.2966
45.8163
28.5426
-25.6539
3.88843
2.89643
-21.7685
-50.7492
-81.8379
-3.29972
-14.5478
-51.5193
0.191381
-19.7497
-11.1362
-40.6126
-30.7403
1.87831
14.0613
-52.4581
9.03252
-10.8807
0.0497637
9.33962
-2.38336
15.4591
2.65371
13.3113
8.44621
-38.7266
2.29183
55.4967
-22.5102
53.4108
30.5401
-76.8008
11.9127
11.9537
-63.1529
-17.9678
-5.3017
-33.73
-28.8271
0.163826
1.87518
1.46497
-34.3366
-5.9172
5.37156
56.7794
-11.45
10.8168
-9.43934
-23.2561
6.18361
6.46159
-37.8711
-32.929
-29.8747
-30.7192
0.203464
-19.2206
-0.498771
-20.1996
-11.3593
0.912133
-0.922962
-18.2514
-7.99089
-30.6706
-30.4858
-6.44295
5.70986
-1.59139
-15.2966
-25.4913
7.65046
7.42268
-18.7985
-30.2173
8.1864
-11.2153
-30.1021
-0.218405
-40.3294
-2.9961
-8.9014
-46.7233
-0.0465398
50.5185
-15.0134
-0.877478
-0.944936
-2.39109
-52.021
0.402558
0.502024
-5.00459
0.259329
10.2929
0.372322
-32.8218
10.0271
33.9631
10.5026
10.1978
9.938
0.425855
-23.6135
-15.4499
-15.7355
-49.9884
-4.24302
-40.7936
-15.6269
0.0346721
-55.3951
0.00325402
0.382702
-2.12403
-12.267
-56.189
-31.5307
9.87721
36.3453
-19.8213
0.670887
-36.7024
-42.8674
-11.2454
-44.7111
32.2269
10.7474
-13.259
41.2368
10.7751
-71.8674
18.939
9.67934
46.9685
32.6678
10.7496
10.9424
58.4119
-40.9229
0.614698
52.1407
6.05743
10.9061
-12.4257
10.792
-33.8859
6.70158
57.8899
11.0042
11.1488
35.5293
9.23574
16.173
-5.30834
-4.51552
13.8113
-29.0049
22.6839
-23.7621
-56.4699
-73.0968
-30.1378
11.2379
35.0083
12.815
3.14579
6.11351
10.4543
10.7531
-0.0495628
0.117748
39.1064
-46.2607
11.482
-30.9231
0.238246
5.69504
-20.3393
-72.5556
0.110526
-19.0756
12.259
4.37367
-0.0567571
9.13017
-10.5407
0.130385
0.637007
-24.3805
0.851053
0.394223
-9.82086
9.38458
0.368143
21.0914
0.403071
-25.5786
25.9423
0.654453
14.7081
35.3584
-29.6813
55.116
39.807
-34.0081
-65.743
-29.8878
-29.3368
-29.7279
-29.7951
-33.5755
-25.7178
-36.1715
-29.9873
56.9652
-6.60891
-48.2696
10.0496
-1.40127
-40.5959
-45.8416
-5.73551
-31.064
-19.8
-30.4488
-17.0646
39.7321
-49.0573
-37.1499
-29.6309
22.6612
-29.5746
0.409954
-49.5982
21.9144
4.93273
0.162781
-3.854
43.8685
7.59389
-19.3623
-9.83084
11.6342
0.0286586
-9.29972
-29.1543
-34.3391
-3.24923
-8.05187
17.7171
-31.9682
-11.4283
0.229757
-26.6272
44.7432
-4.48132
4.18587
0.302616
1.11649
-39.9974
9.12355
7.40869
1.69863
0.211108
3.85984
-3.9906
-4.57193
60.9999
1.80334
-16.4569
-8.91413
0.553694
-51.3363
-50.3616
7.82998
7.96651
7.15768
10.1162
-27.3785
-13.2367
54.5359
-9.8733
9.88244
-18.0444
-6.25873
-7.0582
7.63215
-15.3255
7.59772
-24.521
-30.1539
-37.0042
30.3834
-14.658
16.3213
7.8481
-56.44
-71.2672
31.6477
-49.7211
8.3693
-61.7258
31.5931
-5.43034
18.3588
-23.8915
-1.21708
0.225153
-8.58294
-16.3593
-40.9016
-1.34968
8.22879
-92.5671
11.7546
-32.5421
11.6081
-3.7158
9.21393
-0.754793
-2.71035
0.14334
-12.9419
6.75324
0.121272
14.1802
-1.6232
-47.233
33.8586
10.1356
39.9884
11.0506
-1.13813
10.0768
11.8341
29.9639
-1.78016
29.8413
0.195983
-1.75278
-21.1183
0.462052
0.110323
-16.0959
-9.90434
-25.006
-6.52395
32.1772
6.29559
26.3734
0.325136
16.8557
13.7288
0.353806
0.36701
0.274655
0.604042
55.9819
0.264794
-11.5055
-31.7067
11.1266
11.475
13.9049
11.328
-23.4189
-29.6496
-2.20288
-6.20475
-6.25065
-18.3786
32.9065
0.216214
-61.7042
-13.1386
-37.6676
-1.60457
7.65556
-25.2565
11.2185
11.3665
-21.7558
11.4561
-0.205754
5.91824
-42.3311
16.1676
53.6565
-1.30982
-2.03708
32.9867
5.60237
-0.636079
33.0931
6.88027
-18.6095
36.0008
-11.7191
37.9176
-44.2395
0.63353
11.8355
-2.02811
-10.2702
-1.79777
0.493942
-3.14332
0.153202
11.8392
-35.5881
3.29418
0.130267
-35.5573
-0.805599
4.94504
11.2865
11.4139
24.0245
2.84449
-1.99705
-7.21455
-3.13317
-14.7142
11.082
0.16217
-22.0615
58.4021
-23.7136
-0.630914
57.0905
11.3166
-49.3647
53.0881
-4.22052
4.10829
34.9833
11.4496
-30.4874
36.4412
-30.6381
-6.22946
-30.4461
-15.55
-34.1952
32.8168
-6.7488
59.132
0.366604
-30.5487
-30.7462
-53.887
-47.3672
-37.5702
-55.2764
-39.5483
-33.0945
55.9927
8.73023
9.26461
49.1674
22.9253
-49.2095
6.32628
-51.1152
43.3245
0.562746
9.60556
0.0427587
0.497669
0.41705
0.437616
57.3695
0.264637
0.388909
10.4711
0.571093
0.644958
9.85433
-7.37549
0.489456
-9.32334
0.317082
5.98765
25.3289
-48.5121
-1.5702
0.847319
-8.25337
-1.69595
-39.323
-25.0261
-24.4678
-2.46356
36.6633
12.6643
-3.96432
-6.62443
7.53367
2.88699
0.485474
10.5899
10.075
-31.6187
0.618535
16.5941
-4.68076
1.56817
10.7891
-4.73208
6.9398
10.5842
10.3675
-15.5996
10.1274
7.70825
50.8826
23.8301
12.4635
21.4953
9.81929
-3.01545
10.1971
0.217654
-5.1891
0.191346
4.05086
0.069453
21.1346
9.7696
-19.2506
22.1708
0.0335985
8.66485
26.801
-16.877
32.6912
-29.0835
-54.9166
-37.9902
-1.42517
0.0854738
-31.1323
34.882
-13.1157
-3.8943
8.01324
0.781323
-0.79093
0.0528562
8.49249
11.7081
27.8496
7.74002
0.321378
10.512
10.5661
0.0191758
-35.5471
33.8491
0.0352882
6.71458
-14.3697
41.6464
11.707
9.1546
-12.1626
-50.2161
-48.306
10.7897
10.7226
-5.26118
-9.01064
-11.7819
-32.6515
30.8132
0.249172
-0.615696
-2.41347
0.302563
18.2849
-17.8075
0.389433
0.308105
29.0895
0.278447
-12.6822
25.4581
-37.5565
-27.9221
0.267352
-13.4838
12.6749
-0.0666452
0.332475
11.3011
8.18673
-1.93028
19.6429
2.75571
-45.6489
0.407564
0.405215
-36.6268
-3.58923
12.4593
0.416728
6.94537
10.9303
58.7266
0.384843
-12.019
-36.7848
-41.72
-96.2632
-62.3023
0.385629
15.4606
45.1798
0.00946082
6.46132
8.57824
-40.6728
11.951
5.15025
-40.047
11.9468
23.9296
-18.9553
8.17534
-40.9645
-52.4033
13.4559
17.6682
-43.3661
13.7616
9.75342
1.36809
13.0674
11.2208
-0.534582
-37.8128
-8.71085
5.99373
12.8526
10.775
11.613
-0.0962067
-0.0352334
33.4943
0.00218206
-9.74852
-1.11533
35.2489
11.3399
-14.1221
3.38393
56.4321
-25.9311
-31.1539
-41.8646
1.93787
-7.03909
-58.4281
-21.3113
13.1652
-17.6263
-9.45295
-0.0322169
-12.182
10.638
3.71019
1.87085
0.00137057
0.159309
-21.7106
-7.21534
-13.2725
0.26878
-1.45481
0.184114
-1.65104
-7.74576
11.9346
-46.8592
12.3047
-2.03574
-1.97246
10.2785
10.0783
11.0597
0.486663
-1.83103
-13.898
2.71295
-1.69999
-1.86193
-30.7595
2.66814
-8.66221
-40.1591
-31.4809
-28.3343
13.0383
-33.0096
17.2134
-32.4465
0.362166
-30.5272
0.386247
1.67295
-1.39868
-6.83514
0.290868
2.63238
-3.32405
10.965
9.99976
12.4802
-6.60957
-6.74754
-47.4351
-29.9831
22.2609
36.2396
-34.5682
-26.3043
-30.8349
-50.1789
-29.8059
-11.3085
-29.9963
-0.152609
-0.429553
-49.14
-53.4093
-6.05861
-1.7413
10.7227
51.6898
-4.25731
-52.95
-3.98748
3.57725
-5.42404
-1.74265
-28.8514
-0.549727
-0.328509
-0.185209
0.905813
5.63247
-1.03249
0.530051
-43.9091
-44.8099
-42.8427
21.1586
-36.3711
11.7212
0.468567
13.1692
5.07882
3.0195
20.3217
10.8141
21.5008
-0.0670922
2.46522
4.02404
-0.63954
0.745937
-14.5152
7.55032
12.1869
7.57333
41.1773
0.660182
22.7746
-59.1047
-7.11235
-49.4398
40.4243
9.22271
8.04865
5.24883
-15.3401
-10.5478
11.4842
-35.8107
6.34832
8.25167
-6.6222
17.2333
8.32187
-7.04371
-19.1935
-14.6932
11.84
-2.42157
-61.4334
-0.914937
-44.8349
-30.5303
11.7242
-53.8573
-9.96402
31.9938
-2.17294
11.7005
14.0998
16.3846
-8.47046
10.9415
-30.3085
-15.2012
-30.29
-5.82677
-8.87881
15.7446
-29.7497
-27.9572
-0.211965
-0.709082
14.7488
-30.067
6.04094
-6.78069
-46.223
0.244373
-0.3483
10.4041
-51.1351
-7.60222
-2.63349
-0.154391
-2.82167
10.0804
9.81746
-4.46401
10.1481
-32.7514
10.1215
-53.1045
10.3977
-32.1939
-33.0342
-10.975
9.5548
-10.2765
-0.922864
9.74041
-3.54679
-1.17649
-9.96017
50.5231
0.126361
32.9113
-13.1955
0.181507
-4.78699
0.167039
11.2993
9.96422
11.0577
-9.36066
0.148537
10.6197
-2.64729
0.15935
0.454351
-26.8282
0.203701
0.076923
11.398
-27.9826
-32.4996
0.125852
-8.32223
0.420257
-28.8686
0.271724
0.163611
-0.430155
0.306128
-0.28123
-0.426853
0.051921
0.513835
10.0398
-22.8292
-19.3741
11.339
43.8364
14.7232
11.0936
0.0541219
11.7798
36.2995
0.0338355
32.2276
-1.04717
0.104033
-1.00483
24.2215
0.447112
-0.0805455
53.4662
11.8656
26.4692
-12.0274
-15.7765
-0.00727584
-4.2592
-0.0349913
0.399187
0.509712
0.349123
48.0883
0.500696
0.298496
0.256184
10.6559
-41.6577
-27.1326
-6.42796
2.63714
-0.729022
0.282135
13.3882
-30.7265
23.9816
15.5198
2.11222
0.263268
41.0823
-15.7139
39.0734
29.8296
10.7196
11.216
0.227921
-6.72735
0.195403
-17.4944
-15.3282
11.2253
-48.4047
-0.213679
0.149504
0.512331
9.51619
0.359619
46.615
-6.11753
43.9909
0.315019
-53.4764
-10.3941
-16.0059
0.311378
-44.3716
0.437751
27.6328
10.8502
30.9417
0.0664203
-19.9178
3.50268
-48.8432
29.5554
10.7571
10.3708
-2.43383
-27.1771
10.6747
-54.5675
-38.3053
10.8228
32.5031
10.6827
-24.3035
41.7532
6.72649
-9.87791
41.806
36.8843
-0.0760388
1.48922
-51.9727
41.7766
9.07682
38.4038
-7.14673
-52.1494
28.4296
-4.5016
0.0371025
0.163184
0.0971744
-0.736989
12.5894
-32.2435
-2.00541
-37.311
15.0385
36.989
-12.3773
35.2215
0.0581746
-0.0346415
-17.1347
56.3831
-20.1837
46.3152
14.6772
3.03505
23.2747
3.33507
15.6496
0.00721862
0.0593982
0.0107715
-0.0157654
7.57882
-16.6474
12.0404
-33.6317
3.04568
-42.7185
8.1501
-25.9607
43.4483
-4.16121
-3.25214
0.0917979
37.2832
0.0317692
21.5061
-3.35162
8.15986
-12.0316
-0.831294
30.3681
34.1747
-17.4787
0.171263
-1.25333
-33.0356
-63.2364
-8.68681
50.2362
25.4384
53.3562
56.887
42.7094
-37.499
-2.17016
42.5995
-43.7297
0.000892793
4.31505
0.0399784
-29.6366
-13.9363
-2.70068
0.266677
-10.2636
-0.0559025
10.1054
-37.5837
40.429
-46.7101
10.0623
-3.21579
8.73309
-0.00064663
-8.59948
-54.6724
-0.920807
-32.2737
-20.1769
10.4223
-53.7274
-44.3649
10.4069
-15.8746
-16.6383
22.11
10.4337
-15.3343
25.7002
-54.7163
-33.0631
-45.2679
38.543
-34.1074
3.43198
24.0795
2.89988
-57.4571
-48.5977
-1.04121
-1.70094
47.9273
-4.10918
-39.5643
-4.10196
-18.9064
-66.1932
-32.3012
-30.859
1.3227
-30.8227
0.197338
-30.7779
13.3769
-24.0154
48.2858
-30.0652
19.3006
-32.9177
-29.5936
-20.3946
-45.7915
31.8587
29.6664
-31.7778
9.71814
25.1396
15.8364
4.75118
12.5062
-3.53523
-31.776
-87.1596
-31.2994
14.7209
18.3993
-41.1284
22.6361
-32.5198
-16.6603
5.24999
4.43533
-30.2143
11.4253
-31.4763
13.0546
29.4029
31.3686
58.5455
28.0887
-29.3449
-61.0309
42.1553
11.4084
35.4327
-49.3127
-30.9153
49.7041
28.7377
-4.81821
20.6871
23.9611
-43.2154
-33.0552
-45.4553
14.7897
9.80048
34.3463
-59.5566
42.905
27.2833
11.7569
35.5585
-32.0728
1.37309
1.22747
11.7113
-14.2534
-50.5258
-30.8686
43.3008
-13.4894
-21.0067
-47.0948
40.9968
44.7542
37.0338
-33.7438
-98.6142
42.9858
-33.643
-56.0186
44.4484
-2.60905
-11.0197
11.26
-0.367355
-0.666934
-10.8089
42.0774
-30.3055
0.867324
-0.40087
-0.586054
-0.166098
-2.01851
3.56394
-33.4373
-9.41619
-0.749445
-53.7009
-70.1578
-29.6592
-20.6558
-2.237
-18.3303
-28.9625
-42.5705
-0.626481
-36.2295
-2.75284
-36.2075
-31.4169
41.2274
18.1581
25.1221
0.0737801
4.12294
-71.915
-25.5113
-10.995
-46.102
0.00959836
-62.8736
-45.1009
-27.0148
-45.2483
-6.06661
14.8263
10.7709
14.1772
9.90332
41.4258
0.0219099
-0.0131732
-0.00593405
13.6907
-9.69651
-48.4055
-57.309
15.1901
36.2338
23.5512
28.5039
-1.11948
-48.7065
-6.82775
11.5976
2.79733
-2.76773
18.0618
6.23825
-15.9472
13.6826
-12.6874
-10.8041
-8.21117
16.4063
35.0587
-32.157
51.4521
-30.0375
18.1039
-55.0211
-45.9374
-11.6655
13.0752
32.7734
-10.6013
-31.8001
4.89804
13.4642
-18.6387
-30.105
15.4827
45.4543
57.5291
-30.1994
-3.5009
-56.3918
13.7144
-0.219106
-10.5237
9.92691
6.17146
-16.465
2.29804
7.39953
-44.3892
-11.2213
-29.8971
-13.5896
-30.9973
-0.0396344
11.0361
-54.6611
-19.3228
-0.0328241
58.1584
11.2104
44.6686
9.16624
-27.489
15.9492
-1.02355
32.5324
54.1445
14.5384
32.6872
0.0490473
-45.8035
11.4878
11.3588
-6.73047
5.78423
-39.3283
-5.3629
-11.3682
11.6552
2.66991
-23.2397
4.00574
8.51478
-8.91507
-13.3334
-27.8889
0.0247125
13.1122
0.0143242
13.3046
0.0720165
-21.0104
11.4095
-24.1705
10.8028
-28.054
0.00433673
32.1369
-9.74652
34.0822
0.046971
6.41461
0.101876
0.00873002
-5.53488
6.65422
15.9474
32.5629
28.4659
-31.9584
-51.3745
40.9108
23.1765
20.5207
4.16212
0.0186057
0.0557285
-75.9961
41.8946
17.4944
13.5077
0.0747959
17.6448
0.122472
0.028314
-22.7891
-25.8304
-38.9731
-34.3355
5.94247
0.211773
-6.6825
11.2502
40.9162
9.69379
-20.6212
9.56689
-8.18611
-77.1875
-17.1285
0.133984
2.75695
-10.7993
-9.05802
-36.9543
11.7667
-36.1067
22.309
-76.9742
-31.8274
-29.6823
0.155802
20.6446
1.89185
11.5536
33.1658
11.6129
-12.7608
9.62263
10.6773
7.51519
11.5107
-40.9185
16.1089
3.23291
41.3086
10.9363
-23.7673
11.7035
11.6213
-31.1636
-78.7763
-29.587
-30.4864
-31.2368
8.47978
56.374
-32.7365
-4.28377
10.8163
18.3883
-31.2131
0.345362
0.130079
9.67017
-23.9167
-30.4289
-50.5191
29.8551
-3.17147
0.46089
1.75534
-30.3711
26.5314
8.47173
-55.5903
-31.2933
-30.742
57.9961
12.811
9.35224
1.33818
12.9193
-51.3556
15.6517
9.95318
17.7397
-5.25559
15.8779
21.5402
42.6388
34.4839
9.35383
-19.5266
20.9598
-10.9279
0.308382
0.343918
29.749
-32.3977
-13.3979
0.262442
53.4587
0.341917
-30.556
28.6005
18.7781
37.4329
-30.0918
-20.5057
-30.0203
30.0534
-14.4366
-33.9645
-6.24288
10.1048
0.551964
12.768
-0.580583
13.0635
-0.919297
10.1666
-1.00486
-13.5173
0.0824241
33.1731
1.67689
2.9944
-26.2619
8.01216
-0.0637372
9.60835
-7.02595
-33.0987
-45.0973
-21.5303
3.22811
35.0769
0.360813
56.4998
-31.903
56.4906
50.4449
0.502246
3.48219
5.4941
0.406718
0.331605
-90.724
9.8882
-24.5844
-13.6952
3.43419
-0.452404
-30.9046
5.75907
5.69261
8.27105
5.34397
0.436439
-30.7071
-5.92762
-0.022281
-28.2185
0.143588
-0.785765
-0.0939136
-0.0589081
-10.659
6.87597
-56.2596
-0.665084
-0.135376
-13.6677
-17.0693
21.2746
-20.1979
10.914
10.7986
-0.0231884
0.0845238
-12.4283
-17.5424
8.73347
0.0565777
-3.46122
9.58233
0.0277663
54.7191
-0.0156851
-0.97531
0.072922
-0.0321697
-30.8687
-0.00585639
-30.1814
-9.10742
50.5611
3.24215
-4.32886
-5.72237
-2.1878
-8.61622
-34.2848
0.507604
0.0423384
6.13552
-30.3554
-0.0330167