/*--------------------------------*- C++ -*----------------------------------*\
| =========                 |                                                 |
| \\      /  F ield         | OpenFOAM: The Open Source CFD Toolbox           |
|  \\    /   O peration     | Version:  2506                                  |
|   \\  /    A nd           | Website:  www.openfoam.com                      |
|    \\/     M anipulation  |                                                 |
\*---------------------------------------------------------------------------*/
FoamFile
{
    version     2.0;
    format      ascii;
    arch        "LSB;label=32;scalar=64";
    class       surfaceScalarField;
    location    "0.0882685";
    object      phi;
}
// * * * * * * * * * * * * * * * * * * * * * * * * * * * * * * * * * * * * * //

dimensions      [0 3 -1 0 0 0 0];

oriented        oriented;

internalField   nonuniform List<scalar> 
92401
(
0.15001
-0.099184
-0.00674133
-0.0440843
-0.0643217
0.0612534
0.0409592
-0.0378909
0.022141
-0.0395979
0.0429315
-0.0254746
0.00660609
-0.0131988
0.0130304
-0.00643769
0.0014153
-0.000566281
-0.00601635
0.00516733
0.0193927
0.00968399
-0.0252853
-0.00379141
0.00592502
-0.00481734
0.000307616
0.0322037
-0.0255199
0.0127089
0.0480779
-0.0386436
0.0324578
-0.0418922
0.000342349
-0.000568186
0.000237106
-1.12692e-05
0.00468191
-0.0414727
0.0386013
0.0243091
0.0243161
-0.0872264
-0.0176721
0.0111742
-7.6046e-05
0.00657395
-0.0343577
-0.0399374
-0.0159131
-0.0211969
0.0598386
-0.0227286
0.00207621
-0.0665419
0.0644657
-0.00253266
-0.00777173
0.00204801
0.00349931
0.00222442
-0.00095031
0.00154576
0.000211439
-0.000806889
-0.00499806
0.0109626
-0.000100898
-0.00586368
0.0165258
-0.00576588
-0.00502904
-0.00573084
-0.0407141
0.00833425
0.0369555
-0.00457565
-0.0394665
0.0110091
-0.0547641
-0.054037
-0.00263687
0.0548246
0.00184929
0.0906846
-0.0892386
0.022012
-0.023458
0.050318
0.0601501
-0.0718719
-0.0385963
-0.0326016
0.0511406
-0.0580055
-0.00275671
-0.000993729
0.00401795
-0.00026751
0.0314065
-0.0636226
-0.000385528
0.0610193
-0.0601742
-0.0322833
0.0314382
0.0124767
-0.0172745
0.00137712
0.00342072
-0.0362243
0.106847
0.0618333
-0.132456
-0.0846927
0.107527
0.00896981
-0.0318039
-0.131123
0.0325075
0.0295087
0.0691071
0.0148336
-0.0621639
0.0375126
0.00981777
0.0602873
0.00926311
-0.0547168
-0.0441472
0.0100841
0.00243452
0.0316286
-0.0504176
-0.0411726
0.0654828
0.0261074
-0.0332099
0.0406664
-0.0137078
0.00625135
-0.0203463
-0.103224
0.0663542
0.0572157
-0.0855425
0.086969
-0.00142655
0.030503
0.000289732
-0.0709315
0.0401387
-0.00388012
0.0299858
-0.0185826
-0.00752318
0.0268841
-0.0503976
0.0235135
0.000153284
3.00263e-05
-0.000144405
-3.89056e-05
0.00108922
-0.0586403
0.0575511
-0.0684328
0.0428906
0.0622031
-0.036661
0.0901235
-0.0254243
-0.0128098
-0.0518893
-0.000525506
0.0711331
0.00103482
-0.0716424
-0.0475544
0.0733
0.0396194
-0.065365
0.00056617
0.00110361
-0.000397541
-0.00127224
-0.0020164
-0.00361164
1.98723e-05
0.00560817
-0.0383253
0.0840435
-0.0462586
0.00054038
0.000322082
-0.000713094
-0.00045098
0.000841992
-0.055149
0.0543198
0.000829222
0.0753198
-0.00775184
-0.0187296
-0.0488383
-0.100306
0.0926139
0.00446291
0.00322886
-0.0547818
0.0273606
0.0109814
0.0164397
-0.00270458
-0.0148975
0.00758486
0.0100173
-0.012489
0.0257701
0.0374314
-0.0507125
0.000799101
-0.00033587
-0.000141149
8.33585e-05
-0.000107153
0.000805013
-0.000781219
0.000308256
0.000120287
-0.000216327
-0.000212216
0.00414006
-0.00917006
0.00502411
5.89327e-06
0.0679097
0.00506301
-0.0172014
-0.0557714
-0.0149905
-0.0048005
0.0107697
0.00902129
-0.0409687
-0.0528809
-0.0547726
0.148622
0.00357713
-0.035328
-0.00275571
0.0345066
-0.000249823
0.000461654
0.000332079
-0.00054391
0.00422803
0.00450602
-0.0278457
0.0191116
0.018892
-0.00640026
-0.00966581
-0.00282595
0.0418934
-0.0765578
-0.0277803
0.0624448
-0.0293545
-0.00303595
0.0102494
0.022141
0.0122
0.00836012
0.0130224
-0.0335825
-0.000257856
-0.000277753
8.2583e-05
0.000453026
0.02523
-0.00973273
0.0365654
-0.000317261
0.000220648
-0.000392287
0.000488899
0.0443098
-0.033051
-0.068128
0.0568692
0.000298303
-0.000194149
-0.000104154
-0.00113393
3.60514e-05
0.000550998
0.000546884
0.000590386
-0.000229836
0.000190633
-0.000551184
0.0226129
-0.0231141
-0.0622589
0.0627601
0.00106053
-0.0126875
0.00291399
0.00871299
0.0430089
0.0585946
0.0185142
-0.120118
-0.107852
0.0225252
0.121827
-0.0364999
-0.0054211
-0.0449372
0.003749
0.0466093
0.0555095
-0.0308698
0.0265444
-0.0511841
0.0273597
-0.00321869
-0.155032
0.130891
0.00943742
0.0149501
-0.0287038
0.00431629
0.000685804
-0.000176036
-0.00076486
0.000255091
0.0381307
0.0122792
-0.00129802
-0.0491118
-0.00252135
0.0850713
-0.0866294
0.0040795
-0.0180791
0.0495031
-0.116175
0.0847512
0.0426281
0.00538731
-0.0534365
0.0427553
-0.00012723
-0.00232729
-0.0294482
0.0419655
-0.0101901
0.0708906
0.0170532
-0.0316011
-0.0563427
0.13296
-0.147144
-0.0303563
0.0445404
-0.015161
-0.0460722
0.0589059
-0.0824455
-0.000778336
0.0832239
0.00106882
-0.0978441
0.163123
-0.0663476
-0.00255149
0.00337529
-0.000619833
-0.000203968
0.0899408
-0.149317
0.0303542
0.0290219
0.00155868
-0.00045921
0.000910525
-0.00201
-0.0872381
0.142854
-0.104184
0.0485678
0.0310405
0.00265299
-0.0418096
0.00811609
0.0859597
-0.0147643
-0.0842287
0.0130334
0.00577713
0.0320428
-0.0529808
0.0214153
0.0267372
-0.111614
0.063461
0.087144
0.113365
-0.0800057
-0.120504
0.000519699
-0.000306141
-0.000179637
-3.39215e-05
-0.0936156
-0.0284925
0.110621
0.0114875
0.00146418
-0.00578631
0.0160085
-0.0116863
-0.0141355
-0.0342788
0.0587657
-0.0103515
-0.0056084
0.0176952
-0.0147634
0.00267659
0.000414618
-0.00068099
-0.000613227
0.000879599
0.0226343
-0.0266179
-0.00162482
-0.0018723
-0.000700264
0.00153872
0.00103384
-0.0577176
0.0604766
-0.00275897
-0.00259246
-0.00640961
-0.00224211
0.0112442
-0.0370899
0.0286712
-0.00571677
0.0183407
-0.0472363
-0.0557972
-0.0513011
0.0415515
0.0983362
-0.0885866
-0.00765892
-0.00184401
0.00519897
0.00430396
0.0467968
0.0111674
0.00211837
-0.0600826
0.000606077
-0.00965443
0.00717281
0.00187554
-0.0405058
-0.0543623
0.0115041
0.0833639
0.0647087
-0.0388776
0.0266257
-0.0524569
-0.00960523
0.0598381
-0.0588597
0.00862681
-0.0591327
-0.0340361
0.00783455
0.0853342
0.0162477
0.00483594
-0.0329095
0.0118258
0.0642967
-0.0634783
-0.00081844
0.00187286
0.00178676
-0.00157535
-0.00208426
0.0407237
-0.044241
0.00351729
-0.0556423
-0.0398182
0.106794
-0.0113338
0.000829954
-0.00998567
0.00992613
-0.000770421
0.00269862
0.00585796
0.00280587
-0.0113625
0.00164476
0.00687949
-0.00791817
-0.0246622
-0.0578567
-0.00908309
0.091602
0.0256423
-0.00815774
0.0189315
-0.0364161
-0.0840047
0.0925691
-0.101283
0.0927188
0.076291
-0.0492446
-0.0270464
0.00163066
-0.0346671
-0.0101388
0.0431753
0.00805877
-0.00561071
-0.00964734
0.00719929
0.04621
-0.069928
-0.0619746
0.0856926
0.0740263
-0.0647105
0.0293642
-0.03868
-0.0136792
-0.0097756
0.0340117
-0.0105569
-0.0581693
-0.086759
0.0572994
0.0876289
-0.0416121
0.0543357
-0.011093
0.0976987
-0.0482771
-0.0494216
-0.00485621
0.0156732
-0.00275825
0.000996962
0.000681088
-0.000707853
-0.000970197
0.0473394
-0.0157941
-0.00524865
-0.0262966
0.00361048
-0.00188307
-0.000437392
-0.00129002
0.0053526
-0.0101735
0.00870373
-0.00388282
0.0723915
-0.0426987
0.0261624
-0.0558553
0.00898639
-0.000502809
-0.00684395
-0.00163962
0.00164667
-0.000603471
-0.0010432
-0.0662547
0.0656034
0.000651366
0.0118004
0.00585574
-0.0966015
0.0789454
-0.0120831
0.0144398
-0.010282
0.00792537
-0.0733277
0.0166343
0.0834855
-0.026792
0.0187234
-0.0978442
0.0758132
0.00330756
-0.0526806
0.0429428
-0.00842052
0.0181583
0.00863131
-0.00183153
-0.00294672
-0.00385307
8.42428e-05
-0.000689784
0.000605542
0.0282765
0.170899
-0.245633
0.046458
0.000254856
7.76749e-05
-0.0248461
0.0601728
-0.0525126
0.0171859
1.29552e-05
0.00517376
-0.00445559
-0.000731127
-0.00016289
0.00120978
-0.00127672
-0.0708154
0.000573503
0.0702419
-0.0323846
0.113777
-0.0477402
-0.0336523
0.000545347
0.000469897
0.00944891
-0.0104642
0.000401335
0.0925289
-0.0929303
0.00240296
-0.00161993
-0.00123385
0.000450822
0.0013731
0.000701903
-0.00071024
-0.00136477
-0.0367025
-0.00160628
0.03251
0.0186775
-0.0636765
-0.072376
-0.0163615
0.00644927
0.0822882
-0.000627192
0.0020003
-0.10146
-0.0415376
0.112637
0.0303611
0.0272141
0.170925
-0.0853938
-0.0578448
-0.0276861
-0.018367
0.119311
-0.0435442
-0.0574004
0.0397249
0.0299312
0.0386238
-0.10828
0.104748
-0.249109
0.109552
0.0348088
0.00164446
-0.00145746
-0.00138227
0.00119527
-0.0123385
-0.0353307
0.0553861
-0.0077169
0.0266172
0.0405931
-0.0268041
-0.0404061
-0.0353574
-0.0257995
-0.019766
0.0809229
-0.0533617
-0.0139335
0.0549567
0.00120797
-0.0119501
0.00925136
0.00149075
0.0553732
-0.0284453
-0.050847
0.0239191
-0.0897241
0.105631
-0.0503246
0.0344171
0.0169707
-0.0234652
0.00679995
-0.000305531
0.0517903
-0.0600557
0.0636386
-0.0573308
-0.00349982
-0.0137376
0.0745682
-0.00530052
-0.0133756
0.00257387
0.0161023
0.000269729
0.0593965
-0.0587655
-0.000900634
0.135347
-0.0538184
-0.00241558
-0.0791135
0.0604633
-0.00776356
-0.0494445
-0.00325526
0.0498887
-0.0231614
-0.0655013
0.038774
-0.0100881
-0.00167525
0.0151835
-0.00342018
0.00542746
-0.00170973
-0.00475091
0.00103318
0.00255612
-0.0442442
0.0408974
0.000790673
-0.000737358
-0.0863537
0.00346105
0.0197724
-0.0128898
-0.0631157
0.0464974
0.0166183
-0.0595552
-0.0170387
0.0109781
0.0656157
-0.102016
-0.000862255
0.105245
-0.00236674
0.00373401
0.0240464
-0.0129219
-0.0148585
-0.0713307
0.149755
-0.0659887
-0.0124352
-0.0047268
0.0134594
0.0223444
-0.0310769
-0.0526932
0.100841
0.0395476
-0.0876959
0.0294205
0.00118774
-0.0142578
-0.0163505
-0.0364586
0.0381678
0.000846926
-0.0047491
0.00754617
-0.0102649
0.00746787
-0.000239799
-0.00457337
0.0101658
0.0360437
0.037787
-0.0738308
0.00107661
-0.0018988
1.76697e-05
0.000804521
0.020316
0.00837449
-0.0194011
-0.00928941
0.0227022
0.00948642
-0.00109139
-0.0310972
-0.0527832
-0.00235597
0.00722335
0.0479158
-0.000213584
-0.0440306
-0.000989164
0.000508826
0.00155695
-0.0518512
0.0372579
0.0518365
-0.0372432
-0.0445843
0.0301306
0.0171275
-0.00267378
0.00140384
-0.00372134
-0.00995237
0.0122699
-0.0100297
-0.00508597
-0.00281622
0.0179319
-0.0437317
-0.00491847
0.0121916
0.0722779
0.03946
-0.0720182
-0.0397197
-0.0460723
-0.000126387
0.0461987
0.0861903
-0.0486823
0.0595923
0.00369174
-0.00765349
-0.037306
0.0412678
0.0358536
0.0113007
-0.00531055
-0.0418437
-0.000462515
0.000343095
0.00101976
-0.000900337
-0.0168787
-0.0449259
0.0618046
-0.000204818
-0.00139163
-0.00414107
0.0308691
-0.0230363
0.00618945
0.0279049
-0.0417478
0.0978507
-0.0906905
-0.00213188
-0.00502829
-0.0214468
0.101572
-0.018507
-0.0616177
-0.031711
0.00677087
0.0133361
0.011604
-0.0390303
0.0358829
0.0137161
-0.0105687
0.0325689
-0.0251266
0.0013439
-0.00878613
0.0193432
0.0732382
-0.124001
0.0314201
0.0762943
-0.0752766
-0.0243122
0.0232945
-0.143311
0.00200067
0.00371318
0.137598
0.030511
0.0123708
-0.0411463
-0.00173542
0.0400726
-0.0573605
0.0203883
-0.00310034
0.00216154
-0.0012013
0.000230447
-0.00119069
-0.0146538
-0.0011273
0.0733997
-0.0416416
0.0188072
-0.0505653
-0.0120796
0.0477332
0.000360918
-0.0360145
0.00510695
0.096311
-0.0934695
-0.00794845
0.0495466
-0.0989871
0.0579111
-0.00847069
-0.0483839
-0.000464828
0.0367691
0.0151032
-0.00327489
0.00868987
-0.0205182
-0.0234247
0.047789
-0.0133074
-0.0110569
-0.0483043
-7.96651e-05
-0.00558832
-0.12287
0.175901
-0.0474431
0.0100751
0.00979394
-0.0634214
0.0435523
0.0494109
0.0054407
-0.0447765
-0.0132102
0.00687597
-0.00377666
0.0101109
-0.0600343
0.000319752
0.0597145
0.110782
0.0441847
-0.136968
-0.0179987
-0.00953796
0.000313365
-0.00398556
0.0184898
-0.116224
-0.0226778
0.120412
0.0127054
0.0661523
-0.0690638
0.00279728
-0.0557383
-0.0104803
0.000530493
0.00195487
-0.00269018
0.00207667
-0.00178243
0.000236254
-0.0509316
0.02622
0.074036
-0.0493243
-0.00193736
0.00100847
0.000964941
-0.0341323
-0.00772756
0.0446571
0.000288437
-0.000270923
0.00035771
-0.000892321
0.000121669
0.000412942
0.000263251
0.00210185
-0.00182418
0.00146634
0.0001459
0.000211934
0.000270137
-6.37823e-05
0.000592747
0.107197
0.124017
-0.0812049
0.000201695
-0.000593884
0.000662326
-0.0528925
0.0527522
0.000140309
-0.0104797
0.0761793
-0.0718997
0.00620013
0.00165125
-0.0197761
0.00535966
0.0127652
-0.0603532
-0.00301899
-0.0172346
0.00402499
0.0473423
-0.0341327
-0.0627295
-0.00338013
0.0661096
-0.00729232
-0.0165453
-0.0127946
0.0366322
0.000343649
-0.00039537
-0.000547627
0.000599348
-0.00389033
-0.00737094
0.00913397
0.0021273
0.0549853
0.0439049
-0.0175071
0.0483213
0.0896885
-0.0381203
-0.0998895
-0.012656
-0.0441765
-0.0188454
0.0185733
-0.0537142
0.0539864
-0.0112433
0.028384
-0.00552202
-0.0116186
-0.0150847
-0.0134685
0.013375
0.0151783
0.0963907
-0.0946173
0.0186763
-0.0204498
0.00129114
-0.00443285
-0.000513554
0.00365526
0.00122597
-0.067452
0.066226
-0.0726581
0.00338561
0.0669674
0.00230504
0.0390055
0.038269
-0.0772744
0.0190952
-0.0599384
0.0281872
0.00193612
-0.00108445
0.00042159
-0.00127326
0.000272687
-9.98406e-05
0.000948564
-0.00112141
-9.1755e-05
0.000445442
-0.0010317
0.00067801
0.0643185
0.0566993
-0.039567
-0.0814508
0.00585254
-0.0871711
0.0825642
-0.00124571
-0.0138131
0.000749185
0.0264646
-0.0134006
0.0535741
-0.0527189
0.0191559
-0.0200111
-0.000552706
0.00139287
-0.000698301
-0.000141867
0.020214
0.0478832
-0.0490021
-0.0468903
-0.00165903
0.00105659
0.00145216
-0.000849722
0.00148392
0.081414
-0.0828979
-0.0498713
-0.0149988
-0.0222662
0.0871363
-0.0499374
6.60489e-05
0.0116161
0.0167508
0.0166775
-0.0450445
0.000569589
-0.00270613
0.000479205
0.00165734
-0.00181747
-0.00043698
0.000595422
-0.106457
-0.00941096
-0.0433309
0.159199
-0.00977383
0.00735908
0.136849
-0.134435
-0.0385851
0.0418677
-0.0648348
0.0615522
-0.0804716
0.0800071
0.000464553
0.00122409
-0.0499444
-0.0305068
0.0669734
0.0193066
-0.00596724
-0.0803127
0.0505763
0.095606
-0.158337
0.0121543
0.0416673
0.0157278
0.0334031
-0.0907982
0.103865
-0.108363
0.0435041
-0.00372023
0.0134896
-0.0122181
0.00244875
-0.00123586
-0.000194638
-0.000511036
0.00194154
-0.00289145
-0.00567913
0.00174067
0.00682991
0.0608903
-0.00623192
-0.0184743
-0.0361841
-0.0567446
0.0282166
0.028528
-0.0930145
-0.0075292
0.011798
0.000751431
-0.000572315
-0.00141498
-0.118214
0.0265051
0.00514101
0.0865681
0.0011934
-0.0531637
-0.0102968
0.0622671
0.0457399
0.028779
-0.101918
0.0273991
0.0385674
-0.0435001
-0.0191463
0.0240791
0.0485457
-0.0601858
0.0502075
0.0321641
-0.0567557
0.0496377
-0.0250462
0.0347167
-0.0360335
0.000323092
0.000993613
0.0162461
-0.142306
0.0914379
0.034622
0.00140018
-0.0617704
-0.00392885
0.0520087
0.000415938
-0.107206
-0.0339611
-0.00864264
0.00687793
0.0357258
-0.0485068
0.0444048
0.0499976
-0.0458957
-0.0423056
0.081856
-0.0395504
0.0104739
-0.102286
0.0483123
-0.017067
0.00737093
0.0247478
-0.0150517
-0.0877781
0.0934033
0.0361045
-0.0417296
0.0587898
0.0329238
-0.0829253
-0.00878825
-0.0462155
0.141954
0.0042071
-0.0999458
-0.000548698
0.00286975
0.00369704
-0.00601809
0.0537566
-0.0720965
0.0830483
-0.0647084
0.00774778
-0.0389907
-0.0082327
0.0394757
-0.0434617
0.0314852
0.1034
-0.0914234
-0.0499882
-0.0264424
0.0528751
0.0235554
-0.00953486
-0.000531118
0.00620854
0.00385744
-0.0114138
0.0244732
-0.0183271
0.00526772
-0.000215259
0.0747206
-0.0745053
0.0148703
-0.0439181
-0.019459
0.0480694
-0.0343505
-0.00055436
-0.0131646
0.00204127
-0.0268652
-0.0215592
0.0463831
0.0344699
-0.0343978
-7.21153e-05
0.0611729
-0.0417191
0.0643202
-0.0837741
-0.0988866
0.0968886
0.0983888
-3.33716e-05
-0.0107754
-0.00178254
0.0125914
0.0493402
-0.000279591
0.000104899
0.000310054
-0.000135362
-0.000624542
0.049066
-0.112962
0.0645209
-0.00851805
-0.00072467
0.00502178
0.00422094
0.0268861
0.00996053
-0.0368466
0.00127279
-0.000911132
-0.0088797
-0.030377
-0.0428403
0.0175749
0.0572414
0.000993346
-0.0582347
0.0728485
-0.0441359
-0.0511907
0.0224781
0.00173178
-0.0251435
-0.0207355
0.0693857
0.0430343
-0.0395715
-0.00801448
0.0092539
0.133356
-0.119465
0.037494
-0.0513844
-0.0450172
0.0364877
0.0218857
-0.0133562
-0.0528316
0.0523828
0.000448855
-0.0477763
0.0296433
0.0106842
-0.046614
-0.0108261
0.0467558
-0.00213244
0.161184
-0.161123
0.00207166
0.107659
0.015935
-0.0160672
0.0507826
0.00858286
-0.0511951
-0.00817036
-0.0145492
0.00473367
0.0107851
-0.000969473
-0.00953788
-0.00545876
0.00469212
0.0103045
0.0661352
-0.0377927
-0.0526618
0.0243193
0.0295563
-0.0152315
0.0241148
-0.0384395
0.0268209
-0.0938252
0.0897278
-0.0227234
-0.00598136
0.000512638
-0.00908052
-0.0943208
0.106865
-0.0228224
0.0102778
-0.0114781
0.0481984
0.014052
-0.0507724
-0.00397826
-0.000828828
0.00318018
0.0016269
0.0838917
-0.00460568
0.0510424
-0.130328
2.86651e-05
-0.000663882
-5.78324e-05
0.000693049
-0.0672052
0.058958
0.0742177
-0.0659704
0.00306589
0.000626773
-0.00210567
-0.00158699
-0.077472
0.0753405
0.00213144
0.0638784
-0.0603376
-0.00354082
0.0603687
-0.000772702
-0.059596
-0.0109671
0.123465
-0.000447595
-0.11205
0.00985362
-0.0310474
0.0328099
-0.0237326
-6.79904e-05
-0.0562368
-0.0675264
0.0115039
0.066329
-0.0103065
-0.0133717
-0.00214757
4.52302e-05
-0.000347069
2.93908e-05
0.000272448
0.00122028
-9.74877e-05
-0.000237384
-0.000885407
-0.0634897
0.00798127
-0.00156272
0.0570712
0.000333925
-0.00551314
0.00200053
0.00317868
0.0123573
-0.0147815
-8.82572e-05
0.00251245
0.00827116
-0.00672813
0.0108142
0.0554977
-0.00950669
-0.0225218
-0.0234692
0.0362436
-0.00535061
-0.0364372
0.0055442
9.2965e-05
0.0667282
-0.000219266
-0.0666019
0.00757167
-0.0710057
0.0191116
0.0443224
-0.0429378
-0.0317697
0.0416176
0.0330898
-0.0360678
0.0223968
-0.0918368
0.105508
-0.00103739
0.0154081
-0.0078676
-0.00650307
0.0489794
-0.0588006
0.0473375
-0.0375163
-0.0626835
-0.00682798
-0.00796476
0.00105759
-0.000402123
0.0044112
-0.00506667
-0.0122899
-0.00274724
0.0018209
0.0132163
-0.00828013
-0.00947045
0.0109364
0.00681413
-0.000149847
-0.00222999
0.00146683
0.000913008
-0.00025419
0.000309501
-5.53111e-05
0.00131962
-0.0746957
-0.0278622
0.101238
-0.000150689
-2.48708e-06
-0.00146884
0.00162201
8.06214e-05
-0.000266286
-6.85256e-05
0.00337362
-0.0661031
-5.27516e-05
-6.39749e-05
0.000426228
0.000579725
0.000212347
-0.000358472
-0.0004336
-0.0280994
0.0629197
0.0786863
-0.113507
-0.00931473
-0.00216873
0.00731473
0.00416873
-0.0147068
-0.000387575
0.00577964
-0.00546616
0.00553339
0.0134267
-0.013494
-0.00030791
0.000461642
-0.000206483
-0.0673124
0.068228
-0.000915538
0.0302238
0.0474251
-0.0601636
-0.0174853
0.0118091
-0.0754682
-0.0215045
0.0851636
-0.0137215
0.00270771
0.00554764
-0.00452567
-0.00651887
-0.00267697
-0.0165558
0.0589348
0.0127585
-0.0551375
0.0697395
0.00496864
-0.0546371
-0.0200711
0.000269392
0.00040017
-0.000664138
-5.42392e-06
-6.40714e-05
-0.000163217
-0.00266387
-0.00116361
-0.00141466
0.00524214
0.0650896
-0.0459274
0.01205
-0.0312122
-0.000851046
-0.00268749
0.00138402
0.00215452
-0.0179132
0.0108408
-0.00249207
0.00956445
0.000967769
-0.101641
0.101695
-0.0010214
0.00319961
0.000836106
-0.0106855
0.00664974
0.01048
-0.0110183
0.00156525
-0.00102697
0.00989674
0.00411705
-0.0108142
0.0367745
0.0562731
-0.027958
-0.0272774
0.0548041
0.0281925
-0.0557193
0.0277533
-0.0550306
-0.00103524
0.000701556
-0.0328762
0.0124714
-0.0100478
0.0792193
0.0232783
0.0073733
0.0696745
-0.0541269
0.0976961
-0.113244
0.00474521
0.092468
-0.0972132
-0.00699529
-0.00733746
0.0137009
0.000631837
-0.0340534
-0.0870681
0.027477
0.0936445
0.0218363
0.0614093
-0.0244293
-0.0588163
-0.0235273
0.113235
-0.0529331
-0.0418474
0.0448965
0.051755
-0.0558448
0.0558053
3.95291e-05
-0.0391563
0.0366872
0.00246915
0.0396914
-0.0779443
0.0724425
-0.0341897
0.0680185
-0.0845743
-0.0101118
-0.00810446
0.0112209
0.000650158
0.000597671
-0.000438819
-0.00080901
-0.00583352
-0.0426518
-0.00735951
0.00122679
0.00149963
-0.00265293
-7.34871e-05
-0.0574109
0.051878
0.0855325
-0.0799996
0.0372416
-0.0336493
-0.0035923
0.012462
0.0223896
-0.0146341
-0.0202176
0.00422218
-0.000374458
0.00216356
-0.00601128
-0.0644641
-0.000823871
0.020016
0.045272
-0.00295706
0.00665338
0.00052586
0.0389717
-0.109392
0.104742
-0.0343214
0.0460775
0.0133252
-0.0593701
-3.25817e-05
-0.00363988
0.00696911
0.00173775
-0.00506697
0.000210735
0.0606909
-0.0609016
0.0383118
0.00692709
0.0151369
-0.0603758
0.00436131
-0.00733346
0.00259769
-0.18562
0.0286163
0.164527
-0.00752328
0.0398986
-0.0109299
-0.0289687
-0.00125457
-0.00150102
-0.00119333
0.00394891
-0.0424822
0.0468249
0.125609
-0.129951
-0.00193575
0.000688449
-0.0018923
0.00313961
0.0913757
-0.00204307
-0.0432551
0.000516106
-0.00126831
0.00204496
-0.00129276
-0.019363
-0.117153
0.0158476
0.120668
0.00369559
0.0524979
-0.00407065
-0.0521228
0.0484657
-0.0697667
0.060262
-0.038961
0.0319073
-0.0365563
0.0487271
-0.0440781
0.0082959
-0.00144276
0.00553831
-0.0123915
0.00122862
-0.0443534
0.0533627
-0.0537014
-0.0362176
0.0970112
0.0176577
-0.0241801
-0.0904888
0.0463866
0.0191444
-0.13297
0.0674393
-0.00194842
-0.00860309
0.00629128
0.00426022
0.0277672
-0.0498121
-0.00324044
0.0287834
-0.0265361
0.00737612
-0.00588441
-1.86987e-05
-0.00147301
-0.0865809
0.00261206
0.000574185
0.0700903
-0.14819
0.0775251
-0.0280846
-0.0875986
0.0406649
0.0750184
-0.0730153
0.0203242
0.00325973
0.0494313
-0.0430658
0.0290258
0.0102486
-0.0825699
0.0955959
-0.013026
-0.020849
-0.00941388
0.117635
-0.0873725
-0.00367095
-0.00378958
0.00612618
0.00133434
-0.0258019
0.0591832
0.040645
-0.0721676
0.0280317
-0.000830957
-0.000392925
-0.00103479
0.00225867
0.0465069
-0.0489319
0.0544337
-0.0375109
-0.00720937
-0.0447469
-0.123335
0.0476145
0.0757208
-0.0429206
-0.0325213
0.0276656
0.00303007
-0.00222557
0.000899953
-0.00170445
0.00296536
-0.000476768
0.000541478
-0.0864619
0.00366449
0.0827974
0.0610885
0.0121078
-0.121552
0.0483561
-0.0713533
0.000701844
0.0706515
0.00126176
-0.00165553
0.00875607
-0.00836231
0.0488192
0.156551
-0.226538
0.0211677
0.00191675
-0.0023259
0.00134039
-0.00093124
-0.0916411
0.0649467
0.0265251
0.000169369
-0.000263246
5.54851e-06
0.0017871
-0.0015294
-0.000657346
0.00833701
-0.00850519
0.000825516
0.00754427
0.00788592
-0.0147234
-0.000706838
0.0407225
0.0124083
0.00305479
-0.00280005
0.00166201
-0.098611
0.105526
0.00680501
-0.0137203
0.0126196
-0.0679683
-0.0237255
0.0790742
0.00183539
-0.00425773
0.0874895
-0.0850671
-0.0366702
-0.0339776
0.0821267
-0.0114789
-0.0407384
0.0245406
0.0406013
-0.0244035
0.0536688
0.020682
-0.0721489
-0.002202
-0.00112836
0.000173766
0.001335
-0.000380409
-0.123556
-0.04323
0.0398427
0.126943
0.0482658
-0.0375816
-0.0319362
-0.0376767
-0.0310874
0.1007
-0.00181245
0.00424196
0.000497495
-0.00292701
-0.0309889
-0.0807679
0.0288373
0.0829196
-0.0296686
-0.0284089
0.0205667
-0.000690042
-0.00334798
-0.00163875
0.003034
-0.0038204
0.00242515
-0.00571895
0.00561185
0.0253012
-0.0774539
-0.0856105
0.137763
-0.000495226
-8.97389e-05
0.000281813
0.000303152
0.0571276
-0.0602125
0.0480148
-0.0449299
-0.0148944
0.0450656
-0.00801702
-0.0221542
0.0869962
-0.0864724
-0.0187381
0.0182143
0.0266243
0.0219883
-0.0634164
0.0148038
-0.127369
0.0739281
0.0183759
0.0350649
-0.00534757
0.00330819
9.73644e-05
0.00194202
-0.0084037
0.00983933
-0.000173873
-0.0134526
-0.00372314
0.0178906
-0.000714876
-0.0607725
-0.00417197
0.0132429
0.0517016
-0.00775636
0.103244
-0.00501936
-0.0904683
0.00878578
-0.0475768
0.0809549
-0.0421639
-0.00140681
0.00415255
-0.00143284
-0.0013129
-0.0152806
0.000313162
-0.00200796
0.0169754
-0.106649
0.00660631
0.0128329
0.0872098
-5.8702e-05
-0.00027628
0.000487033
-0.000152051
0.0372087
0.00808583
0.0269833
-0.00510041
0.0464018
0.0528657
-0.0941671
-0.000226671
0.00034485
-0.000176882
-0.000496491
0.00219171
-0.00150523
-0.000189985
0.0171259
0.11143
-0.0478357
-0.0807203
-0.000238193
-3.80866e-05
0.000110312
-0.000348505
0.0618445
0.0170857
-0.0923407
0.0134105
-0.15717
0.086011
0.0772114
-0.00605203
-0.0181733
0.000198123
-0.0515013
0.0694765
0.0248652
-0.0144897
0.0167266
-0.0271021
-0.0664597
-0.0230876
0.0895473
-0.0779082
0.0386946
0.0392136
-0.00169897
-0.000416236
0.000830118
0.00128509
-0.0379625
0.0411225
0.00779515
-0.0109552
0.0465081
-0.0545325
0.00802449
-0.0603102
0.033565
0.0450488
-0.0183036
0.00453182
-0.00286782
-0.00149657
-0.000167433
-0.00327001
-0.00244348
0.000365922
-0.0422124
-0.0417923
0.0472439
0.0142325
0.0025599
-0.0640363
0.00164289
0.000124069
-0.00143409
-0.00033287
0.00353263
0.00705388
0.00237111
-0.0129576
0.00717043
0.0230403
-0.0412044
0.0109937
-0.019059
-0.0154182
-0.00916674
0.0436439
-0.0753676
-0.0111308
0.0306282
0.0558701
-0.00185099
0.0152192
-0.0082875
-0.00508072
-0.0529633
0.000655192
0.0332492
-0.00021118
0.0253577
-0.13567
0.126376
-0.0160635
0.0285857
-0.0344964
-0.0518069
-0.0271127
0.054866
-0.000583125
0.0412415
0.00383045
-0.0444889
-0.0551207
-0.0599565
0.115077
-0.00326111
-0.00106297
-0.00174018
0.00606426
0.00315295
-0.00480573
0.00172574
-7.29555e-05
0.0370732
-0.00638288
-0.0282151
-0.00247529
-0.00326089
-0.00235321
0.00235299
0.00351254
-0.0107726
0.0659254
-0.0586654
0.0763239
-0.000355761
0.027053
0.00984072
-0.00686155
-0.0300322
0.0585329
-0.000769768
-0.0577631
-0.0528948
0.1138
-0.0284236
0.0596856
0.0200909
-0.0513529
-0.0172667
-0.0251805
0.0180737
0.0243735
0.00306617
0.0037612
0.000866944
-0.00769432
-0.0342089
-0.0379631
0.0993314
-0.0271594
0.045766
-0.0370179
-0.000722109
-0.00802595
-0.0477465
0.116943
-0.0529485
-0.0162485
-0.00129093
0.00155457
-5.90886e-05
-0.000204544
-0.000527127
0.0213563
-0.00485163
-0.0159776
0.00308793
0.0038961
0.000280186
-0.00726422
-0.000300504
-4.13412e-05
4.15725e-05
0.000300272
4.15947e-05
-2.46392e-05
-0.000317459
-0.00915836
0.0230106
0.0702362
-0.0840885
0.0807035
-0.0828918
0.00218827
0.000282597
-0.000261983
-2.06145e-05
-0.0126893
0.000968895
0.00230936
-0.00131329
-0.00196496
-0.00761456
-0.00690537
0.00523236
0.00928757
-0.0557562
0.0273325
0.00031484
0.000198805
-0.000780225
0.000266581
0.0334819
0.0552515
-0.0352862
-0.0534472
0.0118368
0.159651
-0.17998
0.00849236
0.0582886
0.0632936
-0.0618966
0.0018175
-0.0136498
-0.00192277
0.0137551
-0.0334004
-0.0301148
0.0635152
0.031122
-0.0645224
-0.0544816
-0.0451425
-0.0656474
0.165271
0.0496053
-0.0554128
0.00580749
-0.0729276
0.135025
-0.0716039
0.0329471
-0.029953
0.0861431
-0.00343135
-0.0690806
-0.0136312
0.0695086
-0.0696665
0.0116981
-0.0115402
0.00014654
-0.00622818
0.00712313
-0.00104149
0.000322457
-0.00428292
0.00672537
-0.00276491
-0.000247377
0.00023806
0.000631265
-0.000621948
0.0221651
0.0234574
-0.033756
-0.0118664
-0.00542947
-0.00484855
0.00618437
0.00409365
-0.0109055
0.0320136
-0.0426126
0.0215045
0.00113901
-0.0085468
0.0106587
-0.00325091
0.0484793
-0.00414598
-0.0443333
0.0380447
0.0357475
-0.126569
0.0527764
-0.0979019
0.0599819
0.0759647
0.0329833
-0.0997632
-0.0469304
0.10788
-0.0370638
-0.0238855
0.00161308
0.00927076
-0.0124679
0.00158403
0.0270447
-0.00223503
-0.0248097
-0.0305201
0.0435716
-0.00391053
0.0203336
-0.0315078
0.00092088
-0.000204037
0.00111006
-0.0018269
0.0117435
-0.0382795
-0.000376399
0.00015125
0.000261825
-3.66755e-05
0.00279345
-0.000438017
0.00110272
-0.00345816
-0.000726828
-0.00262864
-0.07807
-0.01281
0.0015978
-0.0118821
0.0230942
0.0202474
-0.090746
0.0207984
0.0497002
-0.00340267
0.0582828
-0.0819259
0.0270458
0.000582918
-0.000349272
0.000216754
-0.000450399
0.0790933
0.0125542
0.00227089
-0.0939184
-0.000234767
-0.000735908
0.000968079
2.59672e-06
0.00502291
-0.000884556
-0.0689921
0.0648538
0.00691359
-0.00120752
-0.005117
-0.000589066
0.00657799
0.00461232
-0.0037184
-0.0074719
-0.110406
0.0964646
-0.0876105
0.101552
-0.0540569
0.109011
-0.0549545
0.00230615
-0.0438012
0.00860535
0.0328897
0.00373641
-0.00351911
0.000687993
-0.000905287
0.0492277
-0.00262813
0.00113363
-0.129629
0.00247557
0.0742584
-0.0344636
0.00018487
0.0020698
0.0327812
-0.0272624
-0.00758861
0.0781841
-0.0307717
0.0342046
0.00426032
-0.00515665
9.83721e-05
0.00079796
0.034535
0.0240817
-0.0763006
0.0176839
9.08533e-06
0.000107952
-0.000174478
5.74413e-05
-0.000473469
0.0015821
0.00546936
7.13766e-05
-0.00815109
0.00661273
0.00579868
0.0746271
0.0407453
-0.0370563
-0.0783161
-0.130976
0.142528
-0.00957648
-0.00197516
0.0315225
-0.0327656
0.00124306
-0.0371534
0.000248377
0.000413932
-0.00325658
-0.002314
0.0146454
0.20679
-0.158933
-0.0625018
0.029246
-0.060895
-0.0180541
0.0497031
-0.00312484
0.0389549
-0.000907114
-0.0852523
0.0472046
-0.0231462
0.0100745
-0.0379569
0.0476717
0.0461573
-0.0558721
-0.0668959
0.0898338
-0.152559
0.129621
-0.000206929
5.88649e-05
-0.00145181
0.00159987
0.000194308
0.00229276
-0.00061313
-0.00187394
0.0431515
-0.0143023
0.0380564
-0.0669056
-0.00356574
0.000358635
0.00343408
-0.00022698
-0.0118211
0.0105714
-0.0367072
0.0122172
-0.0461593
0.00595324
-0.00329736
0.0186452
-0.021301
-0.139045
0.0193234
0.130743
-0.0110216
0.0312299
-0.0217102
-0.0117009
0.00218123
0.0343821
-0.0529729
0.00676975
0.00429638
0.00777575
0.0524287
-0.0645008
0.0247418
-0.00716816
-0.0251656
0.00759203
-0.0796857
-0.00820521
0.0145632
0.00124498
-0.00111088
6.02031e-05
-0.000513659
0.00307991
0.00247744
-0.0050437
0.0184023
-0.0321433
0.0384827
0.0179744
-0.143338
-0.0230054
0.148369
-0.114139
-0.0149753
0.0266164
0.102498
0.0570416
-0.0343982
0.0280286
-0.050672
0.112866
-0.00614863
0.00301832
-0.109736
-0.0170145
-0.0370792
-0.00428778
-0.0164807
0.00839234
0.0123762
-0.00128662
0.00044337
-3.22269e-05
0.000875472
0.0154784
-0.0782169
0.0627385
0.108585
-0.00699486
-0.112557
-0.026335
0.0556633
-0.0463428
0.0394468
-0.122216
0.0152088
0.0675601
-0.00399619
-0.0121676
-0.0268919
0.0430557
0.00370554
0.0507564
0.086496
-0.135792
-0.00146023
0.0492477
-0.082988
0.089102
-0.0553618
-0.0959655
0.0960583
-0.00746752
0.00737472
0.00301426
0.0043277
-0.0955158
0.0881738
-0.00177053
0.00361533
0.00611925
-0.00796405
0.00024913
-0.000959056
-0.000294515
0.00100444
0.0891141
0.000555468
-0.0171493
-0.0725203
-0.000664742
0.000682797
1.92792e-05
-3.73338e-05
0.000653226
0.00325161
-0.00224822