/*--------------------------------*- C++ -*----------------------------------*\
| =========                 |                                                 |
| \\      /  F ield         | OpenFOAM: The Open Source CFD Toolbox           |
|  \\    /   O peration     | Version:  2506                                  |
|   \\  /    A nd           | Website:  www.openfoam.com                      |
|    \\/     M anipulation  |                                                 |
\*---------------------------------------------------------------------------*/
FoamFile
{
    version     2.0;
    format      ascii;
    arch        "LSB;label=32;scalar=64";
    class       volVectorField;
    location    "0.0882685";
    object      U;
}
// * * * * * * * * * * * * * * * * * * * * * * * * * * * * * * * * * * * * * //

dimensions      [0 1 -1 0 0 0 0];

internalField   nonuniform List<vector> 
47425
(
(10.3738 0.243252 0.00181977)
(10.1921 -0.290654 -0.00525613)
(9.98333 0.00793021 -0.00712126)
(11.6458 -0.53269 -0.249847)
(12.7524 0.375371 0.610653)
(10.0204 0.00417483 -0.000999854)
(12.6669 0.20512 0.615248)
(10.0093 0.00356553 -0.00121994)
(10.0045 0.00862718 0.00583706)
(0.681231 2.99258 -2.50593)
(9.98215 0.00707767 -0.00362259)
(9.99178 0.0720923 -0.009532)
(12.4559 0.353529 0.168008)
(9.98805 0.00607507 -0.00803228)
(11.255 -0.0563292 -0.163261)
(10.0769 -0.21569 0.00541468)
(10.0047 0.00279962 -0.00424929)
(8.80077 -0.527471 -1.53241)
(8.66513 1.30918 -5.15591)
(13.7351 -0.560462 -1.18865)
(10.9659 -0.686145 -0.630961)
(9.7917 -0.0402881 -0.0163411)
(9.95947 0.0101977 -0.0049477)
(9.93536 0.0206105 0.0159298)
(9.89988 -0.0815262 -0.000831949)
(10.0225 0.060182 0.0181806)
(10.0039 0.0127191 -0.00347293)
(11.5 -0.466067 -8.95232)
(10.0115 0.0084305 -0.00237904)
(10.001 0.0224341 0.0138756)
(9.66148 0.766972 0.00186978)
(10.045 0.0836696 -0.00222682)
(10.0013 0.00621899 0.00587542)
(9.98187 0.0173477 0.0110863)
(10.0163 0.00324687 0.0094884)
(9.97641 0.00377587 0.00331819)
(9.72314 -0.0350842 -0.0908423)
(10.0008 0.0164234 0.00808226)
(10.5517 0.469377 -0.032263)
(10.1632 0.0786885 0.0139296)
(9.87878 0.266285 -0.0222941)
(8.8555 0.00684151 -0.340249)
(5.4872 -2.58239 0.393518)
(9.98344 0.013132 0.00528222)
(0.234182 -1.92363 -0.373251)
(9.97277 0.123398 -0.0169187)
(9.94491 -0.00131382 -0.0129277)
(9.99527 0.0293068 0.00574799)
(10.1652 -0.114151 0.000538098)
(10.0694 -0.0151918 -0.0120197)
(2.14593 -0.705895 -5.86529)
(9.08011 1.46951 1.2604)
(10.0555 -0.00936718 0.00670742)
(5.71002 -4.15175 1.00125)
(10.0367 0.0799801 -0.00277394)
(10.1981 0.0192728 -0.000899931)
(10.3624 -0.215421 0.0256638)
(9.99276 -0.00364256 0.0231659)
(11.9192 1.33494 1.49943)
(9.99482 0.0177628 0.00652148)
(4.8166 -4.06968 0.522248)
(5.49406 -0.846517 2.01954)
(2.10033 -1.55937 -0.198084)
(9.00913 -1.18758 -0.100894)
(10.0075 0.0105938 -0.00675695)
(10.8365 -0.404217 -0.0384209)
(9.98638 -0.0108058 -0.00666361)
(10.948 0.393977 0.681765)
(6.67214 -2.93426 1.49936)
(8.96083 0.579126 0.28802)
(10.839 -0.713526 0.119726)
(10.0716 0.029557 -0.00387493)
(11.0502 -0.20619 -0.0399059)
(10.86 0.330648 -0.654716)
(2.63051 0.688124 -0.359035)
(9.9989 -0.00383763 0.000904969)
(2.13402 -1.35269 0.347324)
(9.96146 -0.0102987 0.00639114)
(4.63644 -1.48904 0.961707)
(12.0459 -0.145582 1.38211)
(3.19346 0.415913 -0.272439)
(10.2199 0.352296 -0.0033379)
(9.17799 0.146443 -0.358542)
(10.0134 0.0131325 -0.00668643)
(9.27595 -0.0114407 -0.0509351)
(10.3821 -0.0655635 0.0176915)
(10.9444 -0.0819932 -0.0529793)
(10.2373 0.159761 0.00902204)
(11.0706 -0.361968 -1.54736)
(11.0815 -0.80152 1.83539)
(9.75696 0.445494 -0.0519689)
(10.7833 -0.00401771 -0.0351164)
(10.0444 -0.0094772 0.00343902)
(10.2101 -0.052962 0.0117051)
(10.1646 -0.0490327 0.0187331)
(10.1536 -0.0124577 -0.00134697)
(10.0437 -0.0014624 -0.00322044)
(10.5165 -0.324616 -0.0155075)
(10.2956 -0.057459 0.00427346)
(10.0462 0.0175872 0.0167062)
(10.0202 0.0380688 0.00343006)
(8.70183 0.150773 -4.15284)
(10.3061 0.18529 -0.0116756)
(5.31474 1.93949 -0.838639)
(10.3133 0.170492 -0.0260433)
(10.8806 -0.739696 -0.046097)
(10.2414 0.363384 0.0848002)
(10.2717 -0.0919752 -0.00415056)
(8.29273 -0.173771 -0.539869)
(9.96687 0.0878449 -0.00697615)
(-0.081965 -0.45621 -0.611291)
(9.9951 -0.0789835 -0.00640321)
(10.776 -0.947031 -0.0443392)
(10.4302 -0.0194232 -0.0238448)
(11.134 -0.409324 -0.000726482)
(1.77902 -4.13292 -5.94784)
(11.1277 -0.357935 -0.00649509)
(4.0498 0.050555 -4.38672)
(10.3794 0.170596 0.00532291)
(11.3268 0.412817 0.363297)
(10.5179 -0.0584328 -0.0203816)
(10.0002 0.00379589 0.00559476)
(9.99711 0.052203 -0.00496105)
(11.9098 0.801207 -0.803397)
(10.0449 -0.0345079 -0.00240377)
(11.0885 -0.776997 -0.0232342)
(10.352 -0.105546 -0.00229106)
(10.0072 0.00364937 -0.00689994)
(9.97175 0.0181998 0.00866612)
(10.0232 0.0290853 -0.000793157)
(9.19079 -0.291544 0.274448)
(10.8158 0.287968 -0.0585952)
(4.31469 0.0557897 0.501004)
(10.4321 -0.572112 0.0232742)
(9.79008 0.194964 -0.527318)
(12.2223 -0.539641 -0.968082)
(10.8493 0.949217 0.234823)
(11.1098 -0.844782 0.101238)
(10.1522 -0.0785305 -0.00761926)
(11.184 -0.0991708 -0.0676332)
(9.98169 0.00681071 0.00223912)
(11.8062 0.310514 0.26956)
(10.5205 0.040364 -0.0277945)
(10.7696 -1.21872 0.00117357)
(10.1639 0.231997 -0.0182868)
(10.0045 0.00529437 0.00558808)
(12.6367 0.290824 0.49044)
(10.0108 -0.0302274 0.00717991)
(10.4666 0.0217851 -0.010687)
(9.97607 -0.0172742 0.00644099)
(10.665 -1.21577 -0.148611)
(2.90627 -0.404389 -6.83389)
(10.0072 0.0149459 -0.00999547)
(5.53018 0.121794 -11.3716)
(8.93903 -1.18069 -0.773711)
(9.99471 0.119462 0.0196762)
(11.051 0.519571 -1.72824)
(7.29769 -3.92995 -2.67133)
(10.2098 -0.0712295 0.0130723)
(9.97571 0.00829624 -0.00288715)
(11.3827 -0.212101 -0.0205272)
(10.0318 0.0867083 0.0199057)
(10.0318 0.0158526 -0.00218202)
(10.1639 0.317628 -0.0297737)
(11.8761 0.235597 -0.627975)
(-1.03746 -1.61768 -2.04657)
(10.0154 -0.0297196 -0.00166761)
(3.14473 0.542393 -0.364189)
(9.92049 -0.00577483 0.0206275)
(12.0916 0.775878 -4.3632)
(4.00557 0.367433 -0.553066)
(9.97134 -0.00519402 0.000980498)
(10.0009 0.0244943 -0.00339094)
(9.42221 -0.991441 -0.677521)
(10.3789 -0.0285944 0.0177564)
(9.25074 -3.05816 -1.44439)
(2.75646 0.967893 -7.67209)
(10.0106 0.0130376 -0.0033867)
(10.0338 0.00151296 0.00277222)
(10.0552 0.000934239 0.0057436)
(2.60357 0.430703 -10.9869)
(10.0924 -0.186234 0.0359428)
(10.0261 0.00435508 0.000633574)
(10.0311 0.00506232 0.0129448)
(10.0401 -0.000638159 0.00383456)
(10.0268 0.0237494 0.00512949)
(10.2155 0.0849131 0.00883764)
(5.64263 -0.537869 -0.674051)
(9.81835 0.00699497 -0.00676056)
(10.2287 0.22466 0.0895675)
(10.0006 -0.0100837 -0.00336759)
(9.98225 0.00167304 -0.00129324)
(12.2053 -0.859644 -0.604741)
(9.99698 0.00178635 0.00381448)
(10.0264 0.00131022 0.0182913)
(11.2589 0.057029 -0.0575553)
(10.0017 0.00119362 0.00745102)
(10.0451 -0.0204556 0.0158095)
(11.4276 0.14778 -0.0637219)
(10.4427 -0.263643 0.0719353)
(9.99252 0.012657 0.00283927)
(10.5222 -0.0548409 0.00659344)
(8.72448 0.463172 -0.431819)
(11.2576 -0.106808 -0.0490798)
(10.3175 -1.48304 -1.01237)
(10.7029 -0.012602 -0.0413182)
(10.0033 -0.0131991 0.00843341)
(11.2149 -0.00603151 -0.051631)
(9.99547 0.0867501 -0.0138894)
(10.0026 0.0128671 -0.00273701)
(10.4381 -0.177325 -0.00568472)
(11.2434 0.144504 -0.010327)
(10.0069 0.0239887 -0.000329288)
(9.95858 -0.0435046 0.0157915)
(10.8054 -0.0531405 0.000459272)
(11.3911 0.257728 -0.15674)
(10.8563 0.0377984 -0.0642266)
(11.335 0.250478 1.59871)
(8.66227 -1.29635 -0.698699)
(9.94396 -0.0434702 0.0101949)
(11.8599 -0.526116 1.29706)
(11.3388 0.21066 0.170756)
(9.82928 -0.757998 -1.12853)
(10.9468 0.205015 -0.0343535)
(10.6754 -0.00432383 -0.0257387)
(11.9755 -0.751855 1.19969)
(10.0321 -0.00607133 0.00815937)
(11.3042 0.282357 -0.056757)
(11.578 0.169225 -0.00889167)
(12.0483 -0.212312 -0.326681)
(10.848 0.0366595 -0.059102)
(9.98654 0.00623452 -0.0031783)
(10.6459 -0.0762672 -0.0102585)
(10.0009 -0.00449089 -0.000536121)
(9.79664 -0.00845149 -0.00810402)
(9.9917 0.263237 0.00979207)
(11.8175 -0.130507 1.41551)
(9.96811 0.0244235 0.00403314)
(12.1599 -0.0334375 1.25235)
(9.78759 0.000813042 -0.0417221)
(9.87703 -0.0134092 -0.0139851)
(10.0058 0.00755539 0.00988873)
(10.0892 -0.032089 -0.00502165)
(11.6847 0.888222 0.0699078)
(10.3889 0.486051 -0.00772399)
(10.0077 -0.00302026 0.0119696)
(10.4689 -0.0788071 -0.0155234)
(10.0108 -0.000421621 0.00276772)
(10.0115 -0.0252429 0.012004)
(9.94874 -0.000964495 -0.0105228)
(9.9858 0.104337 0.036482)
(12.0486 -0.456503 1.39119)
(9.97453 0.00768459 0.00338713)
(10.0032 0.00422374 0.00560401)
(9.91754 0.010877 0.00364678)
(10.0314 0.000910772 -0.00613435)
(9.85253 0.0632767 -0.0309952)
(9.74382 0.01872 0.0132737)
(10.4753 -0.735154 0.122009)
(10.0098 1.7491e-07 -0.00678876)
(9.74243 0.0248395 0.0115976)
(9.99887 0.0259077 -0.00062624)
(10.2108 0.0505378 -0.0076258)
(10.1159 0.0109004 0.0038713)
(12.0832 0.035262 0.774904)
(10.6172 -0.390008 -0.147957)
(10.04 -0.000354952 -0.000628463)
(12.1547 0.0678416 0.598239)
(10.0164 0.00123661 0.00434002)
(10.2048 0.0954393 -0.00264977)
(10.1798 0.0509831 -0.00158241)
(12.2603 0.111342 1.04128)
(11.7083 0.0845071 1.28272)
(10.2049 -0.162993 -0.0192379)
(12.1349 -0.189429 1.40523)
(10.0463 0.00315878 -0.00334573)
(12.2039 -0.0293782 1.23763)
(6.57946 3.334 2.11901)
(11.6935 -0.0387159 1.35892)
(5.92892 1.2894 -5.28868)
(4.24201 -4.26773 0.415463)
(10.3448 0.199622 0.0075841)
(3.04186 -3.82565 -0.342789)
(9.88122 -0.0112964 0.00881617)
(10.0088 -0.00982756 0.0173724)
(11.3862 -0.164659 -0.00704443)
(9.90567 -0.00851306 0.0116453)
(9.93677 0.00742534 -0.00699458)
(9.82728 -0.257303 -0.0223636)
(11.1576 -0.464778 -0.161013)
(1.38612 1.72472 -3.71571)
(9.20411 0.840717 -0.0285074)
(10.0028 -0.00171327 -0.00225747)
(10.0168 -0.00274843 -0.0161087)
(9.98581 0.00689493 -0.00434261)
(10.1541 0.38796 0.414765)
(11.599 0.954893 0.236429)
(10.2073 -0.718275 0.0870023)
(9.99376 -0.131996 -0.00183958)
(12.0175 -0.16478 -0.002779)
(10.2088 0.170423 0.0448894)
(10.0958 0.0463616 0.000905715)
(9.95649 -0.0207298 0.00498853)
(10.0135 0.00213249 -0.00743363)
(9.89987 4.15544 -0.598908)
(5.53824 1.77319 -0.653678)
(1.50284 1.21121 -6.40529)
(10.0537 -0.0105324 0.000124536)
(10.1078 -0.0395398 0.00786423)
(10.0408 -0.637582 -0.0772815)
(10.1801 -0.501602 -0.158123)
(1.2545 -0.817492 -5.86389)
(9.97087 0.00149615 -0.011058)
(9.94317 0.0024625 -0.0100404)
(10.7902 2.13059 0.498015)
(10.331 -0.148577 0.023263)
(9.84826 0.00932443 -0.00698034)
(9.80821 0.00993458 0.000598767)
(9.89785 0.00174301 7.0024e-05)
(12.1863 2.67315 -1.11949)
(11.2599 1.83816 0.417993)
(10.0651 0.195143 -0.00918384)
(10.0996 0.128218 -0.0073911)
(10.0266 -0.0122625 0.00945323)
(10.3678 -0.0384524 0.00456506)
(10.0525 -0.00286346 0.00618037)
(10.0651 0.231908 -0.00293002)
(10.1887 0.0558818 0.0176339)
(10.0507 -0.0186776 -0.00479808)
(9.98007 -0.0183273 0.000883071)
(11.6142 -0.0662888 0.226974)
(8.50033 0.594364 -0.520183)
(10.6284 -0.730457 -1.4024)
(10.0082 0.0135406 -0.000865584)
(9.9656 -0.00723925 0.00731159)
(10.0509 0.000576179 0.00313039)
(8.75556 0.917606 -0.55242)
(9.97872 0.104364 -0.00312702)
(10.0257 0.022756 -0.00572515)
(10.0255 -0.0538072 -0.00636503)
(10.0266 0.2633 -0.0503115)
(10.0235 0.289193 -0.0528193)
(10.1862 0.131514 0.0220516)
(9.94069 0.268284 -0.040942)
(10.0475 -0.0156364 -0.00664991)
(10.0495 0.00105354 0.00555507)
(9.9844 -0.00512266 0.0216653)
(9.66391 0.457538 -0.210418)
(9.94834 0.000478446 -0.00373812)
(9.9399 -0.014593 0.00368784)
(10.0143 0.237355 -0.041968)
(10.4285 -0.476985 -0.102534)
(10.0548 0.257129 -0.0264285)
(9.96317 0.20345 -0.0245882)
(10.0191 0.195483 -0.032827)
(11.173 -1.44022 -0.293778)
(9.94475 0.00457762 -0.00583369)
(9.19935 0.241246 0.043117)
(9.98108 0.155782 -0.0141569)
(9.99503 0.0229899 -0.00812003)
(9.4992 0.315564 1.90434)
(11.5594 0.157048 -0.466843)
(10.1436 -0.0467532 0.00851717)
(9.92352 0.00237478 -0.00359113)
(10.3696 -0.445235 -0.0143759)
(10.9009 0.399042 -0.123976)
(9.77205 0.00376947 -0.00832537)
(10.0109 -0.0064081 -0.00888084)
(9.976 -0.132925 0.00103478)
(10.2333 0.769969 -0.156888)
(9.80994 0.000393455 -0.00754462)
(-0.538902 -2.41754 -0.547774)
(10.8257 -0.10731 0.0106992)
(10.0285 1.00777 -0.138664)
(9.97936 -0.00183865 0.00743665)
(10.0223 0.889945 -0.113314)
(10.9664 0.478045 -0.272819)
(10.0103 -0.000979614 0.000535928)
(10.0034 0.00577908 0.00448102)
(9.75359 -0.0323232 -0.0727027)
(10.011 0.00329625 0.00483682)
(10.0454 0.902505 -0.164677)
(10.1311 -0.133091 0.0116828)
(10.0051 0.0234649 0.00671066)
(9.98524 -0.0548433 -0.00292068)
(10.0014 0.0181832 0.00593004)
(9.95999 -0.0129364 0.00609071)
(10.2297 0.179928 -0.0109812)
(10.0002 0.00630818 0.00819052)
(9.97311 0.015366 0.0073327)
(10.578 0.958333 -0.372102)
(10.3596 1.16634 -0.429236)
(9.96786 -0.00995836 -0.00221862)
(10.5215 -0.559218 -0.00158286)
(9.98203 -0.00707263 0.00793743)
(10.5013 0.898664 -0.329915)
(9.95603 -0.0711764 0.000701161)
(9.98613 -0.00167326 -0.00172428)
(12.211 0.718786 -0.430119)
(10.0558 0.00890428 -0.00962929)
(10.7025 0.093746 1.09439)
(10.0792 -0.00202463 -0.0009438)
(9.36746 1.55475 -2.09125)
(9.92492 0.0046578 -0.00543348)
(10.7689 0.15435 0.00395512)
(9.92984 0.00133743 -0.0159203)
(10.0322 0.0153343 0.00220515)
(9.80957 0.00738378 -0.00259433)
(10.0445 0.00208481 0.00161426)
(9.97439 -0.00317729 -0.0200407)
(10.3582 1.04515 -0.335359)
(0.921093 -1.66678 0.602467)
(2.0491 -0.750173 -2.60177)
(10.1116 0.0970735 0.00858411)
(10.3761 1.56776 -0.987076)
(10.7874 0.787046 -0.361687)
(10.8919 0.743224 -0.349674)
(9.97631 -0.00895148 0.0159036)
(9.99676 0.00356816 0.00822295)
(9.95983 0.0252256 0.00991451)
(9.84269 0.00669037 0.00787116)
(9.94723 -0.013462 -0.00138705)
(10.2213 -0.292414 0.0130063)
(10.9082 0.682827 -0.24204)
(9.94051 -0.0155505 0.00137142)
(10.0453 0.00905925 0.00622488)
(11.6743 -1.05803 -0.0077097)
(11.6539 0.555368 -0.269444)
(11.2752 0.632828 -0.211962)
(8.06533 -1.3356 -5.2117)
(-0.0130587 3.22885 0.484246)
(10.7803 -0.317092 -0.00650788)
(7.40718 -0.985606 -5.75219)
(-0.0694463 3.10107 0.671329)
(9.85713 -0.279572 -0.0347456)
(-0.126834 3.10895 0.623699)
(9.44 -0.321607 0.883179)
(9.99833 -0.0771989 0.020222)
(11.1524 0.694359 -0.382848)
(11.0941 0.753753 -0.409569)
(11.4027 0.654534 -0.378423)
(-0.835985 2.22257 0.896602)
(10.3164 0.149401 0.00371375)
(10.0216 0.0522073 0.00197623)
(10.0081 -0.0236471 -0.00438485)
(11.4763 0.690229 -0.497311)
(11.3402 0.733954 -0.560206)
(10.148 0.0263152 0.0236154)
(10.1911 0.151986 0.039006)
(9.45913 2.92312 1.57102)
(-0.705416 2.27162 0.902904)
(13.0418 -0.570363 -3.22852)
(10.0062 -0.0143029 0.00829621)
(8.82899 -0.759178 -3.37502)
(10.5315 0.689112 1.21722)
(10.0149 -0.103956 0.0105634)
(11.0493 0.521414 -0.0778155)
(12.2469 0.246594 0.185892)
(11.0253 0.432152 -0.0677034)
(9.99457 -0.0179874 0.00490671)
(9.99852 -0.00473052 0.00705795)
(9.98287 -0.00660304 0.000751391)
(10.466 0.443736 -0.0246273)
(9.99913 0.0019662 -0.000422672)
(9.97483 -0.0118805 0.0127131)
(10.149 0.0760995 -0.0105576)
(9.94078 0.00482154 -0.0180444)
(11.2345 0.306765 -0.0907005)
(10.0051 -0.0332022 -0.0157559)
(9.96637 0.0150912 -0.00445295)
(9.99588 -0.0195558 0.00200814)
(10.0054 -0.00715358 0.00896156)
(9.96312 -0.00319174 0.00438673)
(10.3858 0.35697 -0.0175054)
(10.0902 0.0497183 -0.00550467)
(10.1419 0.0206365 0.0348388)
(11.1387 0.30871 -0.0796913)
(8.19845 3.1782 1.20117)
(9.97241 -0.00635095 -0.00156909)
(12.0665 1.55767 -1.6136)
(9.99698 -0.00834688 -0.0027004)
(11.0651 0.0666219 -0.0397312)
(7.72844 -0.363847 2.35673)
(9.76555 1.4813 -0.674407)
(10.0226 0.0430983 0.00234202)
(9.83362 1.56504 -0.751523)
(10.0078 0.0254149 0.00703964)
(10.0318 -0.0156869 -0.00976956)
(10.0977 1.35046 -0.978667)
(9.99384 -0.00600119 0.0241396)
(10.848 -0.258087 0.00150026)
(9.96308 1.24443 -0.695755)
(10.3783 -0.0917178 0.0141328)
(10.6513 0.0962969 -0.288453)
(8.25036 0.375935 -4.20731)
(10.121 -0.0595813 0.0141484)
(9.59679 1.94517 -0.707605)
(10.0495 -0.0217612 -0.00387618)
(9.02304 2.07043 -1.13117)
(10.1909 -0.185069 0.0430147)
(10.0205 -0.00480327 0.00747489)
(9.95599 0.0262932 0.0185914)
(9.99224 0.00736266 -0.0172204)
(10.6535 1.13282 0.828426)
(9.95973 0.00434453 -0.0243162)
(9.99674 0.00484007 -0.019397)
(10.0097 -0.0405028 0.00995459)
(9.89298 0.16575 0.020235)
(11.133 0.772576 -0.0435796)
(10.0134 0.00402644 0.00259691)
(9.99491 0.00112768 -0.000532302)
(8.62783 0.339442 -0.660935)
(10.0088 -0.00333955 -0.0104574)
(9.77196 0.176343 -0.0794205)
(10.142 -0.239872 0.0639444)
(10.0926 0.0517396 -0.00941899)
(10.0439 -0.00629653 -0.000633787)
(9.94641 0.0101417 0.00876038)
(10.0888 0.0311821 -0.0131456)
(10.3854 1.38875 -1.14097)
(10.0033 0.00994742 0.00677378)
(9.98894 0.00447232 0.00290122)
(3.02289 -0.615456 -5.8907)
(9.96152 -0.01005 0.0125196)
(9.98509 -0.0133909 0.00515196)
(9.97127 0.135459 -0.0122119)
(10.0037 0.0112263 0.00691691)
(12.6363 1.48054 -1.02233)
(12.7529 1.1955 -0.809992)
(9.96202 -0.0044884 -0.00155995)
(9.85321 -0.148506 -0.0263967)
(9.90348 0.0442419 0.0273539)
(11.8101 0.190452 1.21651)
(10.0498 0.060915 -0.000224645)
(12.7958 1.26817 -0.857568)
(9.99932 0.00594765 -0.00308455)
(-1.96206 -0.316758 1.07248)
(8.15273 -0.53179 -0.764992)
(9.11324 -0.881644 1.74516)
(10.0009 0.00745215 0.0183906)
(12.7208 1.22341 -0.807158)
(10.0636 0.00152465 0.00264754)
(10.2445 0.135738 0.0354376)
(9.97223 0.00195178 -0.0142787)
(9.10353 0.222341 -0.1184)
(10.049 -0.00370208 0.00501523)
(10.0133 0.0287085 -0.00637869)
(5.83479 -1.47032 -1.00278)
(9.98478 0.000584366 -0.0005648)
(9.91567 0.00660071 0.00396692)
(10.0262 0.0062098 0.0237149)
(12.499 1.64478 -0.917251)
(10.0738 0.0335675 0.000768056)
(9.99303 -0.0162543 0.00868117)
(12.352 1.54804 -0.937161)
(12.3051 1.07933 -0.451722)
(9.96243 -0.012663 0.0123551)
(10.0603 -0.0103065 -0.00210838)
(-0.123079 1.77248 0.365043)
(10.0384 0.00815267 -0.00660351)
(10.8529 -0.422941 0.0814063)
(10.0168 -0.00250647 -0.00938966)
(10.0353 0.00615387 0.0217389)
(10.0518 -0.0260676 -0.00236052)
(11.9323 1.18393 -0.485161)
(11.6614 0.339803 1.39557)
(9.1776 0.740436 0.740814)
(9.626 0.162224 0.0172192)
(10.0907 -0.118641 0.022275)
(10.0382 0.00494665 0.00223074)
(12.5488 -0.570217 -0.430955)
(9.30883 0.249317 -0.475337)
(9.68414 0.0714908 -0.169675)
(-0.0421371 1.66871 0.248312)
(9.99283 0.000740758 -0.00288521)
(10.0452 -0.00267666 -0.0134118)
(-0.209146 1.58562 0.33543)
(12.1366 1.70326 -1.34044)
(9.90933 0.0887644 -0.0165038)
(0.0102042 1.75664 0.268986)
(0.0136891 1.77406 0.345287)
(10.0173 0.000116656 -0.00376479)
(9.99745 0.0150806 0.00156319)
(10.021 -0.00834552 -0.00421057)
(9.59793 -0.336446 -0.016922)
(9.99741 0.00321502 -0.0072717)
(9.9555 -0.0167187 0.00214409)
(9.85839 -0.405087 -0.555432)
(10.0537 0.283057 -0.00311572)
(9.94084 0.00357731 0.00549049)
(10.0301 0.0200971 -0.00220218)
(12.5239 1.50701 -0.46418)
(11.8356 1.44504 -0.482629)
(9.96934 0.0100533 -0.000537862)
(10.5241 0.386896 -0.0330849)
(-3.089 -2.01426 -0.0437986)
(-2.33208 -3.18394 1.66483)
(10.9435 0.440116 -0.125579)
(9.93089 -0.00721003 -0.0015434)
(10.3185 -0.209557 0.238814)
(11.0585 -0.0916714 -0.811988)
(9.86423 -0.0103704 0.00143104)
(9.86284 -0.0144331 0.00992833)
(10.051 -0.0387436 -0.00304469)
(10.3336 0.15106 0.014289)
(9.97956 -0.0130718 0.00688653)
(11.0207 0.346209 0.312967)
(9.99937 0.00341081 0.000251271)
(13.1984 0.817311 -0.783067)
(10.3552 1.57227 -1.24122)
(10.8102 0.426271 -0.0794794)
(13.2126 0.998618 -1.12546)
(10.0623 0.0365096 0.00480059)
(10.0019 -0.00505435 0.0105158)
(10.3443 0.803438 0.131268)
(10.1557 -0.0918713 0.0321372)
(10.0172 -0.003796 0.0094277)
(10.0039 0.00729856 -0.00318674)
(11.2912 0.326369 -0.620198)
(7.931 -0.78751 -1.53908)
(10.0171 -0.00406984 -0.00805425)
(11.1002 0.129311 -0.0326335)
(9.96908 0.3697 -0.0498008)
(10.9008 -5.20365 -2.68431)
(10.3858 -0.90624 0.845152)
(12.0683 0.0590019 0.910507)
(6.61654 0.0763639 0.230548)
(6.38593 0.0566108 0.0733229)
(10.054 0.0122474 0.00577536)
(10.0876 0.379524 -0.116331)
(4.31605 -0.0351919 -0.191875)
(9.95576 0.00885634 -0.00332835)
(10.0198 -1.75675 -3.63016)
(8.11977 -0.268267 1.22506)
(9.98435 0.00159142 -0.00219422)
(10.004 0.433938 0.237906)
(10.0243 0.0111125 -0.0130388)
(10.0368 0.00484397 0.0145166)
(10.0167 0.00211627 -0.000707813)
(13.4048 0.654787 -0.293287)
(9.97642 0.0100478 -0.00396214)
(9.98472 0.00408245 -0.00149534)
(10.0593 -0.037537 -0.0131445)
(9.79968 0.00351224 -0.0101357)
(10.0699 -0.0164401 0.0237647)
(9.96547 0.00722263 -0.00942824)
(10.0519 0.0228161 0.000104071)
(9.8274 -0.0778052 0.0106956)
(10.9327 1.21789 0.684913)
(9.03229 -1.12305 -2.24365)
(12.1374 3.79661 2.02986)
(10.7682 0.604634 0.017433)
(9.57574 1.49863 1.2565)
(9.97933 -0.00560791 0.00287777)
(9.25372 -1.00149 0.0554758)
(9.97258 0.0122178 -0.00137211)
(10.0005 0.00252887 -0.0108695)
(10.0031 0.00381688 -0.00839497)
(9.99982 0.00122343 -0.00769528)
(9.98423 0.0175751 -0.00617155)
(9.20204 0.457905 -0.92767)
(11.0516 0.818019 0.205175)
(9.98659 0.0134383 -0.00554836)
(10.2276 -0.586813 0.0585074)
(11.1327 1.67406 2.0032)
(9.96876 -0.00471904 -0.000766586)
(1.41838 0.726065 0.189595)
(13.3109 -1.02122 -3.18567)
(9.95081 -0.0191163 0.00401213)
(9.31662 -0.551097 -0.00137992)
(10.4808 0.0246325 0.0318484)
(10.0372 -0.00825287 -0.00540426)
(2.18787 1.21219 0.304933)
(9.99046 -0.0184164 -0.00106556)
(4.94053 -1.26864 -0.445973)
(9.96981 -0.0081423 0.00415045)
(12.0689 0.0368073 1.10261)
(12.2476 0.428491 -0.104431)
(9.95074 -0.0208407 0.00409345)
(9.8991 -0.00361723 -0.00322076)
(10.1944 0.638585 0.041706)
(8.6563 -0.627417 -2.36248)
(9.92441 0.0116758 0.00070297)
(10.035 -0.0152569 -0.000854646)
(10.4324 -0.0110629 -0.0162847)
(12.6931 -0.0534313 0.501254)
(10.0008 0.00356914 0.00193878)
(12.5078 0.347041 0.159366)
(10.5711 -0.0117644 -0.0304438)
(-0.190902 0.093913 -0.952893)
(12.2012 0.347784 0.00877721)
(10.5028 -0.0185171 -0.023504)
(12.3431 0.345687 0.108462)
(10.0006 -0.00338619 -0.00364628)
(10.1319 -0.182297 0.00968228)
(10.5338 0.447047 0.0179895)
(10.5571 -0.0544918 -0.0308423)
(12.5108 0.429755 -0.0219124)
(9.99907 -0.0223207 -9.53299e-05)
(10.0579 -0.239946 -0.0254014)
(12.3621 0.418156 -0.0479544)
(9.95432 -0.0308468 0.00270506)
(10.5931 -0.0509683 -0.0287172)
(9.98268 -0.0207075 -0.0076143)
(10.0535 -0.0180437 0.0180065)
(6.88795 0.419052 -5.21959)
(6.71472 -0.0941975 -5.81587)
(9.66884 0.0824996 0.343994)
(8.85279 0.440855 -4.27277)
(9.99478 -0.0180791 -0.00802577)
(9.94883 -0.0217971 -0.00975478)
(10.8847 0.676829 -0.286351)
(10.5895 -0.180653 0.00562308)
(8.02408 0.0867282 1.37308)
(10.0124 -0.0165951 -0.00824071)
(10.097 0.0735731 -0.00560869)
(9.997 -0.0101992 -0.00253225)
(10.031 0.0924129 0.0256989)
(5.28797 0.260609 -6.46355)
(3.87775 -1.67161 1.68547)
(9.98652 -0.0133897 -0.00265616)
(10.0174 0.0395145 -0.00672057)
(10.0472 -0.101415 0.00484507)
(9.86499 -0.0798803 0.00861241)
(10.2888 -0.183424 0.0458126)
(9.9712 -0.0139153 -0.00338662)
(11.4006 0.0395065 -0.0518684)
(11.7341 -1.17195 0.897965)
(10.1898 0.0342741 0.0280883)
(10.0404 0.00750905 0.00126424)
(10.0002 -0.010299 -0.00176563)
(10.0031 0.079628 0.0162578)
(9.69632 0.196098 0.0260125)
(10.0061 -0.0060097 -0.00601662)
(10.8513 -0.133574 -0.0447787)
(9.95427 0.0030131 0.00337794)
(10.0199 0.0280927 -0.00778143)
(10.1146 0.093186 0.0221275)
(9.26363 -0.876652 -1.32346)
(5.15741 0.73202 -4.87675)
(10.0636 -0.0961823 0.00644345)
(-0.128375 -1.8003 0.207407)
(9.82866 -2.4077 0.535381)
(13.3032 -1.19306 -1.2417)
(-0.136361 -1.76682 0.177287)
(10.5195 0.0497981 -0.0153738)
(6.20849 -0.339649 2.27619)
(10.6173 -0.511149 -2.68119)
(10.8594 -1.70735 0.332546)
(5.66798 0.333676 -3.87462)
(-0.139385 1.66969 0.58013)
(1.49881 0.63401 -3.66831)
(11.8619 -0.0899126 0.685672)
(10.8673 -0.0122436 -0.0567164)
(11.7799 0.129337 1.03703)
(9.9231 0.00434303 -0.00309586)
(3.71342 -0.333007 -0.401602)
(10.8601 0.0842762 -0.360107)
(10.7668 -0.0167123 -0.0301334)
(9.96455 -0.06534 0.0595755)
(10.0045 0.00928454 -0.0177092)
(11.8645 0.193836 1.20449)
(9.95939 0.155139 0.0255533)
(10.227 -0.0460499 0.019615)
(9.97153 0.0203553 0.00169804)
(-0.370184 1.03552 0.0913505)
(8.09883 0.33666 -2.57456)
(10.0145 -0.00749915 0.00853353)
(9.98442 -0.00479163 0.0044146)
(5.02749 0.317399 -2.50173)
(5.9173 0.172983 -3.16633)
(10.5331 -1.68524 -0.963046)
(-1.62403 -2.44197 -1.24964)
(5.66734 0.174879 1.7808)
(4.04927 0.0340215 -3.98127)
(3.77095 -0.0203075 -4.83392)
(10.0055 -0.0039969 0.0102642)
(9.81029 0.00335672 -0.000327388)
(9.47011 -0.0269521 0.0156904)
(10.0212 -0.00810358 -0.00507631)
(10.4156 0.0435067 -0.0112612)
(-0.22222 1.73774 0.341207)
(11.0078 -0.0124446 -0.274519)
(10.4694 0.0352654 -0.0111368)
(10.3345 0.0332205 -0.00493698)
(10.0523 -0.00192429 0.00731634)
(-0.206737 1.58416 0.745629)
(-0.40535 1.6156 0.713789)
(10.0594 0.0143919 -0.0111772)
(10.4109 -0.00162976 -0.0211938)
(9.9324 0.0313596 -0.00324024)
(10.0502 -0.020041 -0.00441167)
(10.3593 0.0131235 -0.00608903)
(10.0475 -0.0191625 -0.0106305)
(9.6758 -0.011003 -0.0740473)
(10.0031 0.00429943 -0.0133122)
(9.98205 -0.0211418 -0.00349301)
(6.99123 -0.771199 -3.23138)
(10.0467 -0.00032472 0.0053839)
(10.0516 -0.00392373 7.16631e-06)
(10.0097 0.00167547 -0.00829342)
(9.84149 0.00475362 -0.00730278)
(9.8605 0.00531605 0.00248334)
(4.26077 -0.620025 -2.54056)
(12.6845 -1.24004 -0.864734)
(10.0437 -0.00405103 0.00359851)
(10.8869 0.462217 -0.217831)
(10.0151 0.0270666 -0.00794049)
(9.67332 -0.324001 0.0940855)
(9.62875 -0.409533 0.146697)
(12.4227 -0.0428955 -0.0844108)
(9.83681 0.00363784 -0.00558056)
(-0.390878 -1.08242 0.850513)
(12.5121 -0.195064 -0.169358)
(10.5057 0.158182 -0.0183363)
(10.857 0.431593 -0.065076)
(8.09668 0.369991 -3.51478)
(10.3318 3.14258 1.6383)
(9.99264 0.00624746 0.00377621)
(9.98909 0.00680038 -0.000829389)
(11.4181 1.72869 2.13384)
(10.0028 -0.0941115 -0.0105507)
(9.99927 0.0339596 0.0053305)
(10.7659 0.798722 0.336937)
(9.97262 0.00351916 -0.00109576)
(9.98352 -0.00281755 0.00163794)
(-2.63654 0.785242 1.27574)
(12.5375 0.881812 -0.302085)
(10.2064 3.60811 -0.519966)
(10.0019 0.000777507 0.00490158)
(7.71934 0.634017 -2.72838)
(10.0137 0.00307928 0.0117232)
(12.1191 0.269324 -0.275508)
(9.47626 -0.389379 0.233151)
(12.5037 -0.0812446 -0.0947063)
(9.93767 0.00365486 -0.00072511)
(9.286 -0.418412 0.186586)
(-1.04603 -0.60312 0.690281)
(11.391 1.84901 2.6215)
(12.6359 -0.461982 -0.946024)
(-0.989788 0.998027 0.558554)
(12.4882 0.32284 0.153339)
(10.7032 0.176709 0.00424678)
(9.96204 0.00738582 0.00507044)
(12.2513 -0.404995 -0.274109)
(10.0026 0.00373648 0.00573358)
(12.6794 -0.0928819 -0.0774722)
(-0.0453263 -1.41333 0.552416)
(10.0031 0.00481976 0.00514059)
(12.8723 0.139265 -1.42523)
(9.90057 -0.00616831 -0.00395828)
(9.89755 -0.0180789 -0.00206055)
(11.0584 -1.21613 -0.687853)
(9.94383 -0.0173866 -0.0107896)
(10.3597 0.132268 -0.0150805)
(7.99126 -5.74882 -0.0596381)
(9.50762 0.455971 0.0226332)
(10.0199 -0.242458 -0.0236535)
(12.8757 -0.572652 -0.130141)
(10.7292 1.64219 0.928307)
(10.053 -0.0308423 0.00743569)
(11.7109 -2.69503 -1.14528)
(5.25747 -0.90194 -0.237927)
(10.7819 0.0440518 -0.0113966)
(9.61827 -0.727369 -0.918809)
(10.0799 0.153433 0.0409979)
(10.6835 0.257907 0.00346016)
(9.99857 -0.0177076 -0.0125737)
(10.0495 -0.0248063 0.00875531)
(-1.27001 1.1885 0.317992)
(0.72368 -4.35199 1.91945)
(12.0091 -0.896969 0.295743)
(10.044 -1.20491 -0.854445)
(12.4153 -0.588618 -0.481642)
(0.912196 4.85351 0.647507)
(-1.47087 -0.0807362 -1.06912)
(9.07999 -3.59868 4.18393)
(10.0576 -0.0190418 0.0148919)
(10.0024 0.0122845 -0.0103006)
(9.98851 0.0132336 -0.00436274)
(9.8649 -0.0230895 0.00283982)
(0.508488 1.28502 0.922885)
(9.5961 -0.534935 0.162152)
(8.93293 -0.652626 0.995221)
(9.98679 0.020654 -0.00992302)
(-0.187829 -1.46669 0.0537136)
(12.5948 -0.0665328 -0.159413)
(10.8749 -0.0754704 -0.266057)
(10.2073 0.0409915 0.00781101)
(10.0336 -0.0155246 -0.0124637)
(10.2158 0.0421558 0.0170029)
(6.21124 -1.86928 -3.32912)
(10.0048 -0.00297462 -0.00705695)
(3.05354 3.6781 -1.24747)
(10.0224 0.00597708 6.4507e-05)
(10.3487 -0.647357 -3.16184)
(9.98817 -0.00371413 -0.00297144)
(9.99887 -0.00626451 -0.00620572)
(10.0091 -0.0100197 -0.00745185)
(10.0141 -0.00998139 -0.0111624)
(9.98809 -0.0118122 0.00333716)
(12.5512 1.64773 0.637646)
(11.5076 0.362664 0.703204)
(8.88292 1.48243 2.31665)
(6.89399 4.01964 2.296)
(9.31231 1.22782 0.39643)
(10.4323 0.58311 -0.0946274)
(11.1433 1.33143 -0.00907559)
(6.646 -0.458255 -2.99649)
(10.7652 -0.148615 0.0106319)
(12.2168 -0.469045 0.0959057)
(10.8379 -0.726855 -0.0534575)
(12.391 0.0821464 -0.0638976)
(8.36404 -0.248342 4.36934)
(6.14537 -1.26326 2.43607)
(10.784 -0.396104 0.17608)
(9.99934 -0.00942825 0.00495636)
(9.56413 0.974713 -0.367772)
(10.0041 -0.00549785 0.00980534)
(10.3074 -0.0231148 -0.00599776)
(12.5662 -2.41645 3.13563)
(12.5601 -0.373794 0.681311)
(-0.80018 3.57705 -0.424322)
(10.106 -0.972716 0.181277)
(11.9473 -1.00767 -0.644055)
(10.546 -1.06376 -1.21704)
(10.0557 -0.418119 0.958295)
(10.3479 -0.0501608 0.00208424)
(-3.5763 -2.46803 0.859821)
(10.1492 -0.0139647 0.00873786)
(10.2298 -0.0199899 0.00177393)
(11.1738 -0.19798 1.42886)
(9.77113 -0.132901 4.6105)
(10.3838 -0.0546624 0.00736155)
(10.3099 0.574338 -0.447614)
(9.97076 0.00107618 0.000396698)
(10.4884 -1.45777 0.55601)
(11.4554 -0.110328 1.51617)
(9.95133 -0.0250833 0.00380456)
(11.1723 -0.442135 -3.1522)
(9.52033 2.10567 -1.83011)
(11.7837 0.46426 1.30409)
(11.0944 0.268964 -0.19903)
(9.48125 0.111539 0.256242)
(3.10588 0.952743 -3.86078)
(0.229601 3.39353 2.7906)
(5.22041 3.18849 0.611899)
(13.3311 -0.858541 -3.02812)
(3.99886 -0.846264 -0.443138)
(9.74882 -0.00747646 0.00347889)
(9.88822 -0.0363467 -0.00344058)
(8.23061 1.72608 2.62115)
(9.93859 -0.00350997 0.00285422)
(4.52886 -0.834115 -0.319273)
(9.80632 -0.00970192 0.000603062)
(9.777 -0.0117088 0.000500796)
(-0.0900121 -2.04949 1.06631)
(9.47493 -1.3315 0.806312)
(10.8905 -0.667456 0.0866671)
(9.97184 0.00131676 0.00458644)
(10.0014 0.0183649 -9.35711e-05)