/*--------------------------------*- C++ -*----------------------------------*\
| =========                 |                                                 |
| \\      /  F ield         | OpenFOAM: The Open Source CFD Toolbox           |
|  \\    /   O peration     | Version:  2506                                  |
|   \\  /    A nd           | Website:  www.openfoam.com                      |
|    \\/     M anipulation  |                                                 |
\*---------------------------------------------------------------------------*/
FoamFile
{
    version     2.0;
    format      ascii;
    arch        "LSB;label=32;scalar=64";
    class       volScalarField;
    location    "0.020811";
    object      k;
}
// * * * * * * * * * * * * * * * * * * * * * * * * * * * * * * * * * * * * * //

dimensions      [0 2 -2 0 0 0 0];

internalField   nonuniform List<scalar> 
47425
(
0.359672
0.382764
0.358243
0.349256
0.47013
0.360967
0.439714
0.362631
0.368146
0.920407
0.36753
0.382061
0.402553
0.358458
0.360237
0.368924
0.359245
0.398342
0.955266
0.529644
0.357372
0.359793
0.371216
0.358863
0.371144
0.361073
0.3564
0.810722
0.355539
0.371631
0.369582
0.369756
0.365877
0.364865
0.36044
0.367351
0.363526
0.371504
0.363377
0.354756
0.384731
0.366241
0.408664
0.380381
1.46396
0.389099
0.36904
0.367898
0.359113
0.362945
0.73717
0.428547
0.360822
0.80645
0.391958
0.375974
0.362507
0.369231
0.46129
0.366083
0.873639
0.680431
0.782328
0.38315
0.366133
0.365875
0.369417
0.369587
0.800235
0.389613
0.35949
0.367997
0.363785
0.363363
0.744942
0.370042
0.778827
0.363132
0.844844
0.507831
0.755408
0.364005
0.365845
0.371085
0.360088
0.362285
0.362954
0.356979
0.451016
0.580177
0.370372
0.369993
0.365054
0.384345
0.393493
0.380671
0.358341
0.358503
0.355963
0.385004
0.363931
0.472532
0.360566
0.501274
0.361342
0.366609
0.360222
0.354132
0.35673
0.372726
0.595092
0.361507
0.374346
0.370755
0.364083
0.787644
0.363531
0.646076
0.385325
0.372213
0.353444
0.366069
0.373943
0.397902
0.376604
0.383215
0.368234
0.366568
0.380402
0.366067
0.368033
0.374049
0.544887
0.382233
0.369294
0.397683
0.368889
0.384043
0.365327
0.354791
0.374419
0.389596
0.359042
0.401898
0.369688
0.367359
0.421954
0.363977
0.379077
0.374837
0.396077
0.764256
0.36591
0.771605
0.383563
0.367127
0.397403
0.867302
0.391674
0.377211
0.36974
0.366162
0.360867
0.365226
0.670152
0.794909
0.371188
0.749373
0.368368
0.822817
0.743914
0.384578
0.364043
0.371641
0.389528
0.430209
0.795012
0.357719
0.363984
0.359537
0.782444
0.357677
0.359985
0.364134
0.358337
0.371387
0.365492
0.471017
0.374804
0.361515
0.365596
0.364219
0.435602
0.36857
0.36452
0.369158
0.365652
0.362329
0.37414
0.351157
0.372902
0.374259
0.359339
0.366994
0.394294
0.379994
0.360113
0.367771
0.378465
0.368949
0.361513
0.359787
0.371595
0.351973
0.362564
0.364503
0.366901
0.497759
0.391
0.388038
0.540688
0.353067
0.386738
0.352721
0.402857
0.524379
0.363896
0.370462
0.383637
0.413968
0.366342
0.36981
0.386413
0.369999
0.379266
0.361705
0.533937
0.379699
0.513193
0.374508
0.35588
0.36767
0.364855
0.359031
0.362588
0.370233
0.355399
0.377518
0.35922
0.368519
0.35721
0.500153
0.366949
0.367556
0.367466
0.363996
0.363745
0.389721
0.352316
0.364502
0.411042
0.377474
0.369268
0.379994
0.398317
0.385882
0.362536
0.398793
0.361199
0.370591
0.367316
0.500242
0.524107
0.366855
0.489828
0.386333
0.491994
0.507414
0.509313
0.572076
0.915071
0.357777
0.835601
0.390349
0.36526
0.351475
0.383729
0.356052
0.388023
0.369256
0.695373
0.382066
0.371376
0.3559
0.358606
0.373893
0.369747
0.361664
0.357409
0.399846
0.388436
0.363472
0.373777
0.362093
0.813436
0.783584
0.758675
0.361707
0.361535
0.366356
0.36353
0.72049
0.365071
0.366836
0.565826
0.381499
0.372643
0.396053
0.360935
0.617007
0.547642
0.365145
0.359015
0.358552
0.381292
0.361323
0.361397
0.358325
0.362428
0.363321
0.36186
0.69539
0.381298
0.359576
0.392812
0.369174
0.698295
0.366287
0.359024
0.362559
0.372056
0.3715
0.357461
0.365301
0.365074
0.364105
0.367855
0.366454
0.361817
0.382851
0.368235
0.369987
0.364405
0.378468
0.364083
0.395689
0.37219
0.368279
0.378623
0.369801
0.428009
0.377613
0.381697
0.368917
0.357703
0.364638
0.389221
0.368221
0.361608
0.364542
0.390326
0.685475
0.351744
0.36711
0.386101
0.366838
0.369337
0.39145
0.369236
0.363109
0.367301
0.365677
0.355897
0.36194
0.378635
0.367151
0.370651
0.360723
0.367668
0.368389
0.369397
0.371423
0.372679
0.360306
0.372317
0.368084
0.361068
0.364474
0.423215
0.362021
0.629873
0.361464
0.743339
0.374655
0.392679
0.387753
0.36072
0.37183
0.356245
0.372951
0.368423
0.80706
0.739241
0.37197
0.388802
0.357891
0.356378
0.361303
0.364895
0.359677
0.374148
0.367381
0.358757
0.35313
0.357028
0.358804
0.434896
0.364964
0.368371
0.544875
0.38047
0.365509
0.665607
0.373568
0.381841
0.426238
0.726
0.363033
0.359785
0.361452
0.362908
0.657533
0.384458
0.361558
0.360858
0.368398
0.367296
0.361289
0.359647
0.683107
0.660097
0.531743
0.362907
0.449532
0.379181
0.361647
0.371813
0.394559
0.372695
0.365949
0.36525
0.378841
0.362971
0.370123
0.358046
0.37127
0.377179
0.371319
0.360818
0.361446
0.363097
0.362287
0.382683
0.382749
0.360544
0.380839
0.371323
0.715208
0.378432
0.439955
0.372718
0.390437
0.464931
0.3825
0.364455
0.384633
0.376855
0.362094
0.385703
0.394614
0.355508
0.379038
0.365269
0.382622
0.484606
0.356846
0.396538
0.363478
0.409767
0.358142
0.359455
0.359784
0.358209
0.385584
0.369597
0.358392
0.356281
0.362144
0.37666
0.36423
0.372369
0.378476
0.36507
0.362393
0.361451
0.362407
0.364
0.380632
0.364117
0.389901
0.365872
0.379304
0.727683
0.369219
0.366329
0.375614
0.367079
0.477447
0.481705
0.382645
0.365072
0.387591
0.417032
0.368075
0.493658
0.367906
0.640604
0.405558
0.400732
0.369832
0.484862
0.359212
0.362522
0.36655
0.362653
0.357962
0.361575
0.911044
0.358465
0.400517
0.360127
0.463759
0.372076
0.365243
0.44792
0.437125
0.368443
0.36116
0.30527
0.358523
0.361298
0.362246
0.359872
0.359961
0.415743
0.422896
0.382188
0.359427
0.363983
0.360866
0.535834
0.363046
0.361934
0.295914
0.366678
0.36166
0.365389
0.729343
0.366157
0.194051
0.227995
0.356592
0.375813
0.359002
0.362927
0.394732
0.382229
0.65323
0.369014
0.388049
0.358388
0.467773
0.412295
0.386694
0.37028
0.620661
0.717662
0.363208
0.362565
0.357888
0.372339
0.380627
0.396047
0.366564
0.375692
0.382871
0.3597
0.382457
0.494241
0.39425
0.367503
0.503187
0.380724
0.362019
0.381319
0.374436
0.358877
0.368238
0.378121
0.409482
0.372243
0.36341
0.36303
0.995417
0.380357
0.400365
0.757857
0.739857
0.357789
0.387073
0.704255
0.382051
0.464122
0.468834
0.379562
0.776493
0.359298
0.364552
0.370235
0.501681
0.388425
0.379779
0.363855
0.395205
0.360517
0.359067
0.371132
0.368986
0.388656
0.718526
0.724967
0.388276
0.399934
0.374538
0.378236
0.390787
0.369463
0.369624
0.369102
0.368083
0.372067
0.3945
0.374036
0.35801
0.446182
0.394497
0.779341
0.568656
0.376154
0.377105
0.373628
0.361107
0.785261
0.361174
0.744694
0.378865
0.423597
0.390136
0.364657
0.37114
0.360282
0.410284
0.365546
0.35717
0.407234
0.39533
0.369433
0.419361
0.374325
1.01291
0.389648
0.391986
0.405933
0.366413
0.35544
0.396508
0.358079
0.419714
0.367792
0.360257
0.398763
0.365245
0.363698
0.366413
0.358484
0.514958
0.58744
0.36855
0.481827
0.365243
0.375135
0.352267
0.356755
0.373758
0.361715
0.352902
0.36122
0.365939
0.696824
0.58367
0.3606
0.365197
0.36247
0.373923
0.362204
0.366122
0.370992
0.556608
0.366514
0.35879
0.364831
0.36072
0.35735
0.362832
0.361154
0.358959
0.370913
0.364446
0.379832
0.578805
0.358334
0.30007
0.56317
0.564065
0.240319
0.369314
0.459867
0.407647
0.390719
0.536708
0.31111
0.777624
0.366989
0.360807
0.40487
0.385193
0.570425
0.374398
0.377321
0.36193
0.358329
0.408145
0.386643
0.37248
0.386202
0.416325
0.423033
0.368313
0.379758
0.52042
0.503546
0.501272
0.624691
0.57185
0.623384
0.650983
0.366973
0.384007
0.363852
0.358151
0.37065
0.26334
0.384472
0.36302
0.375181
0.362848
0.299292
0.25855
0.360861
0.401543
0.363374
0.361921
0.389387
0.359742
0.363276
0.360904
0.37294
0.476053
0.362392
0.366683
0.362751
0.383429
0.374117
0.55676
0.472685
0.355914
0.389757
0.36392
0.357635
0.358576
0.384219
0.382744
0.610739
0.359802
0.357029
0.371901
0.440636
0.833101
0.36527
0.364183
0.460244
0.377218
0.365146
0.391643
0.369683
0.379398
0.751796
0.455474
0.80605
0.368188
0.439972
0.361555
0.416435
0.361317
0.370967
0.381709
0.363904
0.762764
0.492678
0.410893
0.543734
0.400758
0.364342
0.371257
0.430897
0.36149
0.378142
0.292675
0.359093
0.430808
0.383759
0.408951
0.736205
0.39493
0.392647
0.5503
0.370873
0.365425
0.462938
0.490807
0.366197
0.457125
0.48878
0.356264
0.37022
0.353106
0.372857
0.377479
0.378013
0.689001
1.46127
0.392689
0.405106
0.495676
0.776853
0.685243
0.574414
0.389468
0.366299
0.380133
0.388848
0.508826
0.361855
0.387034
0.38334
0.345014
0.370932
0.368001
0.374823
0.357768
0.395051
0.521454
0.367562
0.816619
0.361991
0.430975
0.377822
0.368939
0.367305
0.366934
0.379662
0.481124
0.386636
0.428871
0.514375
0.385487
0.366822
0.383633
0.474841
0.358806
0.404326
0.366327
0.397897
0.659609
0.532837
0.356637
0.367784
0.371591
0.365066
0.377753
0.701924
0.507056
0.739346
0.368558
0.409108
0.380891
0.576457
0.357013
0.957032
0.41427
0.396742
0.394935
0.624536
0.358491
0.356056
0.361237
0.386033
0.400234
0.369986
0.443954
0.629944
0.432613
0.359424
0.366988
0.680579
0.698962
0.547496
0.559187
0.785381
0.40616
0.38676
0.457211
0.356521
0.508265
0.380492
0.394188
1.04995
0.386538
0.368699
0.360749
0.377168
0.434543
0.391278
0.357109
0.385783
0.491035
0.363066
0.369097
0.365443
0.369605
0.375579
0.42207
0.377918
0.388544
0.373033
0.385999
0.373208
0.350713
0.352899
0.370477
0.418097
0.508308
0.377617
0.414331
0.360266
0.85057
0.390663
0.378169
0.360096
0.991471
0.638036
0.824428
0.277699
0.385623
0.392596
0.626225
0.31616
0.387195
0.431165
0.380322
0.382342
0.663997
0.375282
0.365946
0.38671
0.405184
0.362554
0.608207
0.924617
0.357845
0.926437
0.364236
0.66646
0.884333
0.358287
0.381841
0.377243
0.60944
0.377542
0.377165
0.393178
0.676287
0.369822
0.530499
0.364888
0.369217
0.359771
0.368011
1.0051
1.02318
0.388715
0.410661
0.403854
0.652949
0.364683
0.357621
1.16256
0.965862
0.377119
0.367911
0.860269
1.07173
0.836781
0.385479
0.610737
0.892665
0.726137
0.366953
0.506488
0.47142
0.380537
0.370581
1.03483
1.57393
0.41597
0.419754
0.373089
0.368765
0.388175
0.36879
0.5107
0.365741
0.367485
0.36092
0.360835
0.729356
0.842241
0.372736
0.61642
0.451809
0.356221
0.528422
0.359101
0.370951
0.369768
0.390708
0.400229
0.358016
0.713638
0.363947
0.841509
0.537707
0.700847
0.414528
0.399122
0.374434
0.38683
0.363576
0.581407
0.9994
0.382356
0.652749
0.56681
0.754886
0.500287
0.885662
0.688278
0.36988
0.363305
0.755132
0.361742
0.366256
0.363215
0.677797
0.568998
0.360616
0.389739
0.634879
0.460769
0.721834
0.701416
0.381016
0.51504
0.97984
0.374245
0.397474
0.779613
0.368946
0.809945
0.831118
0.372312
0.368065
0.372719
0.368729
0.40268
0.354659
0.374704
0.393027
0.382811
0.519069
0.408009
0.373803
0.513659
0.494101
0.829727
0.379937
0.38516
0.461281
0.3759
0.865073
0.359581
0.379973
0.370756
1.14747
0.366092
1.49152
0.393974
0.52904
0.402487
1.23743
0.634635
0.625659
0.447829
0.559626
0.419474
0.36583
0.413108
0.600427
0.550745
0.477732
0.720316
0.390342
0.486128
0.633555
0.389544
0.357024
0.678921
0.722474
0.358583
0.368487
0.367991
0.380355
0.597767
0.738428
0.362666
0.383031
0.364444
0.99491
0.365863
0.654031
0.416991
0.367489
0.367551
0.474617
0.412162
0.624024
0.493987
0.397613
0.429254
0.480776
0.361755
0.850746
0.691884
0.366673
0.831636
0.624149
0.378223
0.539992
0.367129
0.414335
0.811114
0.411765
1.18293
0.604479
0.370729
0.418686
0.431369
0.368287
0.366778
0.437906
0.497938
0.463202
0.358546
0.437798
0.361715
0.445661
0.434632
0.394075
0.39717
0.431014
0.362609
0.802396
0.543416
0.416674
0.667349
0.698376
0.363662
0.515587
0.296262
0.399473
0.394858
0.429779
0.731678
0.515837
0.711581
0.35819
0.734253
0.476637
0.364357
0.429705
0.400939
0.510504
0.381865
0.432697
0.576655
0.359221
0.650574
0.392478
1.09361
0.399014
0.368638
0.39145
0.512736
0.411498
0.589555
0.421761
0.362861
0.764246
0.36934
0.391433
0.969599
0.359691
0.378199
0.683295
0.392666
0.553393
1.09723
0.388217
0.456608
0.371318
0.862067
0.486195
0.640161
0.539694
0.456657
0.392327
0.479921
0.784377
1.08896
0.746637
0.378558
0.368568
0.371431
0.366125
0.388315
0.67121
0.37823
0.36445
0.39497
0.360761
0.385148
0.389264
0.383548
0.384249
0.388181
0.48201
0.363714
0.389118
0.449661
0.368993
0.367665
0.400924
0.402467
0.370696
0.359447
0.377527
0.37432
0.372774
0.393424
0.570859
0.36833
0.386972
0.35764
0.364094
0.536707
0.357693
0.362861
0.506337
1.01719
0.703521
0.370756
0.536852
0.526719
0.36694
0.478759
0.481807
0.461414
0.386265
0.371728
0.384669
0.439149
0.363624
0.399393
0.414689
0.38376
0.357032
0.361088
0.380914
0.538001
0.371825
0.432264
0.791406
0.368984
0.575039
0.440623
0.791939
0.367644
0.383224
0.388621
0.366441
0.375903
0.382138
0.363115
0.626426
0.551749
0.818409
0.38631
0.73908
0.363131
0.366697
0.475304
0.358085
0.725599
0.377188
0.610277
0.357489
0.819911
0.844869
0.373559
0.361065
0.472241
0.368801
0.419867
0.362251
0.382959
0.361137
0.357511
0.359449
0.366582
0.375029
0.490592
0.403272
0.403156
0.375684
0.363131
0.367765
0.377067
0.58897
0.373125
0.691958
0.379381
0.356326
0.382514
0.378571
0.365219
0.365673
0.388919
0.362511
0.365586
0.353766
0.362844
0.381401
0.373169
0.752281
0.649765
0.382555
0.393333
0.650452
0.360451
0.362626
0.360001
0.359359
0.38843
0.386093
0.4009
0.403466
0.369563
0.363891
0.439851
0.364412
0.361575
0.367133
0.721727
0.394635
0.791558
0.725365
0.781826
0.374156
0.364009
0.359964
0.356641
0.372403
0.633283
0.378534
0.358388
0.368099
0.374112
0.36272
0.454032
0.361433
0.382485
0.454815
0.372143
0.35479
0.363115
0.369613
0.378256
0.360096
0.378136
0.368939
0.451093
0.357401
0.365989
0.380175
0.36507
0.365469
0.358106
0.379513
0.354589
0.390792
0.397435
0.366399
0.357739
0.356392
0.356904
0.360962
0.380715
0.366923
0.36894
0.363424
0.371924
0.669026
0.365133
0.459559
0.358363
0.366236
0.578771
0.373543
0.381174
0.359799
0.367873
0.381984
0.387583
0.678906
0.385706
0.685366
0.356545
0.364791
0.379878
0.365121
0.372426
0.397797
0.370867
0.363418
0.361135
0.538483
0.476139
0.662208
0.388014
0.529875
0.387151
0.367264
0.40751
0.959189
0.379808
0.363895
0.361621
0.75035
0.358204
0.366769
0.385186
0.37114
0.367318
0.775867
0.360978
0.376499
0.373425
0.372163
0.410275
0.886766
0.782584
0.361207
0.357891
0.361003
0.392136
0.387568
0.366161
0.773328
0.762545
0.359525
0.375376
0.651137
0.358219
0.41193
0.47467
0.362076
0.359532
0.366118
0.364844
0.422186
0.373981
0.363174
0.385371
0.415002
0.367254
0.364983
0.589
0.365261
0.46614
0.517965
0.357538
0.582965
0.37976
0.390067
0.419595
0.380083
0.381179
0.38001
0.801722
0.588139
0.378978
0.384654
0.367399
0.386243
0.379296
0.4311
0.361536
0.357945
0.370138
0.370989
0.529801
0.468348
0.767132
0.697746
0.393207
0.381938
0.369017
0.373837
0.367445
0.376949
0.370783
0.360247
0.363544
0.399016
0.341746
0.366551
0.360007
0.535698
1.25786
0.39931
0.357826
0.397509
0.520541
0.795693
0.352401
0.61116
0.519424
0.637319
0.637002
0.442016
0.362813
0.363353
0.369038
0.828419
0.362096
0.376772
0.377941
0.361894
0.389759
0.386564
0.384831
0.371134
0.587494
0.367206
0.3709
0.393142
0.385466
0.669254
0.648151
0.247247
0.434919
0.300506
0.426677
0.363852
0.869427
0.365087
0.827753
0.382642
0.817449
0.381657
0.511157
0.367886
0.516884
0.383794
0.391997
0.365773
0.368458
0.374449
0.456427
0.42603
0.367387
0.372629
1.10759
0.292091
0.383535
0.599553
0.450657
0.590053
0.364608
0.369854
0.341431
0.673205
0.632489
0.378686
1.00604
0.36711
0.842692
1.00851
0.255256
0.472819
0.364409
0.408371
0.357137
0.364719
0.369132
0.527832
0.394981
0.36369
0.360281
0.379793
0.361827
0.361532
0.361111
0.485354
0.35896
0.356997
0.377209
0.362541
0.462428
0.375748
0.396548
0.384914
0.359825
0.411603
0.494112
0.350004
0.356318
0.506874
0.780997
0.382663
0.816358
0.401684
0.471731
0.760457
0.452555
0.395745
0.363356
0.44644
0.368473
0.358991
0.37206
0.365831
0.359832
0.374041
0.359783
0.355634
0.356969
0.38708
0.372908
0.389133
0.70919
0.361403
0.362871
0.361798
0.368003
0.475172
0.626011
0.376816
0.360442
0.379177
0.572567
0.52659
0.360894
0.382039
0.808782
0.397531
0.395463
0.382259
0.442046
0.378949
0.367774
0.379973
0.550154
0.386867
0.377239
0.840447
0.367744
0.39561
0.367372
0.395292
0.373974
0.406714
0.378825
0.367191
0.36827
0.405584
0.350116
0.374883
1.13876
0.359554
0.460679
0.39054
0.36678
0.602155
0.413494
0.365101
0.378675
0.623465
0.568328
0.391344
0.372011
0.397111
0.43669
0.382829
0.369259
0.770623
0.497563
0.422862
0.584943
0.372018
0.361312
0.539821
0.405896
0.959624
0.389298
0.414173
0.439542
0.361114
0.54131
0.446042
0.672966
0.4369
0.36864
0.366901
0.543248
0.385893
0.412141
0.358129
0.382554
0.397914
0.431391
0.663919
0.387799
0.372051
0.290008
0.545109
0.721907
0.450441
0.687272
0.409499
0.932235
0.386562
0.381065
0.765451
0.45447
0.565093
0.282943
0.633489
0.612206
0.364499
0.361914
0.259009
0.388634
0.380114
0.70906
0.390048
0.423186
0.367057
0.449905
0.372697
0.367917
0.844042
0.276552
0.52502
0.335937
0.405218
0.384564
0.377999
0.39606
0.388686
0.371948
0.364622
0.38967
0.400447
0.230814
0.225148
0.378556
0.408147
0.364079
0.434958
0.470665
0.390346
0.374421
0.401398
0.237551
0.418313
0.414616
0.327391
0.378847
0.647804
0.396215
0.370609
0.82418
0.398045
0.510532
0.530385
0.396597
0.378306
0.364966
1.0294
0.363621
0.356501
0.407879
0.391597
0.434969
0.372142
0.459769
0.375878
0.531365
0.359459
0.399388
0.383294
0.359323
0.780618
0.394619
0.781589
0.684761
0.362018
0.683607
0.480397
0.364934
1.18175
0.359656
0.358696
0.395126
0.460068
0.787419
0.69721
0.401963
0.69168
0.538183
0.362878
0.525541
0.768687
0.422672
0.748133
0.427218
0.361478
0.610309
0.710744
0.404752
0.876412
0.413418
0.39153
0.564075
0.414708
0.369491
0.387918
0.712985
0.417688
0.356465
0.545439
0.374697
0.398916
0.384903
0.397833
0.515779
0.470761
0.689539
0.368041
0.367773
0.650204
0.369932
0.378453
0.504586
0.367301
0.390255
0.618254
0.386522
0.852123
0.765887
0.744046
0.579643
0.378614
0.441134
0.361383
0.36286
0.461377
0.364405
0.362505
0.401201
0.363423
0.459325
0.742097
0.365022
0.530717
0.369175
0.507236
0.410964
0.823926
0.373291
0.467861
0.371223
0.370019
0.40808
0.366349
0.379524
0.36463
0.358743
0.571274
0.348887
0.389362
0.396665
0.38001
0.377848
0.394868
0.386993
0.672333
0.390901
0.366866
0.375364
0.433071
0.342036
0.644619
0.529173
0.624733
0.873804
0.436987
0.451537
0.164073
0.346648
0.779948
0.43837
0.520499
0.425217
0.697634
0.569977
1.12156
0.414069
0.384811
0.51557
0.834655
0.39885
0.268139
0.462707
0.276913
0.44273
0.449619
0.723828
0.597756
0.341181
0.423732
0.234194
0.371642
1.02304
0.375573
0.390032
0.361896
0.365782
0.486278
0.364523
0.633321
0.498102
0.36744
0.392436
0.372206
0.547844
0.622132
0.375638
0.414069
0.413585
0.853659
0.440635
0.371132
0.52873
0.549838
0.359135
0.371234
0.381308
0.360046
0.632147
0.369296
0.476869
0.646218
0.364977
0.397144
0.374082
0.372055
0.348859
0.392804
0.545887
0.35814
0.366311
0.666349
1.23884
0.369143
0.375529
0.36861
0.368458
0.570981
0.437024
0.739573
0.390016
0.365569
0.478008
0.389697
0.388336
0.371256
0.404492
0.390547
0.542375
0.522868
0.627829
0.440659
0.45443
0.36602
0.382423
0.741464
0.851267
0.441475
0.756933
0.392992
0.81995
0.466902
0.698565
0.500642
0.431494
0.395496
0.372152
0.398611
0.433441
0.553793
0.374334
0.41518
0.90418
0.381223
1.24224
0.384824
0.362348
0.382171
0.405222
0.377976
0.359894
0.649375
0.361516
0.354602
0.355725
0.379638
0.595302
0.522076
0.363969
0.552211
0.389582
0.394521
0.364461
0.373329
0.456084
0.414298
0.447656
0.387643
0.358039
0.430713
0.376479
0.354254
0.423123
0.406834
0.7176
0.383389
0.488875
0.394481
0.441048
0.385329
0.457838
0.362532
0.382668
0.359235
0.382019
0.388624
0.749138
0.358141
0.509237
0.291839
0.398103
0.380935
0.396806
0.386491
0.465051
0.516411
0.368069
0.372185
0.377453
0.494809
0.425564
0.356435
1.00395
0.511403
0.545782
0.368619
0.358383
0.520938
0.373315
0.370608
0.521059
0.367601
0.371509
0.40989
0.670976
0.363543
0.571341
0.364153
0.367851
0.458424
0.375215
0.387882
0.491069
0.361301
0.492619
0.441892
0.4453
0.476805
0.848393
0.369863
0.368409
0.386301
0.405955
0.399113
0.391151
0.36395
0.366681
0.378695
0.585511
0.385467
0.393545
0.681607
0.390771
0.668418
0.366185
0.385054
0.43294
0.363978
0.434857
0.388521
0.396732
0.40958
0.366554
0.380287
0.422428
0.472246
0.444285
0.367855
0.556081
0.382169
1.07289
0.719338
0.460791
0.379213
0.496374
0.382693
0.288662
0.436127
0.299498
0.474446
0.229582
0.429174
0.575171
0.442252
0.624755
0.646345
0.396776
0.312753
0.270117
1.16835
0.618349
0.667545
1.20838
0.633675
0.307661
0.778705
0.366097
0.379614
0.709541
0.429734
0.737676
0.411884
0.665886
0.677473
0.378581
0.391346
0.373203
0.356418
0.37817
0.360385
0.689626
0.407747
0.382859
0.565738
0.35962
0.369184
0.36677
0.379658
0.375812
0.385391
0.398458
0.363063
0.442157
0.835324
0.359219
0.371509
0.370248
0.360141
0.671707
0.667768
0.418774
0.375784
0.571522
0.360375
0.361497
0.380708
0.400733
0.367198
0.372917
0.3615
0.358564
0.448553
0.352586
0.420457
0.373064
0.369668
0.369534
0.420414
0.369763
0.375136
0.362626
0.436759
0.367663
0.396749
0.657711
0.449996
0.392334
0.426435
0.374164
0.400842
0.393081
0.380177
0.366216
0.388249
0.376074
0.374885
0.416372
0.386068
0.442475
0.480302
0.37294
0.384439
0.436211
0.442366
0.511148
0.498526
0.722522
0.891401
0.383013
0.366999
0.831085
0.561424
0.503684
0.36599
0.363396
0.376601
0.358964
0.36976
0.364897
0.376256
0.397776
0.362649
0.373674
0.361812
0.368821
0.368845
0.515441
0.41505
0.381333
0.36783
0.371178
0.667271
0.359164
0.368141
0.410975
0.924127
0.706532
0.381425
0.374082
0.382196
0.408717
0.43899
0.673838
0.440662
0.370578
0.381684
0.377663
0.367263
0.405823
0.422875
0.382516
0.359521
0.43136
0.409299
0.558748
0.429355
0.637745
0.556772
0.395947
0.410637
0.359735
0.373899
0.395707
0.363381
0.360717
0.6271
0.367299
0.381218
0.695301
0.380995
0.389346
0.287229
0.443185
0.359528
0.376044
0.363358
0.391598
0.746289
0.382054
0.460068
1.0027
0.561367
0.969294
0.792672
0.367448
0.384252
0.552187
0.359362
0.570992
0.521326
0.684784
0.370478
0.363321
0.599618
0.370495
0.574994
0.438794
0.371949
0.713746
0.783026
0.367063
0.365086
0.82701
0.368335
0.362427
0.356034
0.361121
0.382508
0.409521
0.574247
0.375239
0.77983
0.365147
0.379055
0.355804
0.831512
0.371961
0.861942
0.368128
0.399484
0.366653
0.46849
0.362719
0.464087
0.354842
0.545452
0.49598
0.4971
0.668891
0.369214
0.373637
0.762903
0.455827
0.38066
0.438954
0.456696
0.376111
0.428702
0.377517
0.608871
0.439469
0.365783
0.354919
0.469753
0.367441
0.411919
0.387075
0.362634
0.378194
0.363955
0.365252
0.372065
0.63495
0.360964
0.365447
0.3655
0.365124
0.359557
0.369496
0.375509
0.383482
0.389019
0.397753
0.393507
0.358839
0.304079
0.389606
0.411188
0.495865
0.343406
0.778144
0.365632
0.80109
0.409313
0.273769
0.388409
0.399081
0.395415
0.366754
0.351983
0.387101
0.382976
0.369137
0.373039
0.362099
0.699246
0.361736
0.368788
0.404221
1.15253
0.249762
0.378974
0.787439
0.45379
0.621766
0.54795
1.04716
0.201834
0.405077
0.390866
0.381513
0.365638
1.12895
0.43592
0.431414
0.364951
0.361475
0.691675
0.384065
0.418438
0.373407
0.387591
0.432018
0.39102
0.613936
0.370829
0.380153
0.36216
0.36805
0.399317
0.358043
0.381222
1.02917
1.0583
0.781528
0.477293
0.719912
0.372941
0.360403
0.355619
0.380021
0.363123
0.409632
0.370092
0.446481
0.390743
0.365729
0.361637
0.374668
0.365771
0.378502
0.381264
0.36931
0.384529
0.53975
0.375905
0.410862
0.74903
0.383377
0.632021
0.821212
0.386499
0.410016
0.360641
0.502696
0.390448
0.40426
0.640884
0.364498
0.418399
0.374115
0.405816
0.367236
0.367799
0.477491
0.547112
0.378387
0.393114
0.751349
0.423086
0.612917
0.578857
0.367148
1.21814
0.426747
0.423559
0.407864
0.366744
0.447066
0.395986
0.347889
0.368777
0.334813
0.594705
0.215403
0.374514
0.401369
0.459905
0.224988
0.79635
0.360406
0.377806
0.430137
0.361474
0.4331
0.425533
1.2845
0.390781
0.380802
0.381266
0.720871
0.370986
0.417649
0.394334
0.375097
0.372643
0.38427
0.379562
0.359755
0.732739
0.401465
0.807238
0.363614
0.949994
0.738362
0.514752
0.397024
0.376444
0.488997
0.390929
0.379736
0.363719
0.381928
0.741151
0.364332
0.494849
0.55904
0.367208
0.368353
0.360308
0.365759
0.375124
0.365614
0.428041
0.409765
0.39422
0.382897
0.416975
0.368832
0.461155
0.365247
0.382418
0.369012
0.731249
1.11397
0.400495
0.386749
0.363034
0.681878
0.359214
0.368554
0.377461
0.363893
0.389699
0.376621
0.357197
0.365632
0.375414
0.744623
0.554905
0.371062
0.722213
0.366954
0.374579
0.358467
0.366005
0.703551
0.399863
0.779811
0.362955
0.363209
0.775153
0.844895
0.371065
0.365057
0.616045
0.382478
0.406238
0.440507
0.410344
0.38914
0.450034
0.384967
0.365643
0.391636
0.374308
0.512211
0.360181
0.381462
0.36267
0.368392
0.618059
0.664063
0.360749
0.368053
0.378051
0.375791
0.379078
0.537452
0.378658
0.38961
0.42175
0.376438
0.472541
0.423437
0.511948
0.417286
0.364886
0.363399
0.360442
0.413067
0.360645
0.510273
0.438898
0.359788
0.954495
0.370088
0.358934
0.392836
0.368343
0.40933
0.627047
0.371279
0.464695
0.373459
1.11541
0.423531
0.404919
0.38072
0.637751
0.381115
0.550037
0.399177
0.438032
0.362729
0.426744
0.42546
0.629875
0.486537
0.368471
0.361739
0.363194
0.534933
0.389269
0.971249
0.667231
0.379529
0.454219
0.365725
0.495559
0.478979
0.414163
0.577478
0.506771
0.690019
0.37136
0.403777
0.920717
0.511842
0.391829
0.496638
0.369059
1.03407
0.424907
0.384114
0.36288
0.361333
0.364006
0.373762
0.365263
0.691117
0.364488
0.542318
0.364634
0.460264
0.41421
0.55256
0.371147
0.374196
0.361125
0.567766
0.483858
0.525186
0.364198
0.374273
0.481429
0.408513
0.39936
0.356728
0.355746
0.358718
0.372839
0.363103
0.409589
0.36567
0.562871
0.452037
0.96725
0.756601
0.575461
0.570495
0.425802
0.42943
0.36067
0.593334
0.368104
0.388938
0.372075
0.490774
0.451819
0.376137
0.453191
0.757192
0.475147
0.359765
0.358854
0.733959
0.813198
0.414835
0.782399
0.851933
0.639544
0.685366
0.584748
0.687581
0.434649
0.633425
0.784067
0.363247
0.365858
0.362286
0.480352
0.619814
0.374373
0.363985
0.433035
0.391884
0.400858
0.786668
0.511006
0.85275
0.374841
0.360958
0.368347
0.353289
0.375218
0.768138
0.4002
0.535407
0.650303
0.360233
1.11803
1.18401
0.360056
0.495996
0.466267
0.773857
0.389049
0.498537
0.754578
0.700417
0.47981
0.703994
0.531055
0.617565
0.376624
0.388601
0.388632
0.850338
0.737543
0.420937
0.38132
0.558756
0.471544
0.581783
0.372227
0.404509
0.942261
0.722361
0.27603
0.357895
0.312018
0.36334
0.231731
0.42469
0.476512
0.601846
0.227373
0.462475
0.500822
0.197522
0.482642
0.617109
0.452891
0.42156
0.5609
0.383855
0.528306
0.375383
0.363994
0.372823
0.386053
0.697826
0.702707
0.760648
0.422478
0.425874
0.559464
0.4226
0.263164
0.437565
0.400237
0.37537
0.541883
0.381082
0.320252
0.370471
0.451215
0.437522
0.733352
0.498604
0.802553
0.846621
0.750044
0.381651
0.432882
0.659838
0.353104
0.560985
0.405
0.424071
0.366157
0.781983
0.581779
0.372474
1.31346
0.627804
0.366014
0.464545
0.749518
0.772244
0.428991
0.388087
0.492052
0.943236
0.395709
0.3661
0.391621
0.390456
0.492937
0.452246
0.638866
0.423087
0.600551
0.853493
0.571499
0.483559
0.675289
0.554387
0.804115
0.610676
0.573243
0.792717
0.560361
0.417163
0.475273
0.366684
0.360368
0.367106
0.418771
0.552521
0.788941
0.377293
0.393479
0.40615
0.378724
0.380047
0.580678
0.485826
0.369301
0.386972
0.832492
0.998093
0.246825
0.432558
0.363708
0.398736
0.71099
0.631852
0.378692
0.283264
0.378807
0.267541
0.339463
0.596979
0.378344
0.380778
0.369614
0.429781
0.797069
0.469444
0.391149
0.58879
0.3622
0.771776
0.62616
0.487279
0.633485
0.407179
0.361719
0.365281
0.370973
0.384644
0.437201
0.365398
0.377573
0.368973
0.368809
0.552002
0.506296
0.69954
0.373102
0.498975
0.40732
0.430377
0.390831
0.503475
0.391713
0.387042
0.381643
0.358183
0.374089
0.375376
0.477185
0.364638
0.391793
0.402234
0.619572
0.375674
0.429382
0.483501
0.748401
0.781559
0.421125
1.18175
0.251271
0.401592
0.409396
0.545907
0.385347
0.779508
0.46732
0.359411
0.449547
0.569286
0.443592
0.479361
0.633474
0.554471
0.490885
0.698222
0.388406
0.362924
0.425646
0.367807
0.358575
0.438207
0.361229
0.363728
0.567053
0.366026
0.36866
0.588615
1.0002
0.35942
0.36227
0.895435
0.3606
0.368493
0.554106
0.368688
0.647428
0.450636
0.766678
0.364361
0.559377
0.475197
0.655818
0.368664
0.46724
0.364401
0.794451
0.368597
0.366488
0.450996
0.458959
0.501057
0.400885
0.384547
0.380019
0.366155
0.50853
0.365664
0.3622
0.355489
0.471292
0.547155
0.36034
0.375714
0.361933
0.367453
0.376169
0.63067
0.364738
0.468606
0.366166
0.594489
0.379445
0.407114
0.382571
0.493733
0.374778
0.463747
0.37166
0.377397
0.37659
0.398708
0.370831
0.465376
0.453738
0.726995
0.759187
0.744111
0.429415
0.395288
0.387295
0.358546
0.358984
0.898228
0.644721
0.428535
0.406624
0.372482
0.382815
0.362165
0.359892
0.534328
0.519964
0.71871
0.49209
0.410092
0.371784
0.447892
0.363793
0.623246
0.367909
0.408755
0.379903
0.394548
0.931872
0.444319
0.357746
0.379381
0.431428
0.359561
0.26001
0.36418
0.304378
0.414723
0.891188
0.492186
0.751651
0.363131
0.388164
0.399534
0.383347
0.405346
0.363758
0.358437
0.357158
0.372352
0.373926
0.364872
0.570955
0.430146
0.811405
0.452954
0.367271
0.516639
0.383428
0.364947
0.337423
0.93258
0.858692
0.288054
0.321976
0.368499
0.747947
0.476174
0.462445
0.419413
0.406798
0.268614
0.387336
0.384026
0.356513
0.44217
0.529607
0.78757
0.550067
0.461314
0.357378
0.434748
0.659545
0.387569
0.362653
0.745805
0.76719
0.55408
0.617152
0.358558
0.355988
0.439321
0.361424
0.78875
0.360672
0.36616
0.362955
0.65899
0.363462
0.40613
0.488252
0.486891
0.36564
0.363912
0.38064
0.369515
0.354393
0.371244
0.42902
0.571445
0.46884
0.393468
0.599108
0.382399
0.628308
0.411039
0.857426
0.475941
0.466138
0.658084
0.312271
0.458146
0.482621
0.585684
0.448297
0.357597
0.375286
0.363043
0.382581
0.811175
0.398093
0.366366
0.374028
0.415177
0.361968
0.505802
0.38875
0.384808
0.486148
0.387951
0.364144
0.400091
0.390509
0.783475