/*--------------------------------*- C++ -*----------------------------------*\
| =========                 |                                                 |
| \\      /  F ield         | OpenFOAM: The Open Source CFD Toolbox           |
|  \\    /   O peration     | Version:  2506                                  |
|   \\  /    A nd           | Website:  www.openfoam.com                      |
|    \\/     M anipulation  |                                                 |
\*---------------------------------------------------------------------------*/
FoamFile
{
    version     2.0;
    format      ascii;
    arch        "LSB;label=32;scalar=64";
    class       volScalarField;
    location    "0.020811";
    object      omega;
}
// * * * * * * * * * * * * * * * * * * * * * * * * * * * * * * * * * * * * * //

dimensions      [0 0 -1 0 0 0 0];

internalField   nonuniform List<scalar> 
47425
(
54.075
70.0864
65.5604
162.583
120.683
71.0022
84.5545
103.462
49.5274
489.742
142.161
51.7464
63.6962
73.913
86.051
93.2829
63.2369
54.2579
1041.89
168.463
84.0632
47.8814
106.203
62.1797
50.2038
48.0686
71.5272
659.906
64.8433
56.1383
49.0457
50.1044
49.2536
62.3118
51.9411
67.3867
48.4198
68.8785
64.5089
73.0626
74.0937
53.3532
63.6754
145.377
1867.98
110.258
96.4144
80.5468
76.7191
49.8947
556.219
162.76
49.9383
726.782
116.548
123.385
48.1851
56.6079
81.7491
62.1832
992.131
1122.74
773.605
50.6459
49.6257
49.617
65.5878
61.2143
740.52
52.4478
74.946
51.058
50.5389
86.0153
614.595
49.658
748.073
79.5689
1342.45
215.276
646.689
61.8879
48.9877
51.4372
48.4332
81.5077
53.1452
49.8475
75.9019
344.371
49.4488
79.4372
48.6808
116.067
149.47
196.323
50.4323
49.8097
80.8602
81.5386
63.0313
91.5719
51.1761
105.95
49.8095
54.3579
48.4815
86.7785
47.4834
49.8688
217.369
61.6165
58.0228
154.696
52.1263
899.063
51.3834
231.244
83.5777
57.3661
74.1662
49.0188
61.2288
59.908
100.179
58.3862
82.6366
49.3511
108.215
48.9479
49.2305
102.211
138.383
125.564
51.7511
61.195
51.52
60.0815
68.6778
97.1541
73.4716
135.694
71.1476
66.5129
54.1562
49.4831
86.0218
64.1546
153.807
73.6843
64.1618
483.032
49.6928
673.556
51.1375
84.7484
58.293
866.184
97.1311
76.6428
52.3478
48.6098
50.0618
49.7409
358.679
794.25
49.6415
616.552
106.967
656.769
607.607
89.69
75.1897
49.5447
76.0065
69.6337
703.534
63.7025
53.2282
48.0463
957.756
48.1405
56.5858
48.8969
48.8407
54.7715
55.9772
84.9084
147.114
52.9453
48.9259
63.6847
73.6908
77.6205
49.6336
51.5579
62.6896
72.4962
52.1465
74.5376
67.6414
122.809
47.9378
51.4017
54.0627
158.887
51.005
51.4435
90.4488
49.4701
62.5369
60.7584
50.0104
82.8345
60.6313
59.0103
65.5889
209.672
52.3978
97.4026
235.437
99.4543
57.6947
86.0842
167.972
196.845
49.7031
125.884
54.7192
64.1739
62.1855
74.1339
109.515
49.3808
165.716
94.5925
265.498
119.597
221.417
181.408
79.4942
53.6581
48.5479
97.5694
48.7271
51.3069
62.4341
64.8349
47.9761
72.3252
47.3079
176.305
64.1401
49.5252
91.2263
48.4488
48.5282
123.959
91.2235
49.627
129.681
50.6377
72.3934
135.813
63.6872
94.117
48.5648
64.054
58.4268
80.8183
75.2119
195.773
261.189
50.976
180.157
180.905
182.303
127.249
244.802
179.445
1032.1
52.2565
950.36
127.49
77.8524
78.1584
108.063
85.6176
93.4371
53.3694
571.773
51.1203
50.3513
54.3362
61.5479
103.039
112.277
48.8657
63.729
58.5847
94.3706
49.2251
91.6088
56.4097
713.979
965.337
652.179
48.1978
49.663
48.6816
104.881
641.557
85.856
119.737
192.435
77.5773
105.718
126.166
86.2183
322.909
172.147
48.3763
58.5793
48.4448
86.5887
48.2303
74.2687
57.1959
52.0035
69.7501
70.3406
485.429
53.3544
73.9289
130.64
48.5858
510.514
52.2076
49.06
52.285
49.6319
49.8747
47.852
52.9212
50.8797
52.8187
57.0024
50.2554
76.0536
88.768
49.8495
50.4737
62.608
52.4175
50.3303
55.1588
76.4506
48.785
53.2297
95.5265
64.5757
57.7497
84.3979
89.8725
48.5744
51.2942
134.785
49.9634
67.0748
48.89
134.979
678.227
74.379
48.819
200.347
48.9191
53.2473
97.49
73.2595
48.383
65.5176
49.0577
47.4827
75.1178
89.7193
83.5674
85.8049
51.753
51.5205
84.2864
51.0532
50.2833
81.4715
55.1946
64.8627
51.0814
60.612
91.4215
66.913
49.4751
439.707
48.8298
302.703
74.3414
109.218
107.506
49.7441
145.01
48.3681
96.7514
49.9866
807.978
316.969
50.101
53.2095
76.9784
81.6231
79.0624
77.0885
71.8154
91.0415
68.6895
48.1101
101.404
65.2242
50.0763
75.0397
68.5912
52.8708
150.1
1122.02
50.6391
292.055
915.551
92.6924
934.366
826.777
51.375
74.2123
69.5623
70.437
584.048
93.8277
50.7699
52.0122
66.8315
68.4892
81.9211
80.0582
389.853
601.29
141.465
66.9563
76.532
75.0195
53.6156
50.7457
60.1464
50.9684
85.9287
76.1661
132.89
67.9996
49.4108
75.4918
58.6839
82.2341
51.4101
60.4864
65.085
68.9281
64.3803
110.755
128.288
58.3252
87.3907
51.3111
422.26
131.363
74.4341
50.5726
142.658
161.872
51.4237
48.732
51.729
52.575
66.172
52.7131
112.614
71.7388
51.2831
53.5843
154.334
100.095
48.2044
55.2
56.425
59.5253
49.7134
51.6679
48.1755
66.8917
56.6159
113.559
58.7541
48.4924
48.2433
51.9292
74.7466
131.374
50.1483
48.5417
57.0083
52.8496
53.2452
57.5426
74.076
69.2874
54.214
77.2419
101.432
404.405
61.9354
69.364
56.327
49.4927
112.264
112.995
81.1548
52.2261
85.2362
78.8831
50.8985
123.482
49.0545
253.798
55.5058
55.886
58.8467
110.885
47.5685
70.9271
69.6554
48.8372
47.5703
50.8734
1074.11
58.8345
154.875
48.5025
90.6911
51.3913
57.3205
78.8774
71.6973
71.3057
48.2176
391.715
52.5613
55.8328
52.1084
50.996
48.4252
61.2428
85.0419
51.8578
51.8513
67.6716
48.1952
196.867
48.8847
61.3204
471.378
72.9386
48.3515
350.333
518.516
48.7137
630.182
681.24
68.8368
51.2487
51.1769
48.0398
88.7311
93.6593
398.489
48.8723
134.526
51.7931
95.3088
60.1214
87.2789
69.2011
394.934
182.001
51.5158
90.4291
81.4124
80.4619
124.23
128.415
51.4138
95.6755
133.598
72.5832
69.6006
122.444
54.7347
50.6284
124.876
97.0652
74.0863
127.977
105.895
61.6311
74.5951
56.5393
58.6402
71.6951
51.1579
49.387
1346.19
61.1088
66.4646
1021.09
986.767
47.5796
79.7376
1585.62
176.705
91.8886
215.711
119.904
718.064
55.6781
50.2537
62.8454
149.181
114.763
113.478
49.1639
122.095
63.2025
78.0157
53.1127
82.399
55.9739
317.311
635.293
125.332
56.5697
87.9612
49.9853
111.835
51.1511
62.1067
65.5157
68.2944
49.7829
189.916
79.0175
48.6344
76.8965
194.677
837.28
197.129
90.7798
49.9134
75.8656
48.4006
843.274
69.7458
473.058
85.73
85.0031
58.5297
71.0946
62.6892
80.2263
58.631
86.6205
51.4461
210.998
75.6296
49.342
66.448
91.5617
999.346
58.2709
207.019
62.3506
48.9909
47.8617
149.91
77.462
66.5479
50.2034
64.719
60.3578
75.5387
80.4721
79.8476
62.8824
124.545
195.927
71.3441
98.1079
65.6535
117.203
91.1075
48.5581
55.1141
56.168
70.6617
79.1764
48.8185
309.844
371.02
97.2578
67.5307
49.3716
93.457
51.3379
141.039
52.0991
206.496
85.7333
48.3539
78.2049
49.758
58.5936
69.5628
50.0326
89.6398
49.8766
49.6419
51.3876
171.864
47.44
373.982
184.214
229.899
350.744
82.7449
112.732
58.9795
54.0965
141.382
344.067
361.064
83.5553
57.3555
85.1713
123.326
156.461
135.11
94.8633
53.1904
67.0591
75.498
118.701
58.697
86.5748
318.018
62.5284
66.6048
153.814
119.768
114.154
95.9986
623.588
399.612
222.915
249.355
81.1813
123.136
48.761
49.0837
74.0614
394.132
190.495
72.9524
75.2473
48.3069
341.627
352.963
47.8452
173.457
91.4769
48.2769
170.817
47.8717
48.1326
71.3401
73.6224
91.0642
50.8607
48.4505
57.7891
71.2377
69.7194
144.216
97.8729
47.4662
260.519
50.5231
47.701
48.3754
205.386
81.7899
226.337
113.552
52.4239
50.3215
70.6669
1060.8
73.7076
85.2211
82.3622
66.7061
64.9484
122.423
124.473
128.388
363.938
85.2493
694.511
49.6018
70.4883
52.8961
64.8621
48.2611
170.347
132.149
48.4844
392.995
108.823
67.0378
208.324
71.1383
52.6971
73.0083
69.8177
70.9364
105.069
373.248
66.6203
70.8107
210.531
225.725
652.143
221.832
92.1323
186.234
49.9917
49.8409
95.5078
122.867
88.5535
85.3338
96.2895
103.49
50.5029
63.9207
110.514
102.538
92.8587
162.656
902.595
88.7063
65.3458
109.63
453.989
191.318
222.093
96.018
67.9454
97.446
95.5984
85.9427
48.6403
52.5466
97.8566
380.842
115.951
69.4887
96.3217
52.0523
110.888
132.695
78.9783
362.727
52.5849
67.3233
131.55
97.8848
67.0284
68.6198
105.417
98.8339
95.1351
65.4272
137.086
52.0109
49.8781
52.8108
88.5356
56.9271
149.696
53.8041
226.462
303.678
170.119
89.8666
84.1933
49.8052
70.7156
116.784
468.761
201.199
729.185
49.6305
59.7755
55.1666
235.261
84.2757
311.07
241.561
236.406
84.0715
260.273
87.7996
79.927
69.7746
53.0389
75.6485
70.1209
74.3581
151.726
78.9377
57.5887
54.5479
271.247
445.299
153.798
181.047
603.297
193.368
95.5037
79.0802
81.8009
109.268
186.76
190.499
639.847
51.5849
58.0926
67.7346
50.0052
67.6766
103.472
95.0813
55.3512
110.941
53.1967
78.0356
51.5109
49.5563
125.641
64.5122
124.856
51.4553
49.7437
164.043
49.877
88.6056
100.445
49.9301
63.0668
118.014
67.6383
63.9285
75.8525
298.219
187.17
126.58
107.354
1818.73
983.379
478.968
404.631
109.129
55.1981
1048.09
381.33
55.5268
69.3414
110.131
88.882
344.074
140.439
52.704
117.389
59.405
50.683
205.071
872.229
138.015
1218.05
147.277
251.065
1142.04
56.9127
80.8509
134.765
214.29
97.3848
53.0073
53.2238
782.669
53.2337
296.28
65.4355
167.638
49.7438
55.7498
447.565
446.456
87.5057
59.3917
67.2992
360.9
48.9083
48.807
347.994
480.097
74.5799
49.3327
1016.19
797.431
424.194
101.569
154.626
378.395
447.54
76.5214
107.112
94.8436
57.1524
95.7816
435.656
1608.89
63.328
62.3796
60.6929
51.0719
53.616
80.0586
137.627
66.0762
49.6177
49.31
69.1503
351.093
1141.29
51.7987
240.339
92.1868
71.4491
161.594
52.7756
88.7183
65.0179
54.4863
202.502
52.0527
470.036
48.1138
775.465
512.785
359.687
206.082
71.1174
66.2664
107.315
51.9824
204.707
1473.25
108.34
327.375
194.009
431.452
141.317
788.318
551.029
95.3154
50.3899
1495.57
80.7831
50.1059
73.3151
473.643
996.211
78.8461
54.3955
430.552
82.7024
657.452
706.119
111.722
130.434
918.742
107.186
53.7488
633.285
51.3704
822.168
1011.76
49.9691
64.4752
80.4589
55.9647
128.36
95.4749
51.7203
126.816
91.0754
120.902
61.0661
49.3169
144.148
81.666
684.929
55.6863
97.4422
158.269
50.1271
755.918
85.3933
118.334
152.386
486.133
87.18
704.793
183.98
137.365
57.8895
1222.36
222.27
254.451
82.059
155.546
62.507
76.3486
66.2679
310.356
291.082
99.7971
674.722
150.526
102.924
273.831
131.151
148.737
707.749
194.007
49.2
154.209
84.9972
148.587
247.844
889.869
57.9902
52.1858
63.2038
668.315
64.6612
339.839
63.0941
64.8877
50.4308
124.948
61.1676
205.341
247.161
56.1642
65.9533
95.6605
78.9738
943.726
214.452
104.956
695.893
307.757
122.219
161.744
65.4544
60.5308
915.641
60.1916
659.59
208.762
52.9329
61.9424
74.2926
96.2317
58.747
72.3577
111.495
83.344
74.0172
70.0717
78.8908
147.627
68.7392
202.319
160.36
146.366
55.6087
706.204
367.541
62.0033
490.094
351.696
54.4376
117.764
476.343
230.262
52.7575
124.156
268.102
164.945
371.553
56.3096
535.77
102.635
52.632
68.6253
113.511
157.13
129.852
67.9282
233.813
49.046
292.622
112.313
1103.36
147.494
69.7691
123.346
218.641
59.5647
151.216
84.0572
103.012
635.222
74.1555
69.2814
931.727
48.0021
85.0794
392.225
59.3219
213.613
836.076
153.618
81.02
76.04
930.532
215.818
363.806
207.403
80.3446
64.3761
106.341
541.648
859.328
189.9
91.5985
50.4847
87.8303
87.7967
131.975
320.452
96.5022
56.5066
60.0201
58.689
51.5584
89.2582
52.2205
51.4884
124.909
94.5759
48.9265
133.552
171.348
65.4517
50.5608
135.56
61.4635
49.6641
53.963
106.327
98.8941
50.8908
99.1355
554.399
90.9634
53.9307
54.3978
48.2195
196.51
65.11
53.5939
595.632
888.417
288.352
50.2772
611.79
157.323
50.5335
896.362
105.043
880.012
94.8232
69.5748
85.9736
70.769
48.3517
86.3334
87.9599
94.9702
113.622
86.8222
106.963
151.603
82.6964
76.3567
410.092
89.3029
1204.61
73.2203
626.805
49.8106
122.284
188.452
51.4029
69.5156
194.404
48.0713
246.03
281.152
1210.13
56.9196
586.873
55.1961
115.182
135.663
55.6259
519.522
62.1419
255.342
54.7126
665.129
658.474
79.8543
48.0146
302.592
73.759
285.303
76.7127
98.6607
71.6592
71.8214
56.2559
52.2719
77.7534
224.117
66.4361
180.496
88.4127
82.4808
49.3987
155.952
260.991
90.7299
215.428
55.8565
67.2245
121.867
84.5537
72.5776
55.9648
157.648
131.562
48.9729
84.3536
67.4368
71.1464
95.4942
223.324
252.704
79.6373
94.9145
218.907
88.2408
52.5879
64.1666
50.1131
176.958
169.232
204.145
107.903
71.782
70.004
70.2045
53.6873
51.9503
60.7444
444.83
131.086
626.832
464.459
582.342
55.5294
64.3126
64.6413
69.0106
52.7355
288.61
72.119
48.7751
82.2482
109.398
70.8996
233.215
68.7309
159.139
98.0217
103.199
51.7253
70.7688
90.2858
93.789
66.0826
119.152
90.1568
133.529
81.0101
71.7516
77.836
154.975
177.9
61.486
85.8232
131.397
100.529
171.677
49.3974
51.4934
133.341
63.98
54.2796
78.7512
49.8614
49.4723
76.1845
78.5546
286.025
71.1278
85.9084
49.0358
69.1761
573.218
82.7471
87.5195
56.2489
62.2597
91.8214
88.2513
892.448
109.138
219.585
50.0276
58.661
73.6246
48.8232
51.8497
110.835
85.783
51.2162
48.5143
240.145
105.735
464.568
124.06
199.101
106.374
69.3442
112.176
439.477
183.838
87.7277
79.4345
896.648
63.4509
81.7748
92.9971
87.7206
49.4305
937.935
66.5572
97.4141
51.6791
128.786
60.5196
929.594
991.237
67.6441
52.6542
48.3549
94.4457
99.5092
57.0421
1155.21
746.656
62.8621
142.996
389.129
61.451
57.883
108.048
48.3666
59.5092
50.6256
73.0408
135.952
88.5399
79.203
51.2893
62.0703
74.7356
49.1255
254.391
64.4501
113.604
135.873
369.667
264.719
105.88
135.052
68.6927
133.312
125.708
50.4123
574.891
272.764
131.416
89.9814
107.102
94.9767
93.2512
254.92
48.1353
48.8562
64.5551
68.9112
133.24
82.7479
360.04
425.835
52.5664
131.932
49.122
49.7598
80.232
61.3486
69.6624
54.2742
48.0947
274.562
395.976
49.4175
48.0205
140.113
974.971
56.0913
47.6595
65.2949
147.668
890.238
88.9939
334.478
245.354
292.085
337.014
74.2046
51.9271
48.1256
60.1179
921.769
53.665
86.15
83.1575
48.1687
520.988
957.424
955.146
210.488
212.774
52.7665
50.21
55.4439
80.2189
560.096
513.841
355.415
535.165
367.294
62.6159
49.8732
813.109
49.9406
884.793
96.6155
879.284
82.6124
131.779
50.6006
137.599
169.969
171.779
50.9897
66.1152
92.9656
83.6152
67.6756
73.4445
70.7066
1129.92
549.219
84.8123
291.637
396.177
273.444
66.7239
49.7939
429.047
483.083
423.419
50.3794
892.841
51.7868
935.201
1078
469.564
214.438
52.675
60.2097
48.3154
73.0119
86.0624
148.349
61.5051
82.5365
57.7475
96.4809
76.3046
48.4767
49.4049
108.933
49.9857
51.2128
81.4912
57.0852
88.5084
92.7505
159.184
92.9928
50.7872
67.6243
111.908
77.7798
96.5572
127.224
1193.8
56.8803
373.66
65.8099
97.1925
284.129
75.0883
58.2495
49.1854
76.8561
95.2737
53.4978
97.2671
103.334
83.9546
52.6212
65.3699
52.5285
69.3105
113.256
65.4759
102.125
299.298
90.1773
83.2539
75.9746
114.595
88.9313
270.287
49.9655
66.978
110.383
259.625
266.846
76.5828
109.835
915.351
247.325
189.715
92.327
74.6561
115.587
88.5706
52.5741
141.916
80.0057
88.9054
274.354
54.6574
166.071
119.722
118.432
107.787
205.043
79.1391
61.0473
49.0434
57.5623
94.0822
83.5482
549.677
62.2147
90.7555
130.22
103.783
842.942
60.4438
49.7355
105.854
285.309
338.111
157.467
49.9011
136.235
69.7416
53.7033
48.8946
517.354
104.205
63.143
325.42
52.9399
67.9599
155.535
682.689
904.017
61.7279
68.7935
844.693
48.7821
147.211
97.2223
492.956
304.1
51.4641
95.9628
535.831
94.0366
64.7478
66.3446
102.395
56.3011
70.1038
372.855
51.767
101.766
478.772
152.58
552.973
81.6078
409.263
56.7106
1076.39
107.764
106.992
545.467
158.581
230.52
398.37
369.496
296.413
48.7104
50.1247
377.435
58.9911
87.5276
361.222
62.3466
63.1763
68.1663
120.887
72.5298
53.0815
718.1
369.475
141.125
335.917
168.073
86.9524
84.1508
74.161
115.91
64.0995
55.2237
79.2271
61.9546
309.082
322.726
62.6539
58.5012
53.9065
74.4527
107.742
108.114
99.4207
73.8133
347.95
63.2679
64.7565
356.898
132.552
495.269
130.59
92.5259
623.556
139.88
113.896
296.344
135.369
128.578
53.0854
827.228
48.4934
54.7833
58.3963
88.8162
71.8297
104.152
165.845
105.766
146.758
82.7032
113.845
102.411
48.1325
203.816
78.4846
474.979
1267.78
98.3519
342.445
101.229
69.3473
605.858
67.6236
59.9935
66.2387
93.2266
608.633
269.394
57.2364
305.993
294.445
66.6295
1790.01
358.613
66.5233
270.708
66.6333
87.4239
232.421
374.537
149.065
710.848
60.1472
55.2724
161.178
58.7531
50.9876
108.242
292.392
444.416
48.1022
144.284
50.6746
147.995
59.7675
147.79
261.052
92.0876
261.972
63.1576
65.0212
736.51
49.2968
53.2471
122.774
54.5514
131.766
283.214
51.8933
937.278
503.172
833.292
421.501
119.754
73.1085
50.5594
57.7016
85.73
49.2817
90.6885
150.923
62.575
78.4786
592.931
49.2561
148.625
50.8305
131.79
66.5103
701.502
126.662
90.0086
49.7901
139.12
152.209
51.2775
57.3826
101.239
47.6094
206.729
87.9197
108.142
58.3162
51.2877
104.992
53.3548
131.096
242.904
51.7637
65.3659
51.7188
67.3167
389.172
229.982
139.919
389.323
762.656
278.787
77.6464
574.251
428.879
593.303
70.2974
181.016
302.462
289.041
240.625
885.992
60.8994
53.0166
177.023
689.511
56.7911
359.389
100.386
365.144
75.5973
75.6577
530.979
351.905
369.12
63.6291
317.048
129.964
456.861
50.0635
215.577
62.7258
55.2127
99.5586
98.2508
310.093
114.513
64.6284
164.4
68.8357
219.128
309.475
51.5165
66.7067
60.915
890.283
77.7058
132.263
150.704
142.39
60.3508
50.5516
95.0094
71.1154
350.543
49.3578
106.572
340.674
64.8426
54.8549
70.6557
67.7438
527.709
139.924
191.181
86.7164
64.5682
1131.51
1281.62
57.7753
149.74
57.5785
51.0586
352.196
74.747
477.486
56.2872
51.6437
97.8913
59.3767
54.8397
59.4299
66.3641
139.684
187.993
217.585
190.959
71.9321
78.9165
49.7649
172.819
527.383
847.968
75.7582
499.198
190.456
598.299
86.0793
379.336
111.293
115.927
130.712
88.0002
274.629
71.509
167.672
110.514
62.7298
992.346
108.546
497.344
109.058
61.2476
110.866
66.8826
60.5346
65.2043
218.921
107.282
122.177
54.6484
121.259
431.635
133.951
77.1588
168.183
53.7865
60.1194
48.7936
78.7284
81.6429
150.745
75.5501
100.123
81.3025
70.6583
81.0221
60.8242
71.0272
59.6599
176.108
55.8069
105.812
55.4038
71.138
129.898
81.2079
51.8577
81.7663
98.0553
93.4407
130.447
330.023
49.292
95.7517
328.769
159.972
156.482
54.7477
157.622
86.2623
235.971
59.7387
52.756
56.2237
133.125
62.5149
63.4805
786.382
91.5069
302.45
52.2585
50.5095
167.907
83.866
58.473
128.071
49.6881
85.4723
59.5636
328.173
48.6261
156.707
51.4207
52.6611
79.5059
66.7624
133.875
108.218
48.156
209.595
69.4796
75.1687
93.1674
708.589
61.979
63.8626
131.314
63.0507
57.6427
129.366
55.8366
50.5304
108.182
189.126
127.616
87.9638
318.375
112.012
310.176
49.6925
182.887
69.1293
95.3937
79.0008
55.61
63.9048
62.9636
83.532
165.036
67.0318
532.264
93.579
50.5846
461.731
132.309
1574.08
304.7
75.134
87.3143
104.933
122.942
403.365
68.0012
402.14
93.1765
359.999
67.5528
321.364
69.4398
235.273
217.273
130.29
366.889
419.75
677.43
1243.84
505.294
761.424
233.716
363.496
370.314
48.6781
99.5438
303.484
73.2955
557.09
61.1657
425.894
579.923
127.272
103.983
78.1447
48.2154
114.462
49.8358
260.905
134.991
86.1967
179.863
85.8035
157.695
66.1705
55.8897
115.725
54.7714
222.108
49.6091
71.8788
682.187
62.4349
50.8351
87.7535
60.323
468.574
203.912
68.4799
56.8644
180.639
49.9348
71.7594
54.9759
57.7068
102.753
79.7611
56.0055
61.2242
309.016
80.7266
62.4657
53.0792
50.8693
50.2894
80.9184
74.6801
99.5451
52.027
74.0841
96.5201
55.9348
232.504
77.5265
54.6059
64.5617
85.2079
144.541
112.252
100.459
51.7849
121.41
86.3764
57.3068
60.5434
80.7659
76.8994
97.6573
75.1609
132.528
69.5673
80.8314
119.046
235.411
675.085
1068.39
130.77
59.0017
337.826
174.8
108.741
52.1167
50.9041
51.1372
83.2237
76.1804
48.9772
50.2975
53.6227
115.964
51.0475
50.0095
49.0609
58.0283
159.273
59.1431
119.809
55.1923
87.7604
279.628
57.2581
54.5637
64.1493
996.345
1013.11
100.786
69.8157
63.852
60.1208
76.1994
460.112
69.5368
68.0636
92.9551
52.2298
92.9418
57.6238
70.2168
115.431
86.9243
66.9315
206.958
206.583
69.0769
1924.36
179.075
203.559
63.0854
84.8074
101.993
118.743
51.474
76.1249
317.91
49.4033
203.154
537.648
110.66
128.048
491.166
73.9059
78.0997
95.2395
48.371
125.253
362.454
96.3422
88.6198
279.88
196.376
1105.35
587.62
95.6944
52.104
145.14
67.0065
178.668
143.154
510.548
49.9278
49.4968
563.063
54.0083
205.183
73.7619
107.713
607.936
771.738
51.6153
48.9453
819.523
51.7222
52.9239
63.5473
49.3135
85.7315
80.8046
236.64
57.0675
547.705
109.23
51.7415
83.8618
677.252
84.056
600.233
66.0698
59.9031
87.6925
88.9001
63.0519
85.2327
61.6738
529.916
108.814
111.247
423.919
123.485
52.996
545.206
97.127
112.309
77.0811
76.385
111.711
73.9643
51.1832
253.681
72.3154
73.3403
61.7366
105.528
68.3016
61.3174
53.4418
60.4572
157.319
65.6175
58.7472
83.9364
383.874
71.7986
66.8017
63.6523
97.7772
49.2726
68.7592
56.7453
135.271
72.8231
144.409
151.741
85.0658
393.882
60.8933
59.8885
317.576
335.233
559.874
89.7602
349.852
59.2771
414.129
96.7247
267.613
97.5917
50.3545
113.66
211.541
96.6072
60.9182
51.4138
55.5653
455.035
56.123
52.4532
58.9995
2219.64
381.987
50.5416
1482.33
410.778
319.829
164.814
1436.98
328.334
65.1982
323.573
93.4937
51.7885
340.982
910.75
68.7383
51.1185
52.5211
522.748
54.0576
892.638
52.2662
131.341
70.717
129.919
327.404
51.1382
118.362
122.533
55.6167
106.955
50.8129
127.717
1747.82
1805.5
675.396
95.5723
390.833
49.2632
50.7323
57.9538
100.926
49.4899
59.3011
49.3558
75.9806
91.9116
50.6733
53.6907
77.78
50.9844
95.0176
121.707
49.8244
116.805
134.682
51.7679
59.8445
846.581
58.0465
785.152
601.447
133.1
137.083
79.0618
123.391
61.1374
57.5855
320.516
57.2386
64.5457
54.8575
58.0209
76.1802
137.518
101.041
184.212
113.269
53.5619
508.35
65.4076
281.275
228.729
65.1906
899.749
71.9829
62.0434
61.4774
60.8198
74.7038
54.3367
119.806
54.8458
368.342
205.34
372.339
56.2742
57.8342
84.1277
352.319
289.083
80.3741
148.307
67.7735
340.709
67.4589
64.663
401.697
87.9765
55.2677
93.4512
1109.32
56.4599
61.5027
123.38
51.7515
137.047
137.082
54.1937
80.7447
213.749
173.27
767.911
71.4408
353.433
281.443
268.205
56.8456
184.556
102.036
106.134
54.7105
55.3022
56.7309
470.976
80.0717
102.496
140.889
75.4808
59.4506
95.7919
49.9702
147.514
48.9056
65.2898
169.595
106.667
76.6609
171.08
101.325
84.7545
78.5041
129.064
48.9478
209.372
385.774
111.765
66.0941
49.573
186.274
57.3023
50.0341
87.4033
50.2014
110.136
91.3809
49.0757
51.8932
104.011
193.881
190.428
49.6677
748.137
48.9391
99.436
89.8916
49.0741
728.356
151.8
651.985
50.878
68.8221
518.124
662.075
93.0926
100.84
192.617
128.911
56.8377
75.5367
63.2921
149.754
82.9929
136.472
50.6043
137.383
103.004
114.921
54.8068
90.994
48.6302
62.8613
527.109
211.735
96.2537
54.9368
108.326
88.6523
88.5703
146.739
49.9905
53.2689
64.7294
89.6695
86.4361
65.2711
116.426
59.3755
55.8982
54.496
68.6329
61.0742
58.4274
151.426
76.2535
67.3374
1514.68
79.3654
64.2759
81.0708
49.2348
87.3965
211.139
52.6496
83.2389
81.1912
1004.52
65.8394
60.3485
95.9597
1440.57
96.4673
155.524
126.455
69.7573
49.1642
71.537
67.6682
783.878
100.844
69.7496
66.0013
50.9396
240.528
52.2279
694.665
233.247
112.666
77.0416
61.2112
110.532
93.1243
61.7063
430.524
120.454
330.953
50.7045
140.846
635.691
120.127
53.753
104.007
54.674
684.315
63.8897
57.3538
91.1728
48.2209
59.0448
85.6498
51.4544
188.429
50.5164
319.869
49.026
79.8328
63.5522
153.091
90.6422
131.474
99.199
541.966
101.221
123.465
76.7345
51.0753
102.94
60.0196
55.3736
76.9682
73.6696
61.9782
126.73
49.0982
62.5501
50.262
260.476
86.8666
477.722
523.014
267.264
161.311
66.5349
70.069
58.4321
192.249
92.0122
52.4824
51.7062
113.775
103.619
51.4068
76.9978
1039.58
99.2778
65.835
70.5852
507.415
830.785
62.1419
516.3
560.459
217.41
267.19
170.1
441.093
72.8168
225.982
723.715
72.846
49.1723
57.5874
99.5588
318.67
51.971
50.1185
69.8859
152.084
157.159
1048.39
114.875
942.62
118.843
63.8354
88.0721
73.8752
63.5667
582.099
70.1262
268.551
468.607
62.0327
653.247
2159.72
60.0234
117.795
97.2531
435.23
154.828
121.265
698.645
995.862
99.2147
536.465
131.403
347.84
82.6927
51.6293
154.647
663.905
616.46
62.8019
110.903
147.105
96.6847
228.266
54.3519
64.0269
873.657
274.479
415.29
48.2585
365.721
65.7445
380.815
63.6863
105.709
190.982
329.34
86.1511
111.048
343.538
100.139
503.424
79.1371
64.0211
316.634
51.7281
154.874
50.5153
53.1126
49.3754
83.2932
391.959
449.579
299.751
63.0268
66.2815
258.695
62.6144
415.344
70.5146
56.7381
81.8153
171.888
154.081
560.965
51.0587
76.5654
68.9665
314.27
107.616
570.955
846.183
425.717
105.693
66.2615
364.391
387.969
151.749
55.0099
65.0732
48.4461
729.956
231.421
344.043
2011.27
241.376
96.3792
84.2659
722.571
399.173
67.491
91.3801
105.323
447.452
58.1877
50.3149
91.7954
71.9133
599.197
321.082
236.219
120.891
233.102
407.726
172.872
96.2268
776.461
316.193
671.944
211.747
296.131
572.137
160.57
61.8791
103.156
60.0315
53.63
72.1585
70.7423
150.423
228.239
86.1521
179.487
182.35
146.797
66.8327
189.602
102.753
69.6897
129.808
660.335
1064.07
502.708
71.1419
117.986
74.6775
208.12
523.156
155.347
402.443
76.0442
391.238
309.711
189.665
50.7945
50.3313
70.4731
66.6124
605.313
88.6598
56.7788
368.96
71.4946
784.764
397.803
101.495
403.766
61.7117
48.674
49.7009
49.2041
101.758
68.9065
94.1322
135.288
74.081
49.5513
168.578
597.687
488.408
49.6213
106.689
56.5247
67.2256
55.5962
611.207
55.7298
54.0756
54.4546
98.9591
51.1732
52.9861
92.7546
55.109
56.8719
58.5593
232.026
49.8504
63.6155
115.482
403.97
421.622
65.9161
636.855
502.312
58.5031
58.6908
163.749
68.0124
229.061
85.2895
92.7657
81.0474
211.051
72.986
92.1861
971.837
382.332
103.802
578.146
51.968
50.1941
66.0509
50.1481
48.573
73.0025
55.936
73.6959
191.54
77.0807
420.548
110.273
368.849
79.723
48.0058
609.383
127.531
85.6076
542.179
103.59
616.604
73.3524
423.318
49.3562
172.038
89.5187
246.257
50.2355
87.6687
78.7406
541.377
49.6979
48.3571
68.242
82.2774
122.048
60.1788
62.8124
92.3185
51.8709
127.382
52.578
64.1052
147.63
90.0894
170.686
64.5738
51.0332
59.2573
48.9676
56.5747
138.657
48.1235
87.9241
48.5356
238.229
120.828
56.1012
115.047
110.97
61.4391
83.1261
65.3489
130.522
160.199
55.8436
50.398
89.6324
76.8199
388.013
525.352
478.072
64.8858
53.3613
55.8687
62.2828
85.8764
812.199
239.261
65.6473
57.0952
67.6279
51.5282
50.4132
75.2641
139.466
173.248
446.239
205.173
59.3389
77.5722
82.2629
48.0603
257.589
74.2703
79.2667
116.338
56.3617
933.188
76.4116
55.3672
68.4516
68.877
158.169
453.81
49.0638
413.904
60.0107
736.152
110.897
503.323
71.8154
52.1723
59.3402
105.929
55.7914
49.5749
124.112
47.8864
50.2015
52.8504
63.0063
203.849
63.842
733.363
76.9748
58.8865
136.569
171.872
49.0676
432.476
908.092
732.145
526.748
420.825
52.9076
403.655
363.225
82.9597
61.615
57.7992
655.706
93.69
99.0496
49.2326
73.5548
253.341
672.397
157.187
83.1895
47.852
68.7302
241.982
51.5997
56.8777
525.97
461.59
236.373
703.342
76.2012
48.2056
70.8998
80.0677
1084.21
49.9371
49.7748
48.6171
300.208
49.1903
57.3503
97.7255
99.7095
48.927
105.274
51.1643
149.114
74.6692
138.359
61.3194
204.118
92.2211
115.944
177.858
114.301
220.026
56.8026
627.539
93.3015
322.955
322.342
346.668
83.4778
92.8479
192.17
75.891
47.9506
54.0977
51.429
89.3268
571.019
120.388
49.7933
84.945
63.3627
49.474
117.678
59.3984
137.506
99.7716
53.0121
103.028
56.2858
73.9468
247.677
497.304
67.3068
101.752
81.9351
106.752
521.387
219.917
499.778
812.527
143.128
53.4369
54.4253
49.4736
108.418
806.347
82.9312
777.896
133.341
51.6279
120.224
382.069
52.9351
52.6173
58.1431
75.6152
54.5544
234.936
67.538
89.4623
233.268
49.5729
100.898
58.0911
129.501
61.2007
58.1442
610.488
78.6661
118.202
59.7828
71.4235
49.4354
109.194
123.395
95.9705
94.7966
74.06
62.1774
68.6805
57.3142
233.359
58.0147
57.0714
119.093
222.84
236.904
55.4647
93.7843
115.614
170.431
71.0288
256.943
60.4329
138.031
101.86
61.3561
156.104
85.6304
60.817
238.806
96.9016
52.6937
51.5754
252.161
91.5008
103.764
55.2469
114.525
86.332
49.9828
96.6373
361.666
81.981
70.959
89.857
611.369
70.8903
88.0295
152.661
62.1471
159.004
55.1796
684.027
85.6716
79.6993
86.4475
57.0044
118.048
56.5831
429.674
48.4986
75.3611
592.178
59.4369
115.106
206.202
99.3302
52.8004
500.83
55.1702
49.4667
92.9433
132.611
55.5261
292.927
48.8901
381.409
103.861
49.2854
79.8662
120.652
676.483
183.089
73.8803
51.3825
129.826
353.64
481.264
119.181
126.791
958.273
206.985
237.96
132.214
85.7204
105.786
60.8897
525.401
953.111
153.93
176.814
101.236
883.93
473.039
447.655
389.457
168.684
62.6887
56.9306
152.986
74.2411
526.286
337.904
78.7139
706.598
110.625
54.2075
64.1792
54.2418
109.352
89.0109
92.5966
80.0375
144.269
184.903
844.514
57.9418
119.971
638.27
587.964
182.434
184.342
67.6066
685.289
48.3777
65.6565
367.133
148.582
50.4092
294.655
389.659
67.0754
123.427
53.5776
103.506
56.1457
81.2938
177.558
88.3915
560.416
48.6258
57.6294
90.793
462.415
176.768
124.865
169.762
216.292
123.444
72.0858
373.701
110.081
73.5795
212.071
766.694
272.174
57.8833
316.024
160.579
89.2208
68.5015
127.043
50.4653
93.9696
83.7414
78.8953
72.7461
62.3919
87.2931
49.919
48.8847
49.5191
102.402
53.9019
161.388
426.705
682.569
94.5031
78.7905
57.1432
55.812
106.101
616.239
56.7643
147.318
74.5158
188.887
59.2199
96.8001
75.3668
356.459
49.9389
55.8684
241.419
54.4719
71.4231
95.3882
60.7275
345.538
81.0112
409.051
361.121
260.848
590.086
178.495
381.493
78.1576
112.563
146.231
58.954
369.485
102.506
87.6519
147.956
81.7002
74.8401
49.9735
60.3168
53.2732
48.8807
86.9937
297.504
49.1185
851.975
115.169
311.568
120.746
316.948
1814.32
58.2488
267.342
1254.45
101.915
338.636
81.0675
71.2829
720.204
953.863
260.697
161.486
60.1055
297.605
102.629
524.203
54.738
59.3816
216.424
977.219
62.061
77.5747
56.2626
166.427
385.41
54.9439
467.327
262.549
535.305
678.257
56.4731
259.153
64.0811
505.707
397.128
241.795
319.85
159.543
399.52
234.275
246.627
74.2212
70.486
67.1869
57.748
58.7666
1311.79
70.6351
98.9606
70.7589
73.0022
96.9818
909.274
104.763
247.162
305.36
106.101
232.575
132.99
47.7272
67.2615
888.198
527.838
237.714
192.638
186.509
78.1319
423.549
56.5076
188.974
216.911
58.8181
449.589
114.503
224.546
356.681
105.741
143.656
148.446
105.888
54.9551
143.989
67.3726
463.526
66.7762
176.302
75.9135
230.369
62.6622
69.6134
362.547
127.577
267.138
49.5761
1353.69
50.4746
58.9574
52.7719
60.9846
80.6519
471.759
121.452
55.5804
608.228
77.4049
53.1244
65.7307
789.706
49.4922
88.7751
820.053
160.106
813.869
373.792
118.712
141.773
180.186
191.526
695.242
71.4062
269.328
102.383
63.4294
182.299
68.9969
108.129
62.9487
556.771
399.184