/*--------------------------------*- C++ -*----------------------------------*\
| =========                 |                                                 |
| \\      /  F ield         | OpenFOAM: The Open Source CFD Toolbox           |
|  \\    /   O peration     | Version:  2506                                  |
|   \\  /    A nd           | Website:  www.openfoam.com                      |
|    \\/     M anipulation  |                                                 |
\*---------------------------------------------------------------------------*/
FoamFile
{
    version     2.0;
    format      ascii;
    arch        "LSB;label=32;scalar=64";
    class       volScalarField;
    location    "0.020811";
    object      p;
}
// * * * * * * * * * * * * * * * * * * * * * * * * * * * * * * * * * * * * * //

dimensions      [0 2 -2 0 0 0 0];

internalField   nonuniform List<scalar> 
47425
(
1.4226
1.85929
0.226777
1.18656
-11.4239
0.409078
-9.89194
0.273102
15.9086
-24.1514
-0.0285468
16.0605
-6.53506
0.0237948
0.519848
15.0109
0.416085
29.2129
-93.969
-22.8889
7.89308
17.6984
0.0066327
0.920287
16.9683
0.96448
0.201955
-30.695
0.317824
-0.184913
17.6511
14.6698
15.6576
0.120004
0.303251
0.165323
18.9078
15.945
8.44548
1.25874
1.7418
1.09853
2.48761
16.1264
-30.5221
1.24034
0.224545
15.5154
0.73903
0.120966
52.0542
2.18528
-0.25155
-21.7108
1.19418
10.1355
1.95082
0.208173
-13.0151
0.0146024
-24.0383
-24.2088
-57.5816
22.8024
15.2937
5.09443
15.0273
0.520342
-38.2394
25.0306
5.09771
0.617887
3.38112
9.63681
-45.9999
15.6199
-57.9804
0.219674
-102.594
-12.7596
-50.5566
11.5799
24.0364
14.1594
1.42768
1.80387
2.61045
0.440627
0.132199
-17.9304
17.5255
4.22435
0.131851
1.83139
1.93143
1.14451
0.273934
1.61745
1.70444
14.4854
13.8975
28.3204
11.4897
48.9043
11.2161
2.04657
1.36543
1.33576
0.92044
15.7448
-43.2521
15.1007
1.84324
1.98307
1.60661
39.1213
1.85057
54.3964
10.6958
0.134313
1.9173
15.8776
15.3911
-2.5589
13.379
1.76214
0.745412
15.3011
-0.675813
0.634674
23.1685
1.46062
59.6229
9.51507
1.11799
-3.17554
3.66923
1.70916
13.3435
1.54033
15.2379
-6.48451
7.92194
1.82973
12.8836
15.3863
-9.41334
14.9804
8.42251
16.0118
2.09393
46.7149
15.3452
4.30417
23.8552
0.867302
8.61904
-102.802
1.52457
-0.0436818
1.02412
0.7744
0.82623
12.9464
-36.2675
-70.8987
15.2249
-46.4675
0.902085
-33.6525
-47.8424
1.49748
14.4661
21.1005
0.839879
15.3586
38.3356
0.0544568
0.136984
0.321058
32.8018
0.740072
0.354633
0.238264
0.0379706
14.1958
12.0979
54.1692
0.39872
1.43756
15.5488
0.580936
-6.74136
15.7085
0.475486
1.23101
15.5542
1.06491
0.869827
1.4227
-0.0631124
2.72195
1.33332
1.55238
11.9695
3.58712
-0.0813827
1.89249
14.1124
15.0354
0.767199
1.50457
14.4932
0.827335
2.81609
-0.116694
3.26558
-9.96048
23.7742
16.1777
-14.827
-0.131784
3.1376
3.57986
4.55599
-13.0823
-0.226522
0.200741
-0.352706
-4.47866
4.52508
0.827826
2.37621
16.1967
-0.129946
14.3562
-16.8913
0.798864
-14.9034
-0.392842
0.374086
0.117681
0.0318515
-4.04191
10.0733
15.7177
1.24093
15.6633
0.416273
0.359534
1.2203
-11.156
0.132876
16.0604
-0.474067
0.341087
17.4305
-0.433292
8.5333
14.7937
0.397855
16.1669
11.6579
11.7942
-3.7878
1.65415
0.395608
-3.64827
0.0914865
12.1537
12.466
-14.5935
-16.4666
12.6312
-12.6179
12.1053
-13.2909
33.0382
-14.8196
38.7766
-22.1956
1.62693
-26.767
2.15729
0.0184068
0.816473
0.168651
0.204608
2.05363
1.55784
60.9329
22.0108
15.0942
-0.0482082
0.137662
10.0207
-3.57
11.8866
15.34
-4.42855
1.51156
0.900932
0.462232
0.256733
-69.8578
-80.7049
42.6913
0.192699
0.88577
13.6963
14.9402
54.6107
-0.239985
0.131434
-6.70196
2.02208
0.374431
1.50621
0.405686
-36.4668
-6.78321
14.2034
13.7208
-0.598738
1.38853
-0.181252
13.1752
1.33717
0.475404
0.148836
-1.15599
-65.5497
11.1964
0.0985389
15.9143
-0.586099
-65.0552
15.3689
0.640834
0.795329
13.9917
13.8359
1.00125
16.2388
0.417058
0.0680802
0.558835
19.013
-0.208079
0.375002
14.88
9.65021
15.0709
15.2746
14.4186
-0.771563
-0.0261638
22.4068
14.164
15.2777
15.8589
-0.500613
-0.0941251
0.234476
10.2317
1.91345
0.264657
15.2242
15.6002
12.253
0.710277
-22.7946
2.64637
13.0534
15.7326
13.1666
0.659494
14.8091
15.1824
18.3472
14.5758
12.9871
0.436557
15.8785
1.14824
15.5726
0.0432589
12.4029
15.0548
0.301629
9.19858
10.3326
-0.0582553
8.84333
1.54258
9.71954
15.1699
0.236989
-9.58558
0.0877831
-18.7469
0.275502
-24.2039
0.0735124
5.37313
0.475892
0.0659275
0.411671
-0.0175447
-0.628544
10.5188
-85.7842
63.2381
0.835431
10.1865
8.85347
7.60908
0.637014
0.405792
0.341957
0.370917
0.844492
2.1522
7.01486
0.0572436
-0.226296
-1.31938
0.636011
2.18893
23.1879
-78.0245
1.89931
33.0169
-73.151
1.75621
-79.7875
-22.1364
0.855989
4.74128
5.77397
2.63936
-82.6716
0.993843
0.818282
0.223779
2.29821
4.23647
1.16924
1.32367
-13.5508
-76.2445
-14.3709
15.6401
25.9673
0.750085
1.19293
3.62635
-4.96004
3.88411
15.6427
15.865
16.0197
9.04546
15.9953
0.578675
13.3938
0.203601
2.28209
0.730802
0.847708
15.3695
15.4975
15.0749
10.0164
14.2171
1.26253
2.93317
-13.1682
14.7982
-6.99098
15.335
1.43054
-0.12828
16.1432
1.00944
14.3553
15.2216
15.0467
13.0506
0.366848
1.82392
14.9829
1.67136
13.6964
29.5425
0.496524
16.3938
14.6328
18.4312
1.0859
0.416425
0.847465
0.224823
3.45811
0.16421
0.241591
0.50808
1.00032
2.19713
0.189221
0.261718
27.8208
-0.244897
1.24301
1.06182
1.04533
0.722767
-0.110442
14.06
11.7717
15.147
15.2589
52.0597
0.01636
-0.106347
15.0973
15.9347
-15.8119
-19.2876
0.394572
1.10845
1.46021
-2.90735
14.2801
-20.4332
15.9652
-59.5821
31.1964
19.2235
-0.0887091
-14.9639
0.165714
1.47004
-0.405364
1.1766
0.0703803
0.861872
-69.1449
0.270329
0.166565
0.022681
-15.5469
0.375858
-0.0746611
-15.1878
-11.0928
0.0750132
0.263274
-46.4036
0.308658
1.67185
-0.094602
0.635209
0.336254
-7.63153
-3.57048
21.0208
0.985851
0.482897
0.288797
-21.7811
22.4633
0.357044
-47.3552
-0.094283
0.0254624
-49.3654
-29.9625
16.2475
-46.6288
-46.7835
0.149996
15.5925
0.100397
19.5278
14.8793
-0.0537409
-37.0896
14.1791
0.286974
0.533927
-13.36
-7.19004
15.6369
10.0576
-52.1536
-12.1254
5.47934
0.298926
1.33613
10.3454
0.0318601
1.274
14.4767
10.8202
15.9689
0.894281
14.7604
-16.5029
9.81841
7.1408
-18.58
11.7443
0.581532
8.18557
13.1864
0.201403
15.4017
1.13241
34.0816
14.028
2.11175
1.5019
-106.779
9.19514
-3.5153
-31.0027
-33.3681
0.0116161
1.86804
-33.7189
-0.236599
10.8237
-4.56302
15.7343
-29.6631
0.598316
-0.221389
14.6331
-20.649
16.3741
16.2056
0.46757
-0.067152
1.10842
-0.0512987
0.733867
1.48197
1.32435
-18.5754
-42.5347
4.57951
13.9671
0.538045
20.3451
14.0943
15.6572
15.5758
15.8659
15.8138
24.312
2.60464
15.8477
11.5134
-9.87176
0.265152
-77.6506
-17.3683
-0.177906
21.4057
7.71352
-0.167544
-87.1515
0.0211473
-45.2375
0.879078
-4.47482
-5.74337
0.830035
16.7645
11.5663
31.9869
0.086541
0.473993
1.87239
-6.71577
16.3727
-8.06718
2.30482
-88.5459
-4.53269
2.18782
-6.36562
15.6362
0.984227
8.22004
1.96213
-7.49369
15.7764
14.09
-6.88673
0.16328
2.07333
0.21247
0.321766
37.6977
37.006
16.5137
24.6665
0.0239231
0.0689161
8.07994
1.66111
0.872769
0.13445
1.26821
0.47527
1.11841
40.7989
-0.647187
0.285731
14.5942
0.668535
0.558539
1.22846
0.0834442
0.832749
-14.1229
0.898112
0.152866
-0.108158
0.560749
17.7379
-0.133082
2.10497
0.674142
0.638562
0.301319
23.1553
44.797
1.1996
-49.6834
-0.702948
-21.3003
-48.1642
1.89974
2.17575
12.7043
0.827568
50.6438
-49.6643
63.6188
-3.6245
3.44891
-7.21671
0.411235
62.5664
9.67958
2.4695
0.316017
0.828773
-3.15793
1.7609
1.3835
1.01177
-51.0618
32.6253
14.9503
15.6607
52.1054
48.3947
-2.80124
-43.272
-6.88477
55.1081
52.7654
15.4259
0.597821
20.4986
0.449654
8.75867
-46.3839
9.01599
8.04893
9.67977
0.194869
-49.2805
-49.6039
0.0485161
8.08161
0.812298
0.31011
9.38936
0.232983
19.1159
-0.259582
0.65235
39.1156
0.0584898
-0.942642
-0.112724
0.291431
-0.00957187
58.375
-13.3996
0.137686
11.7051
0.745422
18.2109
18.4597
-5.85035
0.180205
-61.4002
-6.85914
8.79153
5.74379
31.9723
-61.045
0.796116
0.124295
-11.0197
1.54318
15.3313
3.56628
-0.0582946
16.0455
-67.1127
-12.304
-58.3154
15.9282
33.4587
0.716752
-5.43486
19.8183
-6.42603
0.120662
21.5285
-67.4838
-14.1911
-7.24962
-55.7893
-6.43965
1.63609
0.429559
-6.72875
0.361278
-7.36671
-52.8921
-0.037266
-9.14519
1.43574
1.1491
-32.869
0.805684
1.63086
14.7547
18.3422
14.804
-14.5147
0.0690272
1.75322
-10.1665
51.9105
2.51422
18.8422
0.962245
1.14323
1.78891
1.69322
-9.524
-96.3176
-5.00264
2.48886
-9.06131
-6.42372
-7.97829
-2.66642
1.10247
16.1064
16.2713
1.5719
-0.0522236
18.7746
24.8954
16.3239
-50.3287
-6.94912
1.53332
0.531672
0.337701
1.16474
38.1789
15.3442
-3.83155
0.269752
12.1895
15.5516
15.3118
14.7857
14.2392
15.9487
-19.6878
-4.82311
24.2162
25.8765
19.2383
10.3127
0.615371
42.3328
1.93148
-2.86174
1.94937
-6.26399
-28.6851
0.131123
1.45583
16.0907
18.7943
15.621
1.09515
-53.2894
-17.2056
-25.3611
12.4524
-3.93375
11.2257
-45.4145
1.56594
-50.6482
1.76057
2.53955
-2.09222
1.42862
0.832597
15.1846
-0.0173287
5.51869
-3.33864
0.856075
6.31607
-14.3086
-11.071
1.35159
18.9908
58.8131
-75.2419
42.6517
-15.4325
-40.9011
0.0394859
0.947046
23.3682
0.931837
56.4459
0.867169
0.0481941
-74.0126
15.7099
4.3518
0.128158
16.4465
29.7054
14.7039
0.583217
14.0897
-8.71538
12.366
16.2549
15.9464
15.6506
0.754697
-4.28891
-4.58702
32.5935
15.7554
1.30818
12.1376
0.755591
0.537837
9.55466
-4.67898
-18.4329
-3.40353
-1.70623
16.7369
-20.8742
1.26972
0.0972773
0.387047
-92.4686
-57.0847
-10.9263
-44.7891
2.014
-0.497148
-27.8468
-46.9986
-0.679826
10.2811
0.748563
1.74351
-20.191
7.38532
1.42689
1.04084
15.8613
3.5728
41.2549
-88.9187
-6.11875
-19.6495
0.787704
60.2014
-87.9904
1.08549
13.7699
4.75509
-29.3736
13.7511
-0.895456
19.58
-16.4238
2.1679
-16.2267
4.56364
-2.49038
1.78433
10.3712
-11.7519
-12.0396
13.6572
20.1012
-4.30235
-37.7584
11.8733
1.20601
-8.20796
-22.077
14.2014
10.7651
-48.8595
-70.163
-25.6568
12.4243
0.386818
-6.45401
-29.5343
12.5735
22.9306
-16.4653
-2.64654
-1.36239
-10.2693
-27.0705
3.26673
16.2748
15.2168
17.9829
14.4004
11.869
-13.0931
15.687
15.9409
16.2778
1.25956
-67.1486
-25.2772
15.0283
42.1263
-9.78072
14.5046
-37.9919
8.32833
11.9329
-2.76677
-1.12789
14.3908
11.3972
-34.9256
15.9569
-23.1862
-81.7301
-28.6958
13.0594
-2.57037
14.4959
0.761555
0.827251
-8.13218
-28.7522
0.989549
-63.8934
-28.8676
65.2372
-14.6974
-71.1597
-18.4622
-0.0799971
1.24636
-31.4773
1.04378
20.2866
-0.324881
-41.6301
-27.9507
-0.0279123
5.32113
-26.1937
-17.983
-33.2608
53.3925
1.08623
-12.1011
-83.9902
0.383133
24.9199
-13.2716
19.2461
-96.2495
-20.9017
13.7831
0.0495607
0.599157
3.32025
1.29776
4.15844
2.91526
1.71083
10.3935
42.5855
14.9791
28.2524
-24.2143
0.772908
23.8439
0.677877
1.69277
-3.82711
16.7476
-53.1883
1.02923
1.34761
0.797713
-19.8198
1.65811
-83.9418
0.334522
16.9117
5.24767
-101.611
58.2318
-53.0499
-11.6558
43.7883
4.96464
15.4751
-3.3998
-18.6783
-66.2566
-15.7356
54.8572
15.5152
-6.81852
-50.4267
-4.16837
2.47526
-27.8479
-14.5111
1.51125
-5.96254
14.9106
15.6601
-40.8676
-42.6056
1.48994
10.9621
15.0024
-92.5516
14.944
-25.2479
-8.48321
14.3351
15.7561
-11.6467
2.41839
56.8188
-8.20764
8.75008
36.6059
35.1314
12.5297
-70.6902
-20.7986
-6.44691
-100.185
68.4776
15.9413
-30.9346
15.7916
28.1272
-86.4869
6.31371
-97.4195
-27.9476
0.712774
25.5504
-1.1431
15.7874
15.0882
21.2184
-14.683
-2.99155
-0.0718178
31.3338
0.550563
-0.307959
21.8273
-3.92312
2.35715
-8.58397
17.8773
-44.7622
-19.7364
5.85967
-19.7161
-65.8535
0.141818
51.5342
-46.4145
-0.133909
33.093
-3.41026
-4.1269
-14.1793
-17.0928
10.0058
-32.0613
-10.9477
8.67162
6.98529
0.479881
-14.4354
-3.40502
30.2737
-40.4455
1.55551
21.0802
0.475141
-42.2479
-0.0227781
0.785375
-3.79018
-13.342
27.5179
3.05593
-4.73605
-4.21008
-95.6513
0.0109308
-4.49801
-42.8367
0.946552
-2.40038
63.0072
-0.116608
-9.90687
-54.4429
0.68132
6.32541
0.183109
-114.092
-59.2749
-19.0234
-56.3143
27.8293
2.79225
-7.36997
-35.8993
-59.751
-1.97861
0.099761
15.2447
1.04411
1.01774
5.5512
57.4867
16.7958
15.2234
-1.12048
0.41493
16.8659
16.2438
26.4929
15.5652
1.10946
19.3922
15.9998
13.5345
-5.47006
1.43012
14.3513
12.7544
-3.06246
15.237
0.424514
0.726813
13.534
17.1379
15.6231
-78.5073
14.9015
23.7008
1.61361
-0.294682
-22.081
16.4802
15.8561
-72.3297
-46.2188
62.1933
18.7248
-76.7924
19.6164
1.26321
-69.2426
4.71196
-74.2555
-0.021013
-0.791327
15.3794
26.4381
13.2434
2.39259
1.71742
2.38393
12.0931
10.8477
1.41995
-8.5667
1.48876
-5.57172
64.8285
15.2079
-36.5707
-11.1394
-55.0727
0.691388
14.3221
-1.01249
16.6051
1.32595
15.512
0.708952
-22.5897
-14.6992
-29.8807
0.675056
-2.65164
0.557709
5.47414
-17.94
1.39565
-37.8744
1.34567
-32.977
0.771707
-43.2224
-70.3679
2.41582
-0.250854
-37.653
0.420264
-32.9418
14.3535
2.9559
0.978061
1.66911
3.47154
1.59066
-4.50696
-14.5702
-1.86073
14.5506
1.52498
14.3189
0.742876
14.3523
-28.6547
13.0136
-18.3138
2.13822
0.750048
12.352
0.771108
12.6531
12.077
1.64254
1.49557
15.9344
1.42302
0.226069
2.23526
1.93062
-14.561
-29.8722
-4.72544
1.31908
-36.5658
1.40352
0.259417
0.330435
0.374731
1.07355
1.71143
15.5397
14.4899
1.31712
0.376585
46.7514
1.50402
0.800538
1.66007
-34.4993
2.37855
-40.2716
-25.9656
-34.3418
14.9417
0.236169
2.29734
0.168153
0.825963
-30.6746
-2.77863
0.895582
1.1923
2.35984
2.68182
-54.416
2.64572
0.179336
-7.88997
0.368775
0.272748
0.186671
-0.374283
-0.210946
0.352209
0.488891
-3.03196
-6.45528
0.0454612
13.9211
1.16076
-1.42768
-0.386318
0.687409
1.99487
-3.20322
1.72522
0.716118
1.22711
0.639294
-2.52534
-0.0961105
1.188
0.868012
0.249825
1.0832
-1.1023
-0.234247
-50.7059
0.607582
-10.6895
1.82089
-0.744458
-50.5145
-0.0132263
2.17579
0.0992818
0.230663
0.965169
1.44692
58.2223
2.42103
-8.91872
1.16492
0.418704
2.06821
0.688678
0.246017
1.2726
0.636409
0.650475
0.062062
-2.38418
-7.37669
-28.2476
13.7945
-5.17189
-0.104937
0.409578
0.990701
-10.9825
-0.13455
0.239047
0.176283
-44.2709
-0.00689345
1.70149
0.50018
0.155388
1.50182
-126.483
-0.0263038
0.868229
14.3792
0.135596
-4.21558
24.9335
31.9893
-0.17269
9.80131
0.265337
1.56213
0.1565
0.213782
-42.8418
-44.9187
-0.0756286
0.602412
-29.8281
-0.135011
2.27749
-14.5294
0.0384995
0.815946
7.23008
-0.57753
-1.58782
-0.251277
2.10988
21.805
0.599322
-0.318656
14.8816
-13.7773
14.8521
-15.1392
-19.2477
-46.1606
-14.7266
0.72649
14.7967
-7.93317
15.0345
2.15044
18.7246
-22.6324
-16.2794
15.6387
-5.47483
15.536
0.506895
1.06062
-51.5859
0.798435
0.780447
14.6782
15.0249
45.3126
48.7885
67.4274
-42.197
30.8648
15.4651
17.4817
25.8008
15.2746
0.547104
-0.0347132
0.510927
-0.546154
-51.9849
-51.6561
0.451994
1.46508
2.38979
-72.4714
-0.141608
0.934233
2.29727
-23.9941
-43.9719
0.83795
-29.5826
-0.970099
-21
-19.9242
-12.8916
0.0924434
0.329867
16.0141
-44.3471
-0.147029
16.292
0.987247
0.0152789
-61.7535
-63.3394
-69.4346
1.40083
-32.2003
19.8232
11.2496
7.18968
-5.8216
-73.1735
-68.0902
-46.7686
66.0767
-48.4421
38.9915
14.6591
-29.4118
15.6135
-46.5842
15.3091
-42.8434
14.5293
-15.9309
1.49426
-18.2818
16.1743
15.6875
1.73133
15.0862
14.7968
35.6781
6.16639
16.0283
14.8841
-52.6331
-52.7624
-5.02006
-15.4144
-52.7257
-14.9596
0.972918
17.924
-48.1071
-19.5027
-18.5144
15.6246
-84.7301
9.45961
-45.5224
-99.9826
-47.5091
-3.88746
18.106
10.7613
11.8635
15.3255
1.16095
-19.7289
1.97246
2.71131
0.821595
0.056338
0.122538
1.02905
0.567072
-14.5402
0.0155121
-0.00475821
-0.333093
1.22345
-10.8106
0.767419
0.916824
0.711218
1.15565
-0.544236
-13.5134
0.824299
17.3478
-19.5566
-99.4899
-1.98873
-72.4043
-2.24599
-8.14263
-9.78237
39.1326
7.64289
10.95
-1.38038
0.112575
0.172175
0.583951
0.0555704
-0.0697215
0.962493
0.554991
1.2344
1.5646
11.9508
-4.12467
1.17246
51.8762
-0.0281365
15.7826
-0.0229182
0.0327053
46.2155
-46.7255
28.603
0.497874
1.36823
-15.5367
-55.3431
0.493124
1.43655
19.6554
-3.40425
2.55378
0.65285
-11.514
15.0632
-0.516268
18.9101
59.8035
1.35977
1.69936
-2.36528
1.35401
1.35097
0.527697
1.20837
13.316
15.7288
9.67155
14.795
15.5244
8.25959
6.12614
-0.776385
-38.0387
8.88641
-3.93163
13.6146
14.5874
66.9589
7.06705
1.79253
3.13122
-34.198
-20.121
5.94994
19.1324
1.82707
35.7763
-1.96278
17.446
-21.0346
52.2806
34.498
-1.04532
1.98352
9.42502
-29.4224
-76.6638
-57.538
2.12503
-4.48185
-78.0106
1.71097
-5.04839
-1.72099
-18.6684
-61.6715
1.61818
16.5802
-84.0235
14.3219
-1.78814
1.74064
11.7507
-1.97965
14.0295
-9.76446
16.5341
12.6612
-45.0971
13.7878
63.7722
-10.7608
59.4376
34.7368
-56.0189
16.036
16.174
-40.6256
-4.97484
3.00383
-46.763
-14.6899
-10.0473
1.24756
1.35714
-45.5169
0.687127
8.19692
62.3359
-2.40358
9.07014
-1.24095
-8.03944
10.3756
10.8855
-20.3834
-45.1434
-21.2541
-49.9588
0.555797
-6.93848
1.86213
-7.46586
-4.87039
1.115
1.58968
-6.11294
0.202468
-48.6503
-49.7516
0.408135
10.9695
0.992667
-5.21795
-12.8384
12.7556
11.3876
-6.59306
-49.8984
12.5553
-2.36727
-51.5875
4.01455
-17.7751
1.15397
-0.664699
-39.9386
4.61934
57.3705
-1.88308
3.03023
3.17445
1.77257
-94.5844
0.761659
0.936604
-2.29429
0.695905
13.5612
0.434883
-15.4256
13.582
34.8811
15.7101
14.3034
14.1725
1.08766
0.951614
-1.47815
-3.11999
-94.6257
0.914856
-26.797
-3.4293
-0.644954
-47.1312
-0.346279
0.768067
2.21376
-2.20651
-38.7751
-11.6956
15.2526
45.4299
-0.192817
1.28223
-23.2031
-28.3872
0.228853
-31.8982
38.2089
14.481
-0.419857
41.7079
15.9078
-51.3516
19.5983
10.9885
53.2013
37.7395
15.7923
12.5986
66.1212
-47.6644
1.1854
57.9813
8.98331
16.3571
-3.24236
16.787
-14.4593
16.4465
63.9578
14.0924
15.4706
46.2084
12.551
17.4978
-11.1972
0.263785
17.7181
-50.5685
27.6731
-14.3996
-40.4199
-50.842
-9.23515
15.887
40.9041
17.4757
7.97306
16.1507
14.1711
16.8008
1.80635
1.1948
45.8766
-26.9831
14.2676
-15.7828
4.78933
13.8245
-7.7097
-53.2888
0.760108
-8.44787
14.7946
5.724
0.789612
14.2809
-2.48545
1.359
1.09519
-36.1183
5.45724
1.07053
-3.01306
13.6895
0.808423
23.8657
1.46349
-5.66909
29.9722
8.83874
21.4676
39.6522
-52.3398
61.9499
46.078
-19.5498
-43.171
-53.8794
-14.4792
-51.3801
-51.8659
-15.9865
-12.0651
-19.293
-53.9373
64.7583
2.14052
-52.1681
9.16878
1.0993
-21.9953
-55.7686
-4.29849
-46.3189
-8.4925
-45.237
-7.91376
44.1919
-26.7974
-17.0603
-53.0469
29.3567
-51.5547
1.3827
-62.9085
27.8635
11.2735
0.837618
1.41036
49.8182
8.86175
-33.829
-14.9147
15.8404
1.15175
-0.28444
-16.1138
-21.6266
0.774869
0.0822971
20.3169
-17.8172
-1.55618
1.29454
-12.6705
47.6852
0.909077
8.32499
1.53304
7.25096
-29.8747
12.8455
10.8564
-12.0059
1.62698
9.06326
4.28956
3.52159
68.0488
5.97097
-23.4634
-0.988813
4.35345
-89.2499
-93.8736
11.5957
12.3049
10.8047
14.4064
-13.6875
-3.44445
63.3997
-5.55563
14.2967
-17.1703
0.834733
-2.21719
11.2353
-4.93604
11.261
-11.1474
-56.3619
-26.027
38.5557
-16.9304
19.2963
12.0001
-40.3378
-50.6733
34.0334
-60.5048
12.7859
-43.8709
39.7049
-16.2083
27.7052
-6.28807
3.82571
0.231156
1.12473
-6.37421
-25.4134
3.7437
16.7053
-75.8188
16.0803
-10.4907
15.9865
1.04351
12.3541
2.77614
1.60142
0.344377
0.903002
8.79527
4.00637
17.8217
0.744028
-53.8656
37.9865
14.3585
44.2091
15.9996
7.69981
13.8343
15.8803
33.9368
1.66452
33.8787
1.02997
0.970959
-9.33874
0.850256
0.382534
-11.9959
-7.75889
-13.9167
0.477756
39.2262
6.94015
32.9276
1.07958
16.3073
18.3432
2.8429
0.562409
0.532295
3.35146
65.0042
0.414568
-0.980481
-47.2518
15.6793
16.073
20.8368
15.7476
-11.0129
-17.4847
4.66182
0.350134
0.458964
-6.35466
38.8907
0.324319
-37.8015
2.05389
-16.3343
3.08166
11.7969
-15.9549
15.4404
14.9817
-8.26502
16.3375
1.17186
10.1892
-34.7051
19.9901
60.0071
2.10007
2.04061
40.2849
13.2975
3.41891
36.9226
10.4131
-5.93303
41.9547
-14.3944
44.0878
-72.1399
7.44883
15.6806
2.06236
-3.08759
5.30626
1.2738
1.52633
0.340886
16.0089
-21.7672
7.09552
2.33478
-7.99572
2.59655
-2.69214
15.265
15.7257
27.0922
7.80242
2.8887
-3.52243
1.97714
-4.48844
14.8855
2.07698
-9.7343
65.7117
-9.91943
1.90602
64.414
15.2503
-93.2399
57.8955
2.59876
4.99881
36.5308
15.9637
-49.4157
40.2681
-49.0034
4.43429
-48.8283
-11.9904
-24.2279
40.5574
5.14466
65.7084
0.494245
-50.2673
-45.0098
-94.6903
-94.5082
-27.105
-60.2733
-16.6903
-47.1198
63.4557
11.9051
13.345
52.5082
27.099
-27.1606
11.5364
-29.5702
53.4948
1.02403
13.6877
0.082326
0.717234
0.417757
0.717101
64.6032
1.24661
0.770121
21.9625
1.72314
1.14931
14.2524
-2.39219
0.620658
-2.48104
0.76363
9.83869
33.613
-31.1021
3.02069
4.39607
-1.14503
1.88652
-37.3294
-36.6635
-10.9419
2.35827
45.7446
16.5996
0.938843
-2.00718
7.49548
6.66421
0.887135
14.2175
14.9625
-55.8741
0.644594
16.437
0.523474
5.71247
14.1519
0.49357
10.8195
14.1656
14.0934
-7.04896
13.2714
14.7597
54.3234
32.3323
13.5145
29.7439
13.8898
1.95908
14.5097
0.834826
0.901874
2.78117
8.65296
-0.656065
22.437
13.3077
-9.80078
31.5313
0.905037
12.1647
34.6757
-6.4742
37.2652
-14.1189
-32.957
-56.2479
2.95228
0.583275
-9.92078
37.0164
-2.07246
1.14302
11.7263
3.83365
1.33955
0.973923
11.9905
15.8317
33.0083
10.1801
4.39827
14.6544
13.9527
0.0871348
-21.693
39.5865
-0.329034
11.1347
-3.70685
43.3508
14.9547
13.1988
-4.72407
-36.0905
-94.1015
15.2432
14.8411
-3.20766
-7.57668
-2.75055
-19.1181
37.525
1.28214
2.08713
1.90551
-0.772189
20.153
-8.06602
-0.356529
1.16147
36.9924
1.04713
-0.0352973
26.6212
-21.9071
-15.1884
0.651395
-4.39612
16.8817
-0.119725
0.64463
15.6496
12.2342
-6.75331
25.4865
8.20892
-46.9082
0.146077
1.32392
-46.2757
-7.12508
16.6355
0.722291
10.5734
15.6224
67.7499
0.726571
-3.2689
-19.6606
-23.6435
-64.7329
-43.9767
0.717346
20.5389
53.7365
-0.0684914
16.9749
15.5831
-34.8126
16.0685
8.85412
-17.5548
14.7671
21.7656
-9.08402
11.3203
-31.8569
-53.0182
18.1004
22.8715
-48.3006
18.1863
14.1691
5.47508
16.7242
15.1841
2.9507
-22.427
-1.18303
19.9479
17.2983
17.9185
15.8438
12.7502
0.0236174
45.8595
-0.103398
0.41616
2.66191
41.2568
15.7069
-5.30085
7.21492
62.3567
-13.3461
-17.8519
-42.0902
5.92588
-0.49379
-34.2743
-9.8861
17.9365
-7.8042
0.0992826
0.020506
-2.48492
14.6537
14.0153
11.2351
0.125244
-0.334345
-11.1083
-0.0680795
-5.89168
2.41135
2.04587
-0.110167
1.86247
-0.569354
15.5853
-25.9255
15.563
1.93496
2.35457
15.6502
14.1696
14.8245
2.55241
2.78019
-2.57355
6.1332
2.10385
3.62781
-45.8062
3.85368
-4.67323
-53.6953
-47.547
-48.1352
17.6456
-62.8249
20.2497
-45.8581
1.59558
-52.1764
0.0223465
5.00172
4.654
0.0259094
0.499053
4.97563
1.61044
17.7732
1.90756
18.9078
-0.376236
-5.69163
-94.1387
-50.5029
28.0956
34.2976
-38.3494
-26.7724
-25.6283
-67.7806
-51.1397
-2.19824
-51.9586
2.10344
1.76326
-46.6616
-81.3714
-7.12464
2.42176
16.2991
54.6869
-0.97888
-81.7411
2.52292
7.71436
1.47301
2.20673
-28.9982
3.6844
1.89756
1.86873
4.79519
10.8581
2.50044
0.77324
-73.0684
-76.0798
-24.1519
30.5085
-30.0306
15.2787
0.55412
17.0076
9.77624
6.79212
28.0842
14.7073
30.4452
-0.272614
6.9969
8.3488
2.64049
5.25188
-3.6367
10.2498
15.9387
10.6402
44.6675
3.29152
24.1945
-43.8965
-0.0194766
-34.4716
40.4805
13.3998
12.6937
8.35815
-21.2153
-5.00409
12.9901
-32.1563
10.7393
6.6757
-0.0902903
18.1584
12.4303
-1.05645
-6.99111
-24.013
16.0948
0.267977
-37.8426
3.26536
-29.6017
-34.4347
15.8244
-72.0646
-0.373084
35.6574
-2.3947
15.2655
13.5418
18.9372
-0.546767
15.3159
-51.2156
-2.75298
-49.8166
-1.67406
-6.11753
25.2558
-51.2896
-7.46768
1.46823
3.29315
23.7128
-51.9927
15.5991
2.97541
-22.6556
0.837032
1.88768
14.3492
-100.231
-0.369455
7.37155
1.18653
2.28494
14.4597
12.5431
2.06045
14.0756
-7.36516
14.4532
-87.5625
13.9149
-54.7632
-15.9157
-0.178385
10.65
-1.00751
-5.48325
13.4639
-0.517409
1.77208
-1.7854
60.2163
0.362735
41.4316
-0.720061
0.813166
-0.496969
-0.577663
15.815
14.2212
16.0083
1.28391
1.1595
15.3867
-3.74727
1.01218
0.509964
-12.6699
5.10219
-0.502388
15.1088
-27.8842
-65.1152
-0.00566847
-0.354943
0.433817
-19.6177
0.294304
0.277508
1.92187
0.805819
2.1632
1.66879
0.156492
0.48729
14.9236
-22.5083
-30.1863
16.3083
54.3756
19.3443
14.8454
-0.131499
15.5365
48.1941
0.0746166
43.9293
2.81958
-0.760366
11.6201
36.5857
1.29661
-0.00300033
58.28
16.1302
29.2382
-2.13496
-6.16391
0.350355
0.115814
-0.147411
0.77244
5.02997
1.4102
56.4846
0.876034
1.10705
0.677874
15.0883
-17.2446
-8.49875
-0.262885
1.84696
2.51519
0.625744
15.0842
-16.2324
27.9538
22.2868
1.28258
0.555818
49.0279
-7.04789
47.9619
32.8583
13.6733
15.0741
0.554154
-2.15742
4.29688
-4.99738
-5.09901
15.5216
-93.8942
1.5228
1.07165
0.0212146
13.6061
1.81761
56.0842
0.227963
50.8365
1.28735
-62.4049
-6.12751
-6.323
1.56268
-32.7267
0.579692
37.7111
15.0995
38.4523
1.07219
-8.69242
6.73863
-33.4612
30.2118
14.747
14.6457
1.89594
-13.6531
14.7838
-85.3858
-8.61856
15.4407
39.9958
14.4578
-12.5471
49.6591
6.55113
-0.445214
48.1719
37.0925
4.57094
5.89578
-54.475
47.302
12.5838
46.8812
-0.296152
-48.6415
31.5001
1.30683
0.150932
-0.158328
0.655682
2.39509
16.8169
-26.2618
2.443
-16.7687
19.6271
44.4289
-7.89807
40.9317
0.102103
0.0583751
-5.10223
61.6359
-8.15768
54.9082
18.3737
7.36793
29.1663
9.51773
21.8895
-0.0740423
-0.236677
0.0395257
-0.104884
11.0524
-6.08897
16.8015
-24.5741
0.82983
-22.1889
16.7725
-11.5112
52.9035
5.05173
3.58907
0.227325
46.9649
-0.163847
25.7401
1.62748
11.8831
-2.19555
3.8197
38.361
41.167
-5.74717
-0.0152301
2.1905
-27.1585
-52.4324
-4.4863
58.2892
33.8689
61.317
63.0428
52.122
-47.9705
2.84282
52.0633
-38.1352
0.0903714
7.88698
0.479148
-14.5941
-26.2814
1.39106
4.4229
-1.06245
-0.404773
14.1284
-28.9283
45.642
-32.2636
14.438
2.74909
13.829
5.65198
-0.850184
-89.2513
2.13009
-18.3548
-7.4279
14.2087
-72.9794
-95.8673
14.0392
-3.52089
-5.40245
20.7304
13.9756
-5.45292
29.2018
-72.0878
-17.2788
-25.4184
43.0529
-24.4354
8.55775
29.2423
8.60963
-34.9923
-38.5511
8.60292
1.76021
56.9515
3.51725
-25.6451
1.15037
-6.86646
-46.1416
-3.37651
-48.1779
1.43887
-49.1902
0.279868
-47.9749
13.7836
-12.3691
57.5911
-50.4278
26.75
-17.509
-52.0767
-8.18581
-18.561
38.7412
36.4829
-20.1474
14.5111
22.6361
19.0824
8.89101
16.2389
-3.03149
-51.0383
-141.585
-53.3868
23.5222
26.9923
-23.1908
30.2079
-46.1347
-4.52887
10.2841
5.01291
-34.6867
15.7678
-49.451
18.3239
37.7003
38.7314
67.3734
37.0593
-13.8873
-41.7928
53.1509
15.8689
41.4751
-31.4223
-50.1993
54.5463
32.8906
0.142447
24.8283
21.4183
-28.9269
-49.2654
-95.2155
26.5835
11.8156
42.3502
-38.0543
51.8164
34.7045
15.7615
43.6436
-68.9667
10.0636
5.88603
16.6914
-3.35354
-22.6077
-58.7003
50.0969
-0.293637
-33.445
-71.9006
50.5639
49.7016
47.5805
-42.0256
-76.9421
50.067
-8.7826
-40.2883
50.8804
2.84625
-3.38905
14.629
0.906269
3.20732
-2.11122
48.3325
-15.4335
-0.817816
3.13077
2.95649
3.88309
1.99464
14.231
-19.649
-0.742936
2.77786
-37.2114
-56.154
-52.9361
-8.02633
3.77048
-6.72659
-25.5735
-16.055
2.97253
-47.1081
6.23526
-45.7107
-47.3173
47.9953
25.0741
30.191
-0.465082
13.7138
-50.5793
-12.7613
-3.39351
-50.533
-0.199092
-41.6838
-25.786
-12.935
-26.7509
3.21423
18.9788
14.9307
18.0499
14.5976
46.5241
0.875834
-0.257686
-0.0350365
18.1794
-18.47
-61.7053
-39.5563
18.2101
43.4787
27.3818
35.8707
7.68204
-66.3522
-0.999918
18.2346
9.46078
1.49972
22.9001
13.387
-4.06659
18.4243
-4.40584
-3.92375
3.85984
19.3113
40.9738
-17.2326
61.1667
-77.8775
23.5842
-88.9243
-57.3684
-4.2494
13.2182
43.289
-0.585059
-25.2288
1.24535
18.2109
-15.4892
-56.3536
23.7954
52.0166
68.1145
-43.0818
-12.7217
-41.1481
18.0243
4.14663
-6.21144
13.7482
10.1132
-12.7954
6.92394
14.5939
-26.254
-2.34609
-55.2379
1.8829
-73.4449
0.1469
14.7541
-86.6759
-7.02367
-0.231657
66.771
12.2414
55.586
6.50025
-45.5326
20.9304
9.51742
40.1613
61.5978
19.1693
40.813
-0.297176
-30.5648
16.1131
15.1703
3.28689
15.6226
-21.8876
4.43624
-2.00515
16.2695
7.03334
-10.4694
8.23944
12.9016
-0.938948
-1.47971
-20.9278
0.0576943
16.2032
-0.173041
17.2615
0.158532
-2.75805
15.2032
-11.1395
14.7738
-41.9315
-0.0333003
36.5795
-4.96178
42.6065
0.315314
2.77203
0.115648
0.0075481
-2.95238
6.51955
19.4856
41.1803
29.9096
-71.5537
-36.8308
52.2852
31.3098
24.4979
12.7547
0.0933415
-0.124937
-54.4349
52.4532
26.0101
21.773
1.03581
22.3432
-0.0158365
0.147378
-9.19184
-15.4849
-23.3594
-50.7578
14.8906
1.46885
-11.922
15.2355
43.4525
14.3704
-5.59726
14.3485
-2.15062
-58.6698
-10.4001
0.129056
10.6107
0.00829972
-1.17761
-45.4192
15.0347
-46.583
30.092
-56.7328
-18.2709
-15.6931
0.245268
25.7244
10.8174
16.1438
38.3028
15.7664
-1.76846
13.365
14.6338
14.9353
15.5326
-25.3591
15.5597
17.118
47.9451
15.6321
-10.6895
16.0314
15.854
-48.4675
-57.3122
-14.8575
-51.161
-46.0794
15.3276
61.3593
-61.9743
-7.32665
19.6382
26.3414
-46.4933
1.04827
0.354584
13.1352
-11.5322
-54.7867
-30.2226
40.1343
7.59635
0.997261
11.7898
-63.6423
32.3455
12.4558
-39.1923
-71.9944
-59.9911
68.4641
17.0047
12.9433
11.2801
17.2473
-59.1911
21.2552
14.1668
22.9522
-19.2979
19.453
28.6811
50.8877
42.5506
13.317
-6.98781
27.224
-0.505754
0.866613
0.484325
34.1235
-17.871
-13.1337
0.468343
61.7539
0.45279
-62.4296
32.4809
31.125
45.6994
-56.0147
-31.2249
-51.226
38.7965
-3.34229
-18.6781
-10.8615
13.6385
3.47015
17.4537
1.67657
25.8351
1.56426
14.3973
1.68274
-2.42021
0.216749
42.1825
10.2767
5.795
-13.6638
9.18267
1.46832
9.98028
2.65544
-24.5485
-32.255
-9.46236
7.57471
42.4988
1.35017
65.3162
-39.8037
64.5019
60.4123
1.47475
5.04256
6.1736
1.07931
1.50365
-70.707
19.0035
-40.2627
-28.131
7.76556
2.68336
-47.4298
7.34367
7.25256
14.4237
10.3129
1.12653
-45.7335
1.54289
1.70694
-0.434065
1.59369
1.2264
1.59547
1.57825
0.778622
6.91713
-38.7359
-0.390125
1.23139
-5.54643
-1.81444
24.6337
-12.6399
15.8445
15.8965
-0.335274
-0.206187
-2.87847
-6.00901
8.38043
1.28527
5.94597
9.80453
-0.39675
60.8143
0.720522
1.96526
0.123373
0.00465036
-16.1966
0.0402257
-54.1007
2.33502
54.8834
5.74541
0.522839
-14.3231
-7.61384
1.31267
-22.0455
2.99181
0.129118
8.60647
-53.2919
0.230969
5.98794
28.5758
43.6494
-0.423728
10.5845
12.5717
-28.5217
-12.4829
0.0714994
52.6744
-42.9834
-10.6007
-3.31952
56.5009
-4.76104
-1.21433
34.5373
-48.6362
7.3852
0.0679098
0.281956
0.274242
0.030528
-0.388504
-53.8052
20.0421
-0.423182
-37.7405
8.3983
0.365728
-0.665631
4.13144
21.2526
-31.5881
8.63178
18.7335
-14.3517
2.78982
16.0475
65.9618
17.7554
-74.8597
46.551
20.7526
32.2313
0.390791
52.8207
0.485103
14.5359
26.4271
-0.0851116
-28.7631
-60.5668
0.993685
0.411809
-116.005
28.0067
-53.7618
3.45673
-3.05992
-0.799322
15.5767
32.0046
57.404
15.7879
58.1247
15.8221
-66.6282
-56.8838
-51.5191
-56.6652
-1.84036
1.45631
31.6166
16.2112
16.0638
69.3518