/*--------------------------------*- C++ -*----------------------------------*\
| =========                 |                                                 |
| \\      /  F ield         | OpenFOAM: The Open Source CFD Toolbox           |
|  \\    /   O peration     | Version:  2506                                  |
|   \\  /    A nd           | Website:  www.openfoam.com                      |
|    \\/     M anipulation  |                                                 |
\*---------------------------------------------------------------------------*/
FoamFile
{
    version     2.0;
    format      ascii;
    arch        "LSB;label=32;scalar=64";
    class       volVectorField;
    location    "0.020811";
    object      U;
}
// * * * * * * * * * * * * * * * * * * * * * * * * * * * * * * * * * * * * * //

dimensions      [0 1 -1 0 0 0 0];

internalField   nonuniform List<vector> 
47425
(
(10.0816 0.019908 0.02178)
(10.0699 -0.0166873 -0.255997)
(9.96907 -0.0222447 0.12742)
(11.0105 -0.403311 -0.1979)
(11.8286 0.524115 0.681542)
(10.0909 -0.00197622 0.0349213)
(11.7382 0.376996 0.617522)
(10.097 0.00728337 0.0374585)
(10.0718 -0.0142697 -0.0308252)
(5.41533 6.79679 -0.809715)
(10.0467 -0.00687481 0.0152119)
(10.121 0.19882 0.00782451)
(11.5882 0.402125 0.200966)
(10.0053 0.0275103 0.0609115)
(10.3215 0.402066 -0.106057)
(9.71305 -0.131371 0.0275071)
(10.0048 0.0298042 0.0886346)
(8.64773 -0.5065 -1.20958)
(8.5383 0.943404 -4.52542)
(12.843 -0.431147 -0.86597)
(10.5625 -0.52071 -0.471311)
(9.71547 0.013379 -0.0169953)
(10.0664 0.0774885 0.0301231)
(10.0813 -0.0601379 0.11451)
(10.0307 -0.15993 0.112693)
(10.0143 -0.0222825 -0.0223747)
(9.95542 -0.00649494 0.0221408)
(11.1808 -0.272865 -7.95627)
(9.97109 -0.00123296 0.0347548)
(10.0877 -0.0471022 -0.0103383)
(9.71219 0.492282 0.172861)
(9.97685 -0.0526446 0.099064)
(10.0369 -0.126324 -0.0598499)
(9.90554 -0.00247951 0.0484214)
(10.0255 -0.222746 0.00391005)
(10.3049 0.00420776 -0.0312791)
(9.74825 -0.052065 -0.0203821)
(9.90954 0.131589 -0.0247033)
(10.4564 0.211969 -0.0629282)
(10.0321 0.0778609 0.0154678)
(9.83988 0.040094 -0.025968)
(9.46804 0.150214 -0.207619)
(9.09856 -0.406939 0.324692)
(10.0339 0.0697054 0.0406841)
(0.453432 -1.14292 0.381259)
(10.2061 -0.0743937 0.0542277)
(9.98262 0.0273525 -0.0892916)
(10.0222 0.117085 -0.047122)
(10.068 -0.106595 0.0631888)
(9.98408 -0.0883444 -0.073528)
(1.95398 -0.557964 -5.24692)
(9.49699 0.778273 0.895052)
(10.0646 0.0365605 0.0253891)
(7.35243 -6.19425 2.53072)
(9.96893 -0.0159982 0.0919694)
(10.2953 0.124458 -0.178145)
(10.0907 -0.0877241 -0.178143)
(9.9781 0.127687 -0.0367126)
(12.7328 0.548156 0.61343)
(10.0287 0.0294764 -0.0754785)
(5.7668 -6.08419 1.91332)
(5.61153 0.530475 2.32986)
(6.68576 -7.41251 1.50374)
(9.08163 -1.05218 0.193696)
(9.99608 0.00160924 0.0334681)
(10.5032 -0.185124 0.0952409)
(10.014 0.0146558 0.00488132)
(10.3869 0.238569 0.429615)
(8.65854 -6.7274 3.06531)
(9.13349 0.571857 0.524196)
(10.7526 -0.252903 0.246175)
(9.99036 0.112573 -0.00576932)
(10.5826 0.0467963 0.0551088)
(10.5107 0.244705 -0.508322)
(7.40566 5.51891 1.37622)
(9.95668 -0.0607714 0.0988486)
(7.26566 -7.38027 2.3187)
(10.0238 0.0207077 -0.0210272)
(8.33353 -5.93583 2.93256)
(11.3409 0.319166 1.70222)
(7.92386 4.93011 1.53598)
(10.1961 0.240256 0.058765)
(9.35107 0.0952903 -0.0635562)
(9.9952 0.220175 0.126646)
(9.81895 0.0877035 -0.133451)
(9.96525 -0.0529438 0.0804352)
(10.3377 -0.0694392 -0.0138615)
(10.1447 0.138765 -0.0278499)
(9.9452 0.92738 -1.14016)
(10.6747 -0.0968744 2.50656)
(9.67639 0.411095 0.0854589)
(10.4409 -0.125865 -0.0325215)
(10.0729 0.018645 0.134091)
(9.99524 -0.1244 -0.0293793)
(9.89119 -0.162798 -0.045714)
(10.1202 -0.0302417 -0.0615908)
(10.0474 -0.000935112 -0.0579285)
(10.0963 -0.318766 -0.11476)
(10.0214 -0.0966105 0.219925)
(9.819 0.282698 0.173897)
(10.212 0.088901 -0.0890104)
(8.65975 0.106204 -3.48173)
(10.2788 0.130099 0.0726517)
(5.46769 1.80003 -0.28436)
(10.3193 0.0642702 0.12034)
(10.1064 -0.426445 0.0992854)
(10.0314 0.0442875 -0.0512635)
(9.88863 -0.0628209 0.165307)
(9.93686 -0.0159683 -0.02073)
(9.94421 0.229323 0.0331164)
(-2.40541 -2.15607 -0.309652)
(10.1125 -0.0217251 -0.0181957)
(10.0459 -0.561934 0.158869)
(10.1337 -0.00235832 0.0428372)
(10.4144 -0.414002 0.110584)
(1.79387 -4.02028 -5.20408)
(10.412 -0.388347 0.0764609)
(4.12952 0.120434 -3.65423)
(10.2827 0.0630355 0.14669)
(10.5735 0.282875 0.422019)
(10.1603 0.0782003 -0.0686774)
(9.99127 -0.0917969 -0.0168043)
(10.0053 0.0154632 0.0956807)
(11.3829 0.779858 -0.47518)
(10.0823 0.0844394 0.00515377)
(10.2129 -0.671755 0.221722)
(9.98602 -0.0330555 0.125127)
(9.95656 -0.0125322 0.0138655)
(9.89044 -0.128182 -0.209217)
(10.075 0.0007592 0.0875031)
(9.49785 -0.0942111 0.479012)
(9.91221 0.188298 -0.0442974)
(4.5068 0.0604032 1.25427)
(10.4522 -0.219896 0.123872)
(9.69719 -0.192061 -0.0516666)
(11.545 -0.464543 -0.727996)
(10.8602 0.434626 0.290281)
(10.2478 -0.66764 0.327491)
(10.1003 -0.0095201 0.054881)
(10.5817 0.243894 -0.0809143)
(10.2429 -0.161892 -0.0782067)
(11.809 -0.0833315 -0.193855)
(10.397 0.0164563 -0.115283)
(10.0362 -0.866732 0.306085)
(10.0717 0.198393 -0.0830051)
(10.0319 -0.0104935 -0.00844073)
(11.7202 0.0636328 0.903513)
(10.1698 0.0703358 -0.0862269)
(10.2632 -0.00602606 -0.0358066)
(10.0438 0.0158534 -0.0843119)
(9.97196 -0.846319 0.195256)
(2.97637 -0.318805 -6.11519)
(10.1043 0.088586 0.114358)
(5.71101 0.137883 -10.6747)
(8.91291 -1.00864 -0.396896)
(9.97397 0.0155295 -0.00783095)
(10.6881 0.270833 -1.43224)
(7.36104 -3.54703 -2.2673)
(9.9077 -0.0626363 -0.338052)
(9.92054 -0.0858345 0.13919)
(10.6278 -0.419672 0.175698)
(9.99887 0.0972418 -0.121413)
(10.0225 -0.0188879 -0.037301)
(9.92318 0.270843 -0.0408778)
(11.8463 0.111326 -0.204471)
(1.48525 -1.84797 -1.92361)
(9.91682 -0.0255974 -0.112688)
(7.88462 5.25759 1.38787)
(10.0519 -0.153687 -0.0816989)
(11.8881 0.495844 -3.67277)
(8.98377 4.67759 1.1472)
(10.162 0.00433502 0.0118555)
(10.1472 0.0905424 0.0309024)
(9.28781 -0.823473 -0.350246)
(10.3161 0.192316 -0.16187)
(9.35256 -2.7881 -0.921944)
(2.80913 0.802025 -6.85751)
(9.99807 -0.0256638 0.00437513)
(10.084 0.0431765 0.0182883)
(10.0626 -0.072721 -0.0375453)
(2.58238 0.322873 -10.2281)
(10.0019 -0.0106128 -0.0116689)
(10.0019 -0.00314857 0.0244883)
(9.79953 -0.152603 0.0254918)
(9.99199 -0.0551006 -0.0480171)
(10.0674 -0.0843835 -0.16059)
(10.1307 -0.15153 -0.0101354)
(5.59703 -0.315986 -0.0897835)
(9.96275 -0.0316965 -0.0086856)
(10.0679 0.0179546 -0.0598764)
(10.0226 -0.0177664 0.0751428)
(10.0081 -0.142971 0.040507)
(11.3108 0.606618 -1.17479)
(10.0227 0.0524557 0.00312272)
(9.87766 -0.0604528 -0.00541056)
(10.6777 -0.221494 0.0557324)
(10.0631 0.0061338 -0.0508194)
(10.0552 0.014782 -0.0117134)
(10.7982 -0.221471 0.129928)
(10.1165 -0.111781 0.0418688)
(10.0998 0.0571842 -0.0141028)
(10.1254 -0.133432 -0.000228835)
(9.98772 0.0601715 0.0141996)
(10.5885 -0.296454 0.0525917)
(10.1776 -1.24678 -0.718713)
(10.3399 -0.0174436 0.103374)
(9.96202 -0.00752693 0.114898)
(10.6074 -0.221314 0.050268)
(9.98629 0.244204 -0.111743)
(9.88123 0.146981 -0.032075)
(10.1187 -0.0613854 -0.167268)
(10.7224 0.00970665 0.0860656)
(10.0299 0.192345 -0.00548966)
(10.064 -0.109101 0.00629998)
(10.2915 0.029856 -0.0462592)
(10.789 -0.330187 -0.151793)
(10.4617 0.0510524 -0.0181838)
(10.5779 0.173434 1.02763)
(8.69621 -1.1261 -0.314592)
(10.0803 -0.120406 -0.0282638)
(11.2833 -0.15989 2.13199)
(10.65 0.124503 0.155345)
(9.61146 -0.67956 -0.171225)
(10.5169 -0.0727922 -0.0313313)
(10.3036 0.0010522 0.156955)
(11.2929 -0.413485 2.07819)
(10.049 -0.0551857 0.0610732)
(10.6632 -0.278427 -0.0764567)
(10.8106 0.51567 0.31658)
(11.2206 0.851135 -0.189544)
(10.4933 0.0109858 -0.0435132)
(10.0074 0.0143664 0.145225)
(10.1256 -0.0337374 0.0190848)
(10.0075 0.0245423 0.0293907)
(10.1598 0.087092 0.0159667)
(10.0286 0.153727 -0.00392001)
(11.2172 0.458897 1.79857)
(9.92842 0.070662 -0.0299505)
(11.4704 0.4268 1.6235)
(10.2255 0.0152661 -0.0624472)
(9.89591 0.0251673 0.108091)
(9.87799 -0.072947 -0.0228714)
(9.9555 0.0395839 0.021487)
(11.3762 0.00913186 -0.205665)
(10.3286 0.257042 -0.0204451)
(9.89088 -0.0441079 0.0893576)
(10.2099 -0.0731664 0.0811034)
(9.70596 0.0965905 -0.00986038)
(9.9987 0.0156164 -0.0723593)
(9.91274 0.10097 0.0208824)
(9.90463 -0.144088 0.0929807)
(11.2683 -0.0144057 1.77328)
(10.1734 -0.0322066 -0.0289686)
(9.99244 -0.0841278 -0.00923432)
(9.91374 -0.0554426 0.0322322)
(9.98734 0.0155452 0.0241751)
(9.87101 -0.0931257 0.080708)
(10.2744 -0.0954498 -0.153903)
(10.551 -0.256785 0.138402)
(10.0816 0.0122813 0.0230486)
(10.1567 -0.0924523 -0.263026)
(9.96942 -0.0701932 0.00359095)
(9.94211 0.0962933 -0.0630258)
(10.3593 -0.0318179 -0.0632556)
(11.1971 0.155325 0.595008)
(9.78249 -0.290437 -0.0324333)
(9.91664 -0.0240629 0.0658204)
(11.2613 0.17254 0.477142)
(9.82907 0.0668707 0.148251)
(10.1743 0.166694 -0.0942056)
(9.88258 0.0807821 -0.0495861)
(11.5095 0.533177 1.29592)
(11.0792 0.585008 1.48456)
(10.2104 -0.200101 -0.0457358)
(11.3691 0.273074 1.5688)
(10.36 0.0171968 0.00623525)
(11.4289 0.401531 1.42776)
(7.165 3.15022 2.68418)
(11.0481 0.495006 1.54134)
(5.7987 1.08139 -4.60575)
(5.01892 -5.95868 1.56838)
(10.054 -0.0369541 0.0322314)
(4.84361 -6.22636 0.770531)
(9.84307 0.219955 -0.0687632)
(9.92822 -0.00437654 -0.0886121)
(10.791 -0.130465 0.0773108)
(9.92265 0.205728 0.0619162)
(9.92786 -0.0434062 0.0683617)
(9.70653 0.221916 0.115306)
(10.3443 -0.511242 0.0510678)
(1.35136 1.6089 -2.96259)
(9.29913 0.626063 0.149446)
(10.0046 -0.00276881 -0.00338729)
(9.85724 0.0339303 0.00741335)
(9.92656 -0.0876841 0.1454)
(10.879 0.105619 0.433185)
(11.5607 0.119447 -0.144629)
(10.2286 -0.411663 0.167932)
(10.0115 -0.0537229 -0.0220181)
(11.3309 0.0482733 0.457896)
(9.9444 0.0796038 -0.09364)
(10.1519 -0.0967758 0.0501014)
(10.0059 -0.215815 0.0188167)
(9.95503 -0.110448 0.151029)
(13.2472 3.23759 0.456155)
(8.10105 1.06371 0.823507)
(1.49268 1.00733 -5.67968)
(9.87958 -0.0178096 0.0726233)
(10.0423 0.0372779 -0.0434209)
(9.98875 -0.557828 0.0611041)
(9.96747 -0.393374 -0.0531936)
(1.13098 -0.540776 -5.15991)
(10.065 -0.00892234 -0.000634377)
(10.0812 -0.0308942 -0.010717)
(10.4941 2.5614 1.58574)
(9.98762 0.0383496 -0.17104)
(9.97974 -0.00110831 -0.00718602)
(9.85054 0.127459 -0.0516775)
(9.79858 0.113381 0.0694299)
(13.727 0.778087 0.0572653)
(10.7077 2.2875 1.51582)
(10.1372 0.128314 0.129665)
(10.2494 0.194894 -0.0659392)
(10.0133 0.154337 -0.125333)
(9.99743 -0.0495006 -0.216354)
(10.0737 0.054145 -0.0691334)
(9.99438 0.043242 0.135052)
(10.0025 0.081197 -0.163462)
(9.98107 -0.0292907 -0.0825114)
(10.0288 0.0628499 -0.0808531)
(10.8987 0.0118125 0.322503)
(12.4324 -2.40194 1.40302)
(10.2838 -0.639676 -1.05038)
(9.99625 0.0719525 0.0610121)
(9.96054 0.0237894 -0.0963234)
(9.85343 0.00799057 -0.0175166)
(12.6387 -1.80087 1.54997)
(9.97161 -0.0629401 -0.226651)
(10.0781 -0.0218941 -0.0488198)
(9.9644 -0.104337 -0.0420419)
(10.0388 0.163092 0.00233981)
(9.9938 0.112231 -0.0601587)
(10.0956 -0.0676909 0.0471403)
(9.7753 0.0993846 -0.00627192)
(10.1348 -0.0759046 0.15212)
(9.74378 -0.0815521 -0.0640798)
(10.0001 0.108435 0.0401467)
(9.68545 0.313818 -0.050597)
(10.0036 0.146306 0.0230889)
(9.9274 -0.0124343 0.0997265)
(9.97839 0.14319 0.0047461)
(10.346 -0.47938 0.0363983)
(10.0271 0.180237 0.0173527)
(9.76712 -0.0663797 0.0271333)
(9.9761 0.157062 0.170857)
(11.0922 -0.78414 0.0492779)
(10.1354 -0.0335908 -0.0403445)
(9.43553 0.248497 0.225046)
(9.93395 -0.00415958 0.0432066)
(10.1753 0.138734 0.0289804)
(10.533 0.160293 2.01518)
(10.64 -0.604542 -0.385208)
(10.0419 -0.0780054 0.0560443)
(9.97691 0.0912636 -0.0748453)
(10.2938 -0.156341 0.138017)
(10.1481 0.257057 0.0275983)
(10.0476 -0.0015543 -0.0601759)
(10.0662 0.0541094 0.107146)
(10.0228 -0.0469081 -0.0381535)
(10.1809 0.583763 -0.0725474)
(10.0651 -0.00735928 -0.10322)
(0.00260851 -2.4648 -0.923159)
(10.3569 -0.0989183 0.0590239)
(10.0885 0.71171 0.028861)
(9.99761 -0.0464056 0.00592432)
(10.083 0.625675 0.0189926)
(9.78938 -0.169014 -0.18936)
(10.0085 -0.107619 0.0197023)
(9.97583 0.0144814 -0.0293187)
(9.78284 -0.0564004 -0.0136135)
(10.0025 0.0203526 -0.0389246)
(10.0655 0.703391 -0.0261409)
(10.2739 -0.0247407 0.0391754)
(10.1766 0.0718624 -0.0124004)
(9.9114 -0.0413504 0.0471682)
(10.0895 0.065408 0.0127385)
(10.0193 0.0442712 -0.0525686)
(10.1283 0.183688 0.0421189)
(10.1495 -0.0994925 -0.0903943)
(10.0349 -0.0131446 -0.0721283)
(10.3296 0.813166 -0.172324)
(10.2524 0.975998 -0.198813)
(10.1727 -0.0263463 -0.00318357)
(10.4341 -0.14413 0.16847)
(10.071 -0.0591586 -0.188905)
(10.28 0.750644 -0.156277)
(10.0997 -0.0104674 0.0158285)
(9.96558 0.0013181 -0.0706666)
(11.5908 -0.624459 -0.683202)
(9.90183 0.0205549 0.0579112)
(10.2863 -0.869873 1.76008)
(10.0259 -0.0985132 0.0354284)
(11.0467 -1.6142 -3.83623)
(9.92549 -0.0514493 -0.00652615)
(10.5408 0.0912938 0.0528262)
(9.94773 0.124864 -0.192671)
(9.96405 -0.045074 -0.0722469)
(9.82932 -0.037741 0.0613625)
(10.0869 -0.00735225 -0.0668642)
(10.1234 0.121198 -0.0777947)
(10.2496 0.86651 -0.137427)
(2.61294 -2.0384 1.58854)
(2.31918 -0.428055 -2.0851)
(10.1371 0.101896 0.154824)
(10.1878 1.39421 -0.679485)
(10.5434 0.610364 -0.332002)
(10.6347 0.572402 -0.310691)
(9.99167 -0.0331625 0.0796994)
(9.93799 -0.0140372 0.0699108)
(10.014 0.00540868 -0.0457692)
(9.94968 0.0759995 -0.0345561)
(9.99626 -0.0579869 -0.0121723)
(10.0904 0.0186436 -0.055714)
(10.5863 0.561747 -0.191824)
(9.98599 -0.0658877 -0.0229497)
(9.96055 -0.0272289 -0.11786)
(10.5717 -1.28193 0.555243)
(11.1326 0.50308 -0.0848767)
(10.7992 0.414689 0.0801419)
(7.9925 -1.21458 -4.57491)
(0.107874 5.65901 0.0962746)
(10.1681 -0.190772 0.0273078)
(7.34978 -0.840739 -5.04165)
(0.339879 5.1353 0.362603)
(9.80811 0.0706497 0.0528007)
(-0.0302615 5.72381 0.290714)
(8.87419 -1.88118 1.62974)
(9.97635 0.00834287 -0.0607442)
(10.7751 0.602479 -0.297945)
(10.7425 0.62458 -0.339805)
(10.9701 0.556242 -0.234574)
(-0.851439 5.47321 0.262234)
(10.1464 0.0739245 -0.0432765)
(10.0414 -0.0498479 -0.0448844)
(10.0235 -0.0411007 0.0729035)
(11.0355 0.595862 -0.313284)
(10.9359 0.607785 -0.404986)
(10.0683 0.0499255 0.00456645)
(10.0242 0.0567948 0.0350883)
(9.8884 3.72268 3.1791)
(-0.960606 4.91022 -0.268266)
(12.4695 -0.308631 -2.62008)
(10.0662 0.0392414 -0.0105406)
(8.70689 -0.6444 -2.84921)
(10.2958 0.297773 0.716184)
(10.0863 -0.0938385 0.0528499)
(10.6355 0.281234 0.0562137)
(11.4424 0.34564 0.297734)
(10.6172 0.188393 0.0227728)
(10.1556 0.045165 -0.00870343)
(10.0171 -0.00618495 0.00187437)
(9.97959 0.0321924 -0.0170399)
(10.4102 0.260941 -0.0533209)
(9.98929 -0.00122579 0.00431063)
(9.99079 -0.108707 0.0948883)
(9.98742 0.121287 0.113873)
(9.96578 0.192441 -0.0859964)
(10.7462 0.067847 0.0694165)
(10.0366 -0.068221 0.0116824)
(10.1083 -0.0397621 -0.124169)
(10.1356 0.0494255 -0.0238816)
(10.0316 -0.0146397 -0.0349647)
(9.8769 -0.135763 0.0382494)
(10.3307 0.213178 -0.0822608)
(10.2508 -0.0368356 -0.0898852)
(9.87907 0.0330082 -0.0477001)
(10.6984 0.101381 0.0269429)
(9.42424 4.52626 2.60695)
(9.9684 -0.127751 -0.00100067)
(11.6056 1.58071 -1.05669)
(10.0199 -0.00250842 -0.0971446)
(10.4398 -0.215391 0.0370822)
(9.0976 -0.210445 1.23493)
(9.70938 1.29673 -0.405715)
(10.0195 -0.0163921 -0.0395642)
(9.78768 1.36432 -0.458516)
(10.0983 -0.0267505 -0.236038)
(9.87648 -0.0459478 0.0537596)
(9.94475 1.21494 -0.75178)
(10.0122 0.157929 -0.389076)
(10.2555 -0.177105 0.0121578)
(9.84723 1.07918 -0.473677)
(10.1885 -0.0817308 0.0567587)
(10.4136 -0.0333189 -0.235849)
(8.14067 0.225298 -3.63308)
(10.0254 0.0309644 0.00311717)
(9.64779 1.69968 -0.361902)
(9.90972 -0.118173 -0.038024)
(9.04839 1.90122 -0.757143)
(10.0923 -0.172055 -0.010605)
(9.89391 -0.0761759 0.0153497)
(9.97525 0.112141 -0.0214034)
(10.0679 -0.0187197 -0.00468253)
(10.9764 0.438188 0.66902)
(9.98132 0.0475573 -0.00830685)
(10.0253 -0.000753252 -0.014082)
(10.0112 -0.0094598 0.0466392)
(10.0617 0.0367154 0.0283991)
(10.9161 0.224515 0.128145)
(10.0873 -0.0250918 0.0520803)
(10.0876 0.0101232 0.0486055)
(8.77639 0.256503 -0.331807)
(10.0649 0.00284732 0.00951062)
(9.90934 0.0271988 0.0432009)
(9.93832 -0.0484218 0.0114736)
(9.90866 0.00174687 -0.0839906)
(10.0446 -0.0400748 0.0391388)
(10.0443 0.0170072 0.0573435)
(10.0403 0.0406284 -0.0704336)
(10.1659 1.26728 -0.909738)
(10.097 -0.00911557 -0.010199)
(9.93637 -0.0132721 -0.0677928)
(2.88569 -0.262743 -5.16193)
(9.98013 0.10539 0.00766636)
(10.0648 -0.0270259 -0.0598124)
(9.99445 0.0393274 0.0233016)
(10.0531 0.0134845 -0.00833945)
(12.3402 0.914395 0.161395)
(12.415 0.53193 0.48552)
(9.97914 -0.0331255 0.133424)
(9.82153 -0.0124058 0.0530556)
(10.0791 -0.0473756 -0.148346)
(10.8982 -0.0551221 0.936505)
(9.82473 0.00343252 0.0797208)
(12.3705 1.29639 0.0899014)
(9.94807 -0.146842 0.0435234)
(-0.492887 -2.16771 3.39888)
(8.08484 -0.397585 -0.441737)
(9.7204 -0.636869 2.05831)
(9.9205 0.0815039 -0.125544)
(12.3069 1.16167 0.169619)
(9.98786 -0.00943265 -0.04623)
(10.0516 0.0497938 0.0415617)
(10.1083 0.0470969 -0.0124567)
(10.075 -0.00981351 0.0933031)
(10.0212 -0.0264481 -0.0170277)
(10.0329 -0.0938646 -0.0452009)
(9.30539 -0.034926 0.91202)
(9.96016 -0.00191645 0.0214847)
(10.0123 0.159623 -0.0834066)
(10.0516 0.0296395 -0.0638064)
(12.2981 0.841894 0.165809)
(10.043 -0.0835132 0.0391878)
(10.0627 0.00879936 -0.0250704)
(12.1191 0.961455 0.0495656)
(11.9457 0.244986 0.300999)
(9.9812 0.0917951 -0.0244145)
(10.0088 -0.00209987 -0.0106359)
(-0.38989 1.63478 1.25357)
(9.89079 0.0462828 -0.00866696)
(10.2314 -0.247202 0.0854659)
(10.001 0.0901563 0.0198227)
(10.0101 0.0772394 0.0957247)
(10.0819 -0.0159464 -0.0292577)
(11.6958 0.400898 0.0483718)
(10.7524 0.00120285 1.08938)
(9.51532 0.522713 1.00535)
(10.099 0.0126429 -0.0226963)
(10.0814 0.112894 -0.0640913)
(9.93678 -0.0432626 0.0192181)
(12.4553 -0.170698 1.19705)
(9.39698 0.14546 -0.246659)
(9.95046 -0.0830133 0.0707926)
(-0.310562 1.37752 1.06197)
(10.0793 0.0190944 0.114537)
(10.0774 -0.0221455 0.011658)
(-1.26983 1.50125 1.41845)
(11.7704 1.98653 -0.92393)
(9.8469 0.0971098 0.043192)
(0.106668 1.41723 0.598242)
(-0.073116 1.75276 1.14556)
(10.0087 0.0486102 0.0225342)
(9.93758 0.0686792 0.10062)
(10.0031 -0.0313473 -0.109449)
(9.72374 -0.272201 0.144922)
(10.0742 -0.116353 0.0643177)
(9.83049 -0.0155894 0.0265981)
(12.4807 3.10594 0.900503)
(10.1961 0.219663 0.175916)
(10.1159 0.156468 -0.0364147)
(10.1102 0.0356734 -0.0468072)
(12.2788 -0.0171148 0.306751)
(11.6518 0.729373 0.0416481)
(10.1918 -0.222491 -0.169504)
(10.1822 0.215811 -0.122899)
(-3.86616 -2.44057 -0.36401)
(5.47038 -1.38406 -3.24073)
(10.6604 0.25382 -0.109442)
(9.99562 -0.0233348 0.115686)
(10.1116 -0.152745 0.0707562)
(10.7462 -0.139057 -0.553086)
(10.0146 -0.0165858 -0.177327)
(9.95499 0.115956 -0.172948)
(10.0683 -0.150007 -0.123843)
(10.2143 0.0695788 0.0732509)
(10.0269 0.0327949 -0.0468003)
(10.416 0.229478 0.186287)
(10.17 -0.0549194 0.171209)
(12.3944 0.853818 -0.425121)
(10.1598 1.45966 -0.945613)
(10.5079 0.208485 -0.161609)
(12.4507 1.03778 -0.703181)
(10.5146 0.0116551 -0.141803)
(9.87932 0.0180035 -0.0140901)
(10.5546 0.660998 0.17204)
(10.2511 0.0348465 -0.00884536)
(10.0282 0.125854 0.123461)
(10.1026 0.0310105 -0.0313375)
(10.2731 0.711777 -0.313321)
(7.98286 -0.621893 -1.01673)
(10.0638 -0.0335392 0.0831996)
(10.4983 0.198475 0.077873)
(9.99717 -0.080081 0.093741)
(13.629 -5.12908 -1.44502)
(10.7089 -0.439845 0.772287)
(11.1068 -0.0608274 0.667751)
(6.2057 1.48881 0.469992)
(6.05143 1.49786 0.338918)
(10.0439 0.0112917 -0.023634)
(9.97185 0.208104 0.201179)
(5.16573 1.26854 -0.182519)
(10.0212 -0.0129781 0.0183866)
(9.84406 -1.66604 -3.01958)
(9.30574 0.258357 0.895149)
(9.93549 -0.0186064 -0.125877)
(9.93199 1.59527 1.10024)
(10.0668 -0.0640735 -0.0026816)
(10.0015 0.108273 -0.0185517)
(10.1095 -0.0388301 0.0946682)
(12.6563 0.336953 -0.0425297)
(9.86418 -0.0184855 0.0539287)
(9.96377 -0.118421 -0.0173498)
(10.0365 -0.0272349 -0.0262002)
(10.0363 0.13827 0.0619014)
(10.0038 0.0108169 0.0141481)
(9.98598 -0.00846543 0.0847628)
(10.065 0.0273899 0.0259287)
(9.92238 0.0749108 -0.0289741)
(11.2155 0.455887 0.449533)
(10.1338 2.12765 -3.4883)
(14.2321 2.04113 0.212845)
(10.5847 0.233972 -0.0301195)
(10.0525 1.04432 1.3854)
(10.2044 0.00551558 -0.0668739)
(9.38062 -0.838989 0.238912)
(10.2975 -0.0389722 -0.091219)
(10.0157 0.1029 0.0731555)
(10.099 0.0375463 0.0158884)
(10.0539 -0.0076351 -0.0409562)
(10.032 0.0155012 0.152986)
(9.17922 0.259251 -0.703287)
(11.4215 0.26467 0.208322)
(10.0777 0.00430404 0.0654131)
(10.1928 -0.303717 0.121683)
(11.9383 0.941875 1.56113)
(10.1125 0.0237536 0.0430368)
(6.52507 -3.28742 3.1744)
(12.6506 -0.923859 -2.47046)
(9.87888 -0.0310646 0.0711692)
(9.56122 -0.355114 0.240023)
(10.4614 -0.171711 0.203444)
(10.06 0.0614749 -0.0232437)
(7.16086 -0.989722 2.87013)
(9.96347 -0.047061 0.0126949)
(9.68162 -5.35519 1.18836)
(10.0896 0.205283 0.0195424)
(11.0797 -0.155336 0.828034)
(11.5333 0.483598 0.100718)
(10.056 -0.0112677 -0.0859136)
(9.96505 0.111911 -0.020274)
(10.3712 0.334239 -0.137759)
(8.5814 -0.577213 -1.89241)
(9.76359 -0.0109969 0.0177675)
(9.99072 0.152094 0.150362)
(10.1788 -0.00841175 0.106602)
(11.5926 -0.0195319 0.634126)
(9.98502 -0.0344655 -0.00920109)
(11.6918 0.45213 0.374728)
(10.1991 -0.0113319 0.0668033)
(4.67795 2.95803 1.54824)
(11.4768 0.422679 0.175969)
(10.2025 -0.0146922 0.0850234)
(11.5471 0.427333 0.283824)
(10.0674 -0.00843368 -0.0509236)
(10.1399 0.0249701 0.0477445)
(10.3693 0.231154 0.0368455)
(10.1843 0.0601314 0.00203268)
(11.7218 0.509704 0.239867)
(9.97084 -0.0714502 0.0632835)
(10.0551 -0.309762 -0.00537699)
(11.6 0.47945 0.137095)
(10.0228 0.0228466 0.0736545)
(10.1926 0.011627 -0.0154152)
(9.99829 0.0296013 0.00530923)
(10.0285 0.0167799 0.0228235)
(6.81584 0.243556 -4.57943)
(6.62887 -0.235221 -5.1131)
(10.1495 0.0725461 0.393856)
(8.72932 0.299184 -3.70694)
(10.0055 0.0408112 -0.0253061)
(9.92433 -0.0197982 -0.0195292)
(10.5849 0.434384 -0.236662)
(10.1345 -0.150664 0.145598)
(9.78026 0.0475851 0.440677)
(10.1607 -0.0182032 0.0340083)
(9.97385 -0.0888095 -0.0413791)
(10.0628 0.0283965 -0.0305547)
(9.97103 0.171572 -0.12201)
(5.17613 0.0473052 -5.71282)
(6.17328 -1.27351 -0.13685)
(10.0375 0.0688585 -0.0333324)
(9.96882 0.061056 -0.105867)
(9.86825 -0.104849 -0.00471635)
(10.0582 -0.0728544 0.0414583)
(9.96995 -0.044915 -0.0307532)
(10.1177 0.103061 -0.00609175)
(10.7644 -0.211762 0.149906)
(11.1598 -1.54356 2.2793)
(10.0257 0.0356826 -0.0260063)
(9.95549 -0.151063 0.10539)
(10.1981 0.0514231 0.0675358)
(10.0147 -0.0261463 0.109954)
(9.9066 0.0986801 -0.0187869)
(10.1356 -0.0164084 0.0775341)
(10.3113 -0.0689098 0.0067831)
(10.0418 0.0260725 0.0274634)
(10.0048 -0.0742399 -0.121032)
(10.1666 -0.130193 0.0759172)
(9.21442 -0.792804 -0.911781)
(5.08523 0.552154 -4.1782)
(9.94287 0.0413592 -0.0686675)
(-0.510494 -1.3156 1.18877)
(9.84112 -2.48826 1.29529)
(12.6515 -1.28686 -0.824603)
(-0.241361 -1.44627 0.748147)
(10.0617 0.10512 -0.0299391)
(9.13745 -0.0974435 1.04861)
(10.2787 -0.463164 -2.21759)
(10.9654 -0.997042 0.421878)
(5.62562 0.274221 -3.19011)
(-0.117637 1.40369 2.34197)
(1.37395 0.377772 -2.7734)
(11.047 -0.000582112 0.527936)
(10.4088 0.0095148 -0.00324041)
(11.0476 -0.0351332 1.05065)
(10.144 -0.0516469 0.0617112)
(3.9616 -0.244723 0.254854)
(10.6059 -0.0355181 -0.307324)
(10.4429 0.0206242 -0.0342412)
(9.94016 -0.0465824 0.00962471)
(10.1557 -0.0508076 0.00534377)
(10.9494 -0.034416 0.824184)
(9.63677 0.0764899 -0.103618)
(10.1639 0.113801 0.0452966)
(10.0026 0.0129995 -0.124036)
(-3.06953 0.568965 0.466561)
(8.11397 0.228331 -2.08193)
(10.2186 0.00312039 -0.10835)
(10.0251 -0.0640473 -0.0251907)
(5.194 0.328519 -1.79103)
(5.94697 0.140738 -2.48754)
(10.139 0.536187 -1.94544)
(-1.28432 -2.94073 -1.29742)
(6.18552 0.927953 0.505887)
(4.41038 0.195566 -3.21291)
(4.10516 0.133973 -4.09155)
(10.1037 0.0442447 -0.0259)
(9.94388 0.0484119 -0.0712731)
(9.60609 -0.0632598 0.161649)
(9.90002 -0.0412165 -0.00617387)
(10.3257 0.0233639 -0.103101)
(-0.463356 1.71471 1.4315)
(10.734 -0.081091 -0.231874)
(10.3662 0.0167588 -0.0550833)
(10.3128 -0.0140175 -0.0239343)
(10.0494 -0.0429666 -0.0117949)
(-0.291121 1.60674 1.99103)
(0.0360805 1.6367 2.07543)
(9.85095 -0.0848216 0.0994935)
(10.2704 -0.065634 0.0131094)
(9.94041 0.0228865 0.0621092)
(9.91055 -0.0111596 0.0434394)
(10.3058 -0.0861138 0.00763479)
(9.9923 0.0193395 0.0426674)
(9.70665 0.026434 0.0053141)
(10.0485 -0.0416924 -0.0447342)
(9.96223 -0.00668068 -0.0354653)
(6.79612 -0.532524 -2.63753)
(9.85737 0.0173045 -0.0923948)
(9.99008 0.0276396 0.0295093)
(9.96862 -0.101164 0.118207)
(10.0864 0.101632 -0.000756037)
(10.0738 0.0150205 -0.0323596)
(4.09635 -0.428182 -1.86705)
(12.2928 -1.16715 0.0192188)
(9.964 -0.0114788 0.000617177)
(10.5069 0.417578 -0.177991)
(10.0456 -0.0638104 -0.0588081)
(9.76999 -0.383066 0.236266)
(9.66487 -0.389854 0.350078)
(11.609 -0.00999869 -0.0384215)
(10.0115 -0.104515 0.0531429)
(-1.22174 -0.204865 3.5154)
(11.7942 -0.0826726 -0.0354727)
(10.3278 0.142296 -0.0132973)
(10.5164 0.163256 0.00746211)
(8.05165 0.260828 -2.96215)
(14.3475 1.10306 0.0235203)
(10.0154 -0.107061 0.0150977)
(10.0377 -0.13301 0.0508462)
(12.3133 1.15558 1.63463)
(9.95139 0.0514034 -0.208499)
(10.0648 0.000688731 -0.0373195)
(11.2626 0.257087 0.342191)
(9.98413 -0.122499 0.0367553)
(9.93946 0.0614635 -0.00679496)
(1.8332 -1.22841 -0.895238)
(12.0455 -0.46466 0.449033)
(13.3321 2.23838 0.642608)
(10.036 0.00139081 0.00978495)
(7.68348 0.429823 -2.19166)
(10.0137 -0.193681 -0.0472188)
(11.2263 -0.964987 -0.202927)
(9.58683 -0.330809 0.482934)
(11.6792 -0.0285566 -0.0202608)
(10.2674 0.279589 0.0390148)
(9.43586 -0.317116 0.463723)
(4.43854 1.01611 0.0595409)
(12.4424 1.26579 2.07261)
(11.9108 -0.306728 -0.720282)
(-1.10023 1.75029 2.77851)
(11.5786 0.232496 0.127375)
(10.2897 0.019256 0.109211)
(10.3325 0.0396077 -0.0535683)
(11.4569 0.893705 -0.123559)
(9.95134 0.0175269 0.134637)
(11.8468 -0.0383448 0.125519)
(0.0655178 -0.894998 2.27621)
(9.94399 0.0662322 0.137737)
(12.2028 0.0305676 -0.97383)
(9.85303 -0.0551108 -0.0705626)
(9.87744 -0.0699508 -0.119712)
(11.3967 -1.94583 1.7394)
(10.0744 -0.101568 -0.131964)
(10.0038 -0.0763757 -0.0165965)
(8.62754 -5.63355 0.602417)
(9.58903 0.406546 -0.000878334)
(9.84989 -0.186877 0.157125)
(12.068 -0.783118 0.337383)
(10.1426 1.17752 1.3216)
(10.0711 -0.153888 -0.0495402)
(11.9016 -1.97074 -0.319893)
(5.48007 -0.616791 0.334642)
(10.3413 0.0669763 0.142376)
(9.52186 -0.644597 -0.571717)
(10.0535 -0.0252154 0.0512402)
(10.1303 0.15534 0.0367057)
(10.1687 -0.149789 -0.0494869)
(10.1852 -0.0779213 0.0709968)
(5.24779 1.52311 -2.71925)
(0.587812 -0.564724 1.05601)
(11.4287 0.234138 -0.666469)
(9.68028 -0.960659 -0.0775567)
(11.2099 -2.0146 0.0126448)
(4.26269 5.243 -1.3582)
(1.92457 -0.0374185 -1.60481)
(10.4861 -3.25319 4.3348)
(10.1523 -0.0318678 -0.0514381)
(10.0372 0.107156 0.00433553)
(9.8672 -0.0426669 0.0570038)
(10.052 -0.0993168 -0.0388946)
(7.36162 0.456575 -1.18137)
(9.64517 -0.488691 0.373065)
(9.39037 -0.429296 1.30748)
(9.8763 0.117815 0.135491)
(-1.5532 -0.84592 0.765446)
(11.7853 -0.0348423 0.00564449)
(9.8949 0.26119 -0.011801)
(10.1411 -0.0261833 -0.0941924)
(10.0431 0.0151495 -0.0142568)
(10.1245 0.0218572 -0.218493)
(6.19632 -1.71831 -2.74885)
(10.0223 0.107467 0.0550541)
(7.1607 5.68579 -0.350836)
(10.0465 -0.13107 0.0302978)
(10.024 -0.549968 -2.65721)
(10.0347 0.00516743 0.0187575)
(10.1015 -0.00590641 0.0242066)
(10.147 0.0414583 0.197248)
(10.2545 0.0740367 0.0822937)
(9.90884 0.0176961 -0.0649695)
(12.7261 0.0691862 -0.394514)
(12.1408 0.00148966 0.0266794)
(9.34636 1.08666 2.65574)
(7.60647 3.94491 2.78494)
(9.52582 0.874347 0.650653)
(10.2247 0.433267 -0.0239649)
(11.1071 0.587985 0.200486)
(6.3284 -0.224823 -2.52436)
(10.2779 -0.105067 0.0431606)
(10.3557 0.0458468 0.00801464)
(10.0798 -0.398171 0.0909343)
(11.5137 0.0552215 -0.0426426)
(9.83559 0.238167 5.04938)
(8.10272 -0.343544 0.947471)
(10.2336 -0.243498 0.152772)
(10.0081 0.107838 0.023716)
(9.57491 0.837997 -0.171214)
(10.105 -0.0341931 0.000878824)
(10.0578 0.105389 -0.000931119)
(14.6201 -1.74329 1.5279)
(11.8028 -0.626618 0.681391)
(0.181701 3.80867 -0.123533)
(10.2018 -0.62189 0.285224)
(11.551 -0.817644 -0.138447)
(10.3025 -0.921832 -0.912444)
(13.2364 0.116332 -2.1908)
(10.0342 -0.116297 0.163979)
(-0.429579 -0.837016 -1.89625)
(10.0819 0.00352288 -0.140333)
(10.0052 0.0707279 -0.100019)
(10.7809 -0.181091 0.805697)
(11.261 0.289992 5.26375)
(10.154 -0.0917198 0.0726523)
(10.0323 0.387512 -0.325687)
(10.1175 -0.0902855 0.0179464)
(10.7209 -0.830127 0.637984)
(10.9147 0.0207973 1.03253)
(10.0643 0.00965695 -0.0511405)
(10.7828 -0.385727 -2.66799)
(10.0867 -0.887002 -3.03373)
(12.7469 0.0439602 0.236187)
(10.1815 0.36332 -0.133022)
(9.67967 0.0566909 0.244282)
(3.22456 0.660315 -3.11644)
(1.13166 -0.289504 3.80152)
(5.57379 3.06621 1.07818)
(12.6514 -0.780753 -2.33799)
(6.04125 -0.344448 -0.108046)
(9.96682 -0.0301133 -0.160619)
(9.96268 0.0175025 -0.0417805)
(8.71768 1.41512 3.04025)
(10.0519 -0.165464 0.152938)
(4.66484 -0.553602 0.350621)
(10.0246 -0.117438 -0.217607)
(10.0017 -0.0557985 -0.201377)
(-3.14074 2.71521 -0.449737)
(9.7324 -0.989134 0.94235)
(10.7773 -0.154254 0.177444)
(10.0935 -0.113746 0.0404108)
(9.60648 0.0901119 0.0425061)
(8.26501 0.284657 -2.44518)
(10.0065 0.0803986 0.191479)
(10.0231 0.0214885 0.0410075)
(10.2705 0.492887 1.00802)
(11.9501 -0.690933 -2.46837)
(10.282 0.255999 0.131757)
(9.849 0.170082 -0.0480007)
(9.83587 -0.168199 0.0327124)
(9.91458 0.0639933 -0.140924)
(9.83018 -0.0704466 -0.0607033)
(11.5605 -0.703774 -1.59132)
(11.3512 -0.0615361 -0.130376)
(8.53942 0.015984 0.295711)
(9.84387 -0.775368 0.586854)
(9.72805 -0.102154 -0.0499936)
(10.0041 -0.168803 -0.0414206)
(9.81813 -0.0312259 0.09372)
(9.86766 -0.0705646 0.0407346)
(10.3782 0.758122 0.355914)
(11.6388 -0.993351 -0.269233)
(13.3591 -0.191096 2.68345)
(11.2173 -0.113636 0.378586)
(11.5227 -0.557679 -1.13477)
(10.097 -0.156507 -0.528402)
(-0.104855 -4.8772 -2.35501)