/*--------------------------------*- C++ -*----------------------------------*\
| =========                 |                                                 |
| \\      /  F ield         | OpenFOAM: The Open Source CFD Toolbox           |
|  \\    /   O peration     | Version:  2506                                  |
|   \\  /    A nd           | Website:  www.openfoam.com                      |
|    \\/     M anipulation  |                                                 |
\*---------------------------------------------------------------------------*/
FoamFile
{
    version     2.0;
    format      ascii;
    arch        "LSB;label=32;scalar=64";
    class       volVectorField;
    location    "0.0380695";
    object      U;
}
// * * * * * * * * * * * * * * * * * * * * * * * * * * * * * * * * * * * * * //

dimensions      [0 1 -1 0 0 0 0];

internalField   nonuniform List<vector> 
3919
(
(10.0587 -0.047533 0.00551261)
(10.1295 -0.0250385 0.00952426)
(10.111 -0.0199471 -0.00292948)
(10.0771 -0.0112977 -0.00866546)
(10.054 -0.0325883 0.0137376)
(10.0681 -0.0424804 0.0201263)
(9.98864 0.0747625 0.00671186)
(10.0667 -0.00678751 0.0478993)
(9.97836 0.0615718 -0.0120523)
(9.98765 0.0408285 0.022667)
(10.011 0.0297152 0.0267129)
(10.0521 -0.00138594 -0.0442901)
(9.99485 -0.0109989 -0.0202092)
(9.96024 -0.0257917 -0.0396131)
(9.96113 0.00542197 -0.0290248)
(9.97467 -0.0346273 -0.0588976)
(10.0351 -0.00391915 -0.0370547)
(10.032 0.00525789 0.0189505)
(10.0952 -0.0120572 0.0265349)
(10.0097 -0.00946595 0.0297905)
(9.99447 0.0189089 0.0624655)
(9.99944 -0.00206746 0.0151193)
(10.0587 0.0500323 -0.00334175)
(10.0377 -0.0039468 -0.0488474)
(10.0122 0.00630498 -0.0121504)
(9.95871 -0.0171049 -0.0143925)
(9.95536 0.0809242 -0.0420161)
(10.0334 -0.0119562 0.0551766)
(9.94367 0.00185053 0.0339697)
(10.0379 -0.000453513 -0.0281501)
(10.0014 0.0375155 0.0229317)
(10.0286 0.0148253 0.0411688)
(10.0515 -0.0326958 0.0267656)
(10.02 0.0243093 0.0257659)
(9.96354 0.0109659 0.017887)
(10.0117 -0.0635334 -0.010474)
(9.93304 -0.01636 -0.0622271)
(10.0143 -0.0264044 0.0315086)
(9.95727 0.00020961 0.0229364)
(9.97789 -0.0139981 -0.0380029)
(10.0187 -0.0527035 0.0301272)
(10.0231 0.0127594 0.0254081)
(10.0602 -0.00721835 0.00988713)
(9.95464 -0.0218613 0.00186864)
(9.95378 0.0218949 0.00399809)
(9.93405 0.0137501 -0.0122196)
(9.89666 -0.00431386 0.0339019)
(9.928 0.0085821 0.0402711)
(10.013 0.00331292 -0.0235704)
(10.0105 -0.0164158 0.0184264)
(10.0062 0.00670364 -0.0282017)
(9.91068 0.0189661 -0.0158488)
(10.0033 0.0348461 0.0238018)
(9.98654 0.000488525 -0.0384228)
(9.97113 -0.0504129 0.008937)
(9.94077 -0.0190821 0.0427199)
(9.87899 -0.0331235 -0.0251828)
(9.82661 -0.00901871 -0.0255469)
(9.95407 0.0292047 -0.0195051)
(9.95726 -0.0110611 -0.00518354)
(9.91389 0.0159674 -0.0396189)
(9.99946 -0.0239404 -0.0493441)
(9.94022 -0.0109267 -0.0230306)
(10.0047 -0.0569816 0.00837879)
(9.93344 0.0343857 0.0269745)
(10.0358 -0.0728143 0.0019832)
(10.1102 0.0143755 0.0878279)
(9.99823 -0.0548952 -0.00980479)
(10.0392 -0.0849594 0.00825238)
(9.91391 -0.00499039 -0.0107297)
(10.0595 -0.0811589 -0.0168905)
(10.0063 -0.0286938 -0.0422323)
(9.99728 -0.0276203 -0.0377157)
(9.91434 0.0457299 -0.0223783)
(9.83557 0.055747 -0.0165701)
(9.94318 0.00910783 0.00623096)
(10.0078 0.00064336 -0.0871966)
(10.0415 0.0325403 -0.0272917)
(10.0405 -0.0235813 -0.0196038)
(10.0184 -0.023117 -0.0417907)
(9.9848 0.0231282 0.0175671)
(9.964 0.0231086 0.0496801)
(10.07 -0.023641 -0.0111425)
(9.98987 -0.0394618 -0.00702138)
(10.0323 0.00330529 0.00705433)
(9.92906 0.0101161 -0.0474107)
(10.0974 -0.0339394 0.027309)
(9.9922 0.0367813 -0.0277104)
(9.99711 -0.0233998 -0.012567)
(9.98269 -0.00134948 -0.037844)
(9.97999 0.0149484 -0.030706)
(9.86819 4.98471e-05 0.00472461)
(9.89885 -0.00182593 -0.0103526)
(10.1298 -0.0490794 -0.012515)
(9.98861 0.0372096 0.0102834)
(10.0007 -0.00244466 0.0146511)
(10.0241 0.0194743 0.0280001)
(9.96497 -0.0398622 -0.00823651)
(9.92025 0.0237405 0.0103168)
(9.98135 0.00899892 0.0167551)
(9.99366 -0.0283901 -0.0129823)
(9.99807 -0.0205399 0.0117829)
(9.94623 0.00463379 -0.0352129)
(10.0156 -0.0279267 -0.0367193)
(9.82545 -0.00604541 0.0143781)
(10.0774 0.00637941 0.00969743)
(9.99972 0.0105226 -0.0743796)
(9.98282 0.00120737 0.0123911)
(9.99973 -0.0304049 -0.0104458)
(9.9876 -0.0120822 0.00254162)
(9.96022 0.0163888 -0.00244081)
(9.9669 -0.0650461 0.0211483)
(9.98284 0.00167478 0.0321575)
(10.0468 0.00501197 0.00497914)
(10.0293 0.0663884 -0.00724444)
(9.98444 0.0385321 -0.0265757)
(10.0183 -0.0666956 -0.00180817)
(9.97136 1.71118e-05 -0.0048576)
(9.98835 0.00540912 0.0348773)
(9.94073 -0.00611748 0.00998687)
(10.0381 -0.0299011 -0.0212957)
(10.0344 -0.0165226 0.012639)
(9.9776 0.0383287 -0.0419214)
(9.97067 -0.012699 -0.00611304)
(10.0206 0.0178344 -0.0282608)
(9.98454 -0.0535375 -0.0209949)
(9.98249 0.0283206 -0.0119071)
(9.97487 0.0118602 -0.0245998)
(9.97847 0.00721317 -0.0425075)
(9.97253 0.0187605 -0.012213)
(10.0536 -0.00958968 0.0152195)
(10.1302 -0.0155326 0.00712268)
(10.0922 -0.0102213 -0.00345219)
(9.96944 -0.0197461 0.0652728)
(10.0156 -0.0812424 -0.0543342)
(10.1279 -0.0316997 0.0199869)
(10.0088 -0.00977197 0.00471902)
(10.0382 -0.000364599 0.0205906)
(10.0232 0.0504067 0.00541062)
(9.95144 -0.0597178 -0.0319597)
(10.0527 0.00116752 0.000671237)
(10.0598 0.00844841 -0.0385629)
(10.0421 0.0160491 -0.0425835)
(10.0299 -0.0115506 -0.0239985)
(10.0876 0.0080132 -0.0181198)
(9.99934 0.0114312 0.00640183)
(9.94798 0.0396247 0.00856451)
(9.97684 -0.0422364 0.00594673)
(10.0447 -0.0170982 0.0390992)
(10.0359 0.028658 0.0129455)
(10.0199 0.0157537 0.0196628)
(10.0227 -0.00792244 -0.00105113)
(10.0179 0.0386736 -0.0321765)
(9.94537 0.029276 0.0388396)
(10.0612 0.042773 0.0323126)
(10.0531 -0.00837669 0.0152231)
(9.98723 0.0340179 -0.0128286)
(9.95228 -0.0153696 0.0123223)
(10.0053 0.00558584 0.0366034)
(10.0204 0.0201837 0.0123841)
(10.0531 -0.0225149 -0.0353151)
(9.93283 0.0249096 0.00706913)
(9.97997 0.0853805 -0.0140071)
(10.0793 0.00753129 -0.000313993)
(9.95374 0.00442625 0.0118188)
(9.90955 0.0226857 -0.047484)
(9.9052 0.0345539 -0.0485354)
(9.99889 -0.0255715 -0.0777352)
(9.9937 -0.0033335 -0.0204106)
(10.0456 -0.044666 0.000373321)
(10.0569 -0.00628513 -0.0100316)
(10.0395 -0.0903716 0.00439783)
(10.007 0.0293458 0.0107925)
(10.0145 -0.0142211 0.00376667)
(9.93534 -0.00900351 -0.0634228)
(10.0201 0.0221559 0.0030934)
(10.0515 -0.0232656 0.00258463)
(10.0094 -0.0318531 0.0604304)
(10.0275 0.0358954 -0.026738)
(9.99195 0.0046729 -0.026285)
(10.0276 -0.00857844 -0.01129)
(9.92002 0.0394533 0.00196594)
(10.0415 -0.0129895 -0.0322048)
(9.96981 -0.00263885 0.0143957)
(10.103 0.012161 0.0165179)
(10.0088 -0.0227674 -0.0313576)
(9.9608 -0.0521433 0.0270429)
(10.0092 0.00148364 0.0447701)
(10.0095 0.00256362 -0.000963788)
(10.0037 -0.00274476 0.00115492)
(10.0317 0.0132097 0.00565309)
(10.0159 0.00288824 0.00913696)
(9.97773 -0.00802102 0.00135327)
(10.0232 0.00754669 0.00694266)
(9.9628 -0.0291148 0.0518758)
(9.95299 0.0767239 -0.0368343)
(9.97713 -0.0165921 0.0340404)
(9.92284 -0.0475088 -0.0149849)
(9.93506 0.0176708 -0.0179211)
(9.98679 -0.012692 0.017112)
(10.0565 0.000271797 -0.0242237)
(9.96663 -0.0148388 0.0401593)
(10.0063 0.00562288 0.0312438)
(9.95868 -0.0253005 0.0360516)
(9.97531 -0.00441251 -0.0478025)
(10.0283 -0.0550704 -0.0342819)
(9.97511 -0.0452928 0.00671741)
(9.97495 -0.000263997 -0.0427207)
(10.0381 -0.0168768 0.00186542)
(9.99007 0.0474636 -0.0149346)
(9.76963 -0.0109696 -0.0050006)
(9.97964 -0.0542669 0.036813)
(10.0711 -0.00230692 0.0448307)
(10.0035 -0.0188347 -0.0225369)
(9.93977 0.056004 0.0505731)
(9.95522 0.00571907 -0.0135103)
(9.99349 0.0206658 -0.00595534)
(10.0496 0.0219256 -0.0500741)
(9.95263 -0.0124035 0.00836159)
(9.97823 0.00348932 -0.0166824)
(9.97544 0.0366971 0.0469433)
(10.0409 -0.0799804 -0.00767932)
(9.92488 0.0474386 -0.0222956)
(9.95333 0.014032 -0.0294905)
(10.0217 -0.0301874 -0.0302759)
(10.068 -0.00225018 -0.0172933)
(9.98865 -0.0173309 0.00245173)
(10.0343 -0.0388186 -0.00697326)
(10.0399 -0.0354404 -0.00759551)
(10.0686 0.0134555 -0.0323596)
(10.0217 -0.0428961 -0.00820752)
(9.93948 -0.00586768 -0.030888)
(10.0273 -0.00636772 -0.0118762)
(9.91547 0.0228684 -0.0181777)
(10.0075 -0.0414124 -0.00229275)
(10.0136 -0.0428357 0.00640854)
(10.0065 -0.0375562 0.0278213)
(10.0171 -0.0673049 0.0023365)
(9.99009 0.0183533 0.0349404)
(9.96585 -0.0239825 0.00883876)
(9.88502 -0.0106298 -0.130025)
(9.91168 -0.0503719 0.0106443)
(9.95192 -0.0182772 0.0445567)
(9.90528 -0.0236312 -0.0853178)
(9.90378 -0.0148449 -0.106355)
(9.99888 0.016263 0.0335364)
(9.97239 -0.0128236 -0.0215214)
(9.93047 -0.0215643 -0.0240365)
(9.88404 -0.0500884 -0.000130991)
(9.92506 -0.00845325 -0.0073192)
(9.94108 0.0276845 -0.00208952)
(9.78384 0.0664975 -0.00818723)
(9.83979 0.0698227 -0.00876689)
(9.94103 0.0420607 -0.00113335)
(9.92513 -0.00245143 0.0408794)
(9.95827 -0.0149094 0.0120127)
(10.0299 0.0193835 -0.0795025)
(10.0393 0.0219887 -0.059166)
(10.0188 -0.016789 -0.0445167)
(9.80441 -0.0089606 0.0044728)
(10.0048 0.00914687 -0.0179869)
(9.98062 0.00356338 -0.0107388)
(9.80888 0.000314176 -0.00616254)
(9.79415 0.00172781 0.00135081)
(10.0116 -0.00513633 -0.0244442)
(10.0169 0.0190267 -0.0130792)
(9.99371 -0.0128756 -0.0200532)
(9.97985 0.0206007 -0.00511184)
(10.043 -0.0061181 -0.0148836)
(10.0765 0.00319047 -0.00757338)
(10.0511 -0.068101 -0.00628106)
(9.95057 -0.00906642 -0.0245063)
(9.95817 -0.0176388 0.00331203)
(10.041 0.034851 -0.00442754)
(9.84336 -0.00387894 -0.00797633)
(9.90275 0.0238328 -0.00851893)
(10.002 0.000551708 -0.00963533)
(10.0365 -0.0048752 -0.0142221)
(9.88756 0.0455989 -0.0119473)
(9.85134 0.00798911 0.023061)
(10.0257 0.0111774 0.000383956)
(10.072 -0.0221434 -0.0152934)
(9.84451 0.040448 0.00992148)
(9.99759 -0.0434082 0.0333888)
(9.95591 -0.0417236 0.0140146)
(9.98405 0.0115478 0.0323355)
(9.98384 0.0170724 -0.0398811)
(9.88901 -0.0146961 -0.0200799)
(9.89789 -0.0200157 -0.0334621)
(9.9314 0.00853814 -0.0185)
(10.0369 0.00892368 -0.024407)
(10.0126 -0.0127448 0.00627159)
(9.98242 -0.0259034 0.0253399)
(10.1178 0.0269232 0.0482306)
(10.0321 -0.0157244 0.0173065)
(9.98826 0.0492963 0.0076691)
(10.0209 -0.0251255 -0.0379717)
(10.0418 0.0518336 0.0102634)
(10.0395 -0.0612831 0.00857473)
(9.8911 0.0216608 0.0109968)
(9.97346 -0.0114561 -0.00818674)
(9.99513 -0.0236144 -0.0027714)
(10.0569 -0.00843043 0.0331646)
(10.0097 0.0273727 0.0206725)
(10.0564 0.00892256 0.0291974)
(10.0145 -0.0212768 0.00550663)
(9.97714 0.00912315 0.00393428)
(10.0672 0.00994632 -0.0261349)
(10.0156 -0.015332 -0.0194677)
(10.0314 -0.0335124 -0.00820671)
(10.0175 -0.0537109 -0.00876972)
(9.99773 -0.00472631 -0.00944918)
(10.0088 -0.00962214 0.00364084)
(9.94956 -0.0148536 -0.00404266)
(9.9739 -0.0102364 0.0344691)
(9.99416 -0.0395506 0.0150717)
(9.99689 0.0748971 -0.0113521)
(9.96407 0.0173231 -0.00834409)
(9.97823 -0.0083713 -0.0164316)
(9.98904 -0.00852023 0.0319294)
(9.9471 0.000920536 -0.0196609)
(10.0187 -0.0250188 0.0461203)
(10.0156 0.0489689 -0.00765691)
(10.0751 0.0236604 0.006017)
(10.0288 0.00498294 -0.0628699)
(10.0057 -0.0189842 -0.034353)
(10.0248 0.000418951 0.0188366)
(10.0062 0.00194758 -0.0682458)
(9.91937 0.00461984 -0.00416909)
(10.0654 -0.0320791 -0.0365311)
(10.1264 -0.00603727 0.0206864)
(9.97018 -0.00550534 -0.0292735)
(10.0158 0.00711335 -0.00682009)
(9.95687 0.0653062 0.0185825)
(10.0334 -0.0359123 0.0238126)
(9.98621 0.0348442 0.0291571)
(9.88536 0.00255583 -0.00197374)
(9.98263 0.0136561 -0.0136652)
(9.98871 -0.0287035 0.0292222)
(9.99965 -0.00928233 0.0567288)
(9.98975 -0.0380767 -0.0209136)
(10.0002 -0.0273712 0.0105687)
(9.99418 -0.0171053 0.0417004)
(9.93719 -0.0125678 0.00754399)
(9.91995 0.0242151 0.0177104)
(9.9432 0.022995 -0.00106211)
(9.90834 0.00699255 -0.00674858)
(9.99475 -0.0553922 0.0081865)
(9.93484 0.0134921 -0.0033462)
(9.96059 -0.000816311 0.0145926)
(9.97218 -0.0068677 -0.0311459)
(10.0163 -0.023141 0.0297282)
(10.0456 0.0351364 -0.0162147)
(10.0236 -0.0105531 0.084448)
(10.0243 -0.00858082 -0.00612958)
(10.0362 0.0177893 0.000499837)
(10.0262 0.00659538 0.0339198)
(9.93048 -0.0176919 0.00920868)
(9.91827 -0.00994562 -0.0202151)
(9.97999 0.0339988 -0.0264864)
(10.0737 0.0315153 0.0291638)
(9.91925 -0.0437894 0.045401)
(10.0255 0.0274923 -0.0208346)
(10.0111 -0.0295162 -0.000968615)
(9.99441 0.0444324 0.0541391)
(10.0269 -0.0571622 0.00629929)
(10.0949 -0.0387986 0.0046684)
(9.97723 -0.0210892 0.00344545)
(10.0252 0.015369 -0.000454582)
(10.0193 -0.0235074 -0.0071668)
(9.94267 0.0187546 0.0568891)
(10.0346 0.00522807 -0.000465391)
(9.92894 -0.0257159 0.0393692)
(10.0227 0.105499 -0.0337773)
(9.97773 -0.00767765 -0.0151115)
(10.0537 -0.0149925 -0.0213121)
(9.97669 -0.0294744 0.00396778)
(10.0484 0.0056314 0.011284)
(10.0067 -0.0214732 -0.0297083)
(10.0756 0.034707 -0.023457)
(9.97351 -0.0351748 0.0191702)
(9.98823 0.0430076 0.00920956)
(9.95975 0.0148745 0.000323939)
(9.97879 -0.00818474 0.0458126)
(9.98678 0.0293393 -0.0249348)
(10.0398 -0.0168191 -0.00677135)
(9.99743 0.031692 -0.0297438)
(10.0046 0.0272818 -0.0326322)
(10.0362 -0.015034 0.0468293)
(10.0297 -0.0168736 0.0383031)
(10.0145 -0.00130625 0.0379133)
(10.0123 -0.00531309 0.0211336)
(10.0254 -0.0211159 0.0262292)
(9.86879 0.00343428 0.0285198)
(9.87617 -0.0286658 0.0515135)
(9.90028 -0.0153094 0.0581417)
(9.85755 -0.0640686 0.0205306)
(9.8525 -0.0308495 0.0250851)
(9.80792 -0.0566997 0.0118059)
(9.92907 0.0419884 -0.0385698)
(10.0506 -0.00633915 0.0589284)
(9.82525 -0.0240154 -0.0130606)
(9.97387 0.0989251 -0.00732685)
(10.112 -0.0535739 0.0222156)
(10.0248 0.0255864 -0.0476301)
(10.0257 0.0541365 -0.00122357)
(10.0967 0.0863117 0.0406909)
(9.90125 -0.00312714 -0.0128175)
(9.9098 0.0146862 -0.000889377)
(9.87464 0.0392083 -0.00194091)
(10.0215 0.0251393 0.000971912)
(10.0047 0.00985768 0.0163269)
(9.95822 -0.00687891 -0.0036316)
(10.0204 -0.0115867 -0.013925)
(9.93422 -0.0474131 -0.00821982)
(9.87746 0.0434821 -0.0521872)
(9.90942 0.0110929 -0.0236123)
(10.0119 -0.044518 -0.0164436)
(9.85321 0.024828 -0.0615952)
(10.0318 -0.0772488 -0.00918299)
(10.0274 0.000957584 -0.00891653)
(9.90794 -0.0033439 0.00578019)
(9.99397 0.00980201 0.00560123)
(9.94993 0.0268211 -0.0225188)
(9.96952 0.0376622 -0.00864673)
(10.0026 -0.020604 -0.0150652)
(10.0961 -0.0614598 0.00496882)
(10.0806 -0.0203275 0.115678)
(9.90518 -0.0254574 -0.0310254)
(9.97879 0.0124773 -0.00286857)
(10.0135 0.0132062 -0.0361329)
(10.0142 0.0334145 -0.0187841)
(10.0525 0.00130357 -0.016351)
(10.0334 -0.0276866 0.00685871)
(10.0577 0.00811634 -0.0206863)
(10.0308 -0.015599 -0.0111259)
(9.99559 0.00864993 0.0459201)
(9.91696 0.0189057 0.033168)
(9.94052 0.00299138 0.00667981)
(9.86124 -0.00244282 -0.107441)
(9.87606 0.0129557 -0.0725886)
(9.9732 0.0201012 0.00566196)
(9.93353 -0.00130276 0.035594)
(9.94462 -0.0144133 0.0335218)
(9.90432 0.0100489 0.0378089)
(9.95586 -0.0799139 -0.000321868)
(9.93402 -0.0439509 -0.0052904)
(9.97256 -0.011902 -0.0207755)
(9.96126 -0.000777231 0.0170894)
(9.96608 -0.00882551 0.000131799)
(10.0342 0.0132338 -0.00169638)
(9.92486 0.0229375 -0.00512441)
(10.0103 -0.000133689 0.0181083)
(10.0251 -0.0238546 -0.0329135)
(9.98931 -0.00166086 -0.0015104)
(9.93197 -0.0110559 0.00217634)
(10.0045 0.0212635 -0.00884527)
(9.9991 0.0248039 -0.00083227)
(9.94173 -0.0413474 0.0189195)
(9.8989 -0.0172435 0.00430933)
(10.0046 -0.0269011 -0.02673)
(9.96784 -0.046511 -0.0129045)
(10.0011 -0.0248973 -0.0111952)
(9.97496 0.0109034 0.0513294)
(9.9073 -0.037382 -0.0556336)
(9.99341 -0.0277144 -0.0723593)
(10.0774 -0.0228236 0.0386288)
(10.0111 0.0412804 -0.0374252)
(9.99949 0.0361816 -0.0359897)
(9.96728 0.0601615 -0.0167413)
(9.95972 -0.00187425 -0.0313584)
(10.0263 -0.0207093 0.036002)
(10.0026 -0.0313802 0.00789273)
(9.9308 0.0504143 0.00254473)
(10.0134 -0.0250942 0.0362118)
(9.91208 -0.00554692 -0.0120124)
(10.0508 0.0118831 -0.01081)
(9.9617 0.038306 -0.0073328)
(9.93315 0.0103915 0.0200359)
(10.0342 0.0197758 0.0361234)
(9.94491 -0.0204326 -0.0355976)
(10.0204 0.075951 -0.0143886)
(9.93 -0.0103943 -0.0435176)
(9.9757 -0.0217906 0.0181852)
(9.85855 -0.00543506 -0.0418378)
(9.90317 0.0203066 -0.103821)
(10.0368 -0.015968 -0.0420792)
(9.90539 0.0258556 -0.0182339)
(9.96926 0.0154155 0.0143262)
(10.0867 -0.0375945 -0.0172723)
(10.0411 0.0179394 0.0341034)
(10.1132 -0.0518376 -0.0116822)
(10.0207 -0.0138629 -0.0349484)
(10.0283 -0.0164436 -0.0199446)
(10.0121 -0.0148884 0.00536688)
(10.0358 -0.0118453 0.00312153)
(10.0115 -0.0357156 -0.00064655)
(9.9737 -0.0228065 0.00989959)
(10.0133 -0.00505103 0.0162875)
(10.0086 -0.00738316 0.0134468)
(10.0159 -0.00769316 0.0174777)
(10.0372 0.00328868 0.0112634)
(10.0371 -0.0028548 0.00729114)
(9.9325 0.02607 0.00281783)
(9.98946 0.0375256 0.000203533)
(10.0002 -0.0183071 -0.0225308)
(10.0066 -0.0232126 0.0175942)
(9.97002 -0.035533 0.0256355)
(9.96714 -0.0378589 -0.018336)
(10.0059 -0.0188426 -0.0252849)
(9.98837 -0.00692563 0.0384565)
(9.99215 -0.0354092 0.0259093)
(9.99926 -0.0267364 0.00193173)
(9.9938 -0.00500409 0.0315604)
(10.0142 -0.0188323 0.0249256)
(10.018 0.00875384 -0.0260822)
(10.0107 0.0276716 -0.00083966)
(10.0096 0.0272051 -0.0195091)
(9.84811 0.0335472 -0.0151303)
(9.91815 0.0190056 -0.019931)
(9.98118 0.0116583 -0.029761)
(10.0036 0.0434916 -0.0349838)
(9.84041 0.0234554 -0.0120323)
(10.0512 -0.0301973 -0.019459)
(9.96545 0.0104859 -0.0208349)
(10.0227 0.0180926 -0.0165072)
(9.97602 0.0312008 -0.0136955)
(9.83824 -0.00945313 0.0281034)
(9.87155 0.0296956 0.000823573)
(9.85612 -0.0191016 -0.00931272)
(9.76427 -0.0135901 -0.00483037)
(9.7939 -0.015739 0.00469275)
(9.79959 -0.00993603 0.00128424)
(9.99953 0.0370302 -0.0189759)
(10.0967 0.00967317 0.0702868)
(10.0085 -0.00881174 0.0223227)
(10.0077 0.0234811 -0.0587742)
(10.0124 -0.00794122 -0.0190331)
(9.89996 0.00449806 -0.0332868)
(9.93782 -0.00156987 -0.0463681)
(9.8837 0.00843756 -0.0254116)
(10.0047 0.00439316 -0.0215388)
(9.90748 0.0166853 0.00106965)
(9.96934 0.0189671 0.00301092)
(9.95058 0.0334542 0.026956)
(9.987 -0.00262114 0.00280474)
(9.94351 0.0117741 0.00418325)
(9.91666 0.022509 0.00767723)
(9.94743 -0.0117316 0.0330405)
(9.96436 -0.0373026 0.0579954)
(10.0179 0.0133531 0.0175525)
(9.94215 -0.0372546 0.0565908)
(10.0428 0.00734843 0.0238404)
(9.95 -0.00941419 0.0216733)
(9.93781 -0.0127498 -0.0674272)
(9.84641 -0.014916 0.0220433)
(9.89751 0.0654585 0.029495)
(9.97237 -0.0370244 -0.024769)
(9.97109 -0.0318846 -0.0273143)
(9.96826 0.0362406 -0.0069263)
(9.94837 0.0315818 -0.0165409)
(9.9438 0.00908972 0.000305531)
(10.0025 -0.0243811 -0.00119758)
(10.0104 -0.0383174 0.00320684)
(9.96129 0.0169104 -0.0164729)
(10.0221 0.00727558 -0.0407976)
(10.0614 0.0617447 -0.00861606)
(10.0077 -0.00359868 0.00447457)
(9.94333 0.0202089 0.0137191)
(9.94937 -0.0783837 -0.00380975)
(10.0414 -0.0114162 0.0140277)
(9.99666 -0.00569524 0.0672355)
(10.0229 0.0109264 0.0240953)
(9.98722 -0.00684644 -0.0362328)
(9.74092 -0.00243567 0.0181535)
(9.91394 -0.0561626 -0.0188116)
(9.99338 -0.0271913 -0.0348786)
(10.0015 -0.0167965 -0.0259822)
(9.99142 0.0127977 -0.040439)
(9.89144 0.0122466 -0.016701)
(9.98748 -0.00845406 0.00538318)
(9.94003 -0.0163286 -0.0293079)
(9.88954 0.0351046 -0.0316714)
(9.99239 -0.0453978 -0.043371)
(9.96543 -0.0311929 0.0383912)
(10.0573 -0.0283309 -0.0230108)
(9.984 -0.0346259 0.0177561)
(10.0122 -0.0135119 -0.00335042)
(9.91936 0.0223182 -0.00062254)
(9.93063 -0.00208142 -0.0215259)
(9.972 0.0392141 -0.0174032)
(9.99451 0.0490054 -0.0204268)
(9.99384 0.0141305 -0.0625424)
(9.98096 -0.0429034 0.0125052)
(9.99027 0.00618303 -0.0409311)
(9.85447 -0.00675032 -0.0193395)
(9.85794 0.00854896 -0.0153756)
(9.84489 -0.000167759 -0.00664827)
(9.94951 0.037863 0.0355383)
(9.93429 0.00453117 -0.0160918)
(10.0193 0.0486715 -0.0507237)
(9.91012 0.00406149 0.00701268)
(10.0132 -0.0188149 -0.0035432)
(9.95637 -0.0134119 -0.0681463)
(9.97854 0.0386245 -0.000757579)
(10.0209 0.0246105 -0.00641153)
(9.98765 -0.0255498 0.0229341)
(9.92584 0.0581895 0.023748)
(9.88561 -0.0164238 -0.0416333)
(9.97747 -0.000258974 -0.0271774)
(9.98686 0.0188742 -0.0421301)
(9.94509 -0.00444737 0.0300709)
(10.0316 -0.00325319 -0.0104971)
(10.0728 -0.0762081 0.00203307)
(10.0617 -0.0152898 -0.0230828)
(10.0001 0.00631746 0.00933003)
(10.0269 -0.0288863 0.0254434)
(9.97717 -0.0490754 -0.00290712)
(10.0612 0.0355462 -0.0129212)
(9.97408 -0.0175711 0.0296856)
(9.92311 -0.0156056 0.00823303)
(9.9883 -0.040079 0.0451591)
(10.001 0.00772556 0.0358142)
(10.0535 0.00303818 0.0358409)
(9.96395 0.0782314 -0.0315096)
(10.0303 0.0184613 0.00654915)
(10.0082 0.00430798 0.0599384)
(9.99841 0.0164781 -0.0442644)
(10.0352 -0.000176877 -0.0172854)
(9.94715 0.022314 0.0195555)
(10.1142 0.0516975 0.0502476)
(10.0901 0.0690732 0.0457705)
(9.92071 -0.00942897 -0.010341)
(10.0228 0.000800451 0.0102697)
(10.0325 -0.0305746 0.0217218)
(9.98412 -0.0299541 -0.0655502)
(9.85381 0.0703139 -0.00557254)
(9.98331 0.0170698 0.00539504)
(10.0166 0.0214339 0.0246649)
(9.96382 -0.0208193 0.0150903)
(10.004 -0.00634165 0.0272635)
(9.99126 -0.0456271 0.0189611)
(9.97668 -0.032315 0.0093064)
(10.0626 -0.0676937 0.0142544)
(10.0107 -0.0375737 -0.0396998)
(10 -0.0181236 -0.00505092)
(10.0123 -0.0320805 0.0196711)
(9.99837 0.000348915 0.0169639)
(9.93607 -0.0141406 -0.0384574)
(10.1482 -0.0418018 0.0112748)
(9.93639 -0.0315401 0.0544005)
(9.98916 -0.0414502 -0.00656652)
(9.99731 -0.0205591 0.00753605)
(10.0247 0.0195189 0.0189954)
(10.0181 -0.0479678 0.033093)
(10.0489 -0.01343 -0.0155872)
(10.0353 0.0451697 0.0260423)
(9.9963 -0.0127265 0.0350972)
(10.0205 0.0520893 -0.032542)
(9.9184 -0.0204614 0.0231323)
(9.98065 0.0123888 -0.0422212)
(9.97169 0.00240977 0.00175757)
(9.98049 -0.0329015 0.028663)
(9.95268 0.0444147 0.0240622)
(9.9539 -0.0111525 -0.0700123)
(10.0031 0.0011819 0.038145)
(10.0436 -0.0523294 -0.0173984)
(9.95609 0.0471781 -0.0420936)
(9.98358 0.00752411 0.016216)
(10.0079 -0.0174741 0.002902)
(9.98704 0.0310111 -0.0229482)
(9.98792 -0.026872 -0.021367)
(9.9791 0.0312084 0.0778698)
(9.98884 0.00954903 0.0344026)
(10.0085 0.0132749 -0.0380601)
(10.0285 0.0291595 -0.00210731)
(10.0309 0.0346428 0.0153628)
(10.0105 -0.0399089 0.00412683)
(9.98453 -0.0711657 0.0228135)
(10.0364 0.0228596 0.00367548)
(9.92582 -0.0259027 -0.0123349)
(9.99472 0.0307933 0.0468802)
(9.95414 0.0190885 -0.00667829)
(9.92894 0.0104797 0.03232)
(10.0446 0.0303176 -0.041604)
(10.0331 0.0381195 -0.0132718)
(9.94894 -0.0386248 -0.0507631)
(10.0583 0.0823763 0.0308152)
(9.96217 0.0254227 0.0248594)
(10.0769 0.0245447 0.0443006)
(9.956 0.0400614 0.00150919)
(10.0622 0.0311185 0.0187156)
(9.95472 -0.00774561 0.0148233)
(9.96472 0.0214636 0.00253542)
(9.94139 -0.0252623 0.00721244)
(10.0055 -0.020313 -0.0328562)
(10.1288 -0.0428279 0.0148174)
(9.98078 0.0420439 0.0201586)
(10.0013 -0.0528403 -0.0294353)
(10.025 -0.0145165 -0.0129041)
(9.96207 0.000597458 0.0289881)
(10.0172 -0.000862921 -0.0167054)
(9.96573 -0.0698425 -0.00166785)
(10.0269 -0.0275103 0.0189151)
(10.0061 -0.0230693 0.00781638)
(10.0141 0.0595187 0.0110602)
(9.93687 0.0159476 -0.047625)
(9.98062 0.0251489 -0.0035682)
(9.97476 -0.0338133 -0.00300053)
(9.94471 0.0158152 0.0283709)
(9.95994 0.0320827 0.0444962)
(10.0379 0.00900646 -0.037065)
(9.99292 -0.10492 -0.0147235)
(10.0069 0.0144048 -0.0135053)
(9.98366 0.00913499 0.00159259)
(10.0338 -0.000751789 -0.0387112)
(9.99012 0.0177596 -0.0354519)
(10.0221 0.00292514 -0.00765705)
(9.9362 -0.0159197 0.0228661)
(9.99454 -0.00833496 0.0159507)
(9.94481 -0.00919192 -0.031887)
(10.0011 0.0102013 0.000216492)
(9.98058 0.0247145 -0.0142745)
(10.0205 -0.0444856 -0.0313578)
(10.0244 0.0182647 -0.0364323)
(10.0102 -0.054051 -0.0245628)
(10.002 0.00684073 -0.0405659)
(10.0137 0.0396434 -0.0330185)
(10.0303 0.000316462 -0.0231854)
(9.90059 0.0145071 0.0235074)
(9.90267 -0.0872711 0.00772715)
(9.99536 0.0353576 0.0226207)
(9.97546 -0.0117991 -0.0271521)
(9.99827 -0.0600693 0.0563431)
(10.0531 -0.0162349 0.0227675)
(10.0016 -0.00821886 -0.0121415)
(10.0449 0.0385797 0.0291933)
(9.96127 -0.0268878 0.00271148)
(10.0169 -0.00243915 -0.00420163)
(9.8624 0.0567366 -0.0246015)
(10.0143 -0.0262849 0.0629386)
(9.99376 0.0295202 0.00309351)
(9.98597 -0.0172898 -0.0303626)
(10.0596 0.00834763 -0.0336815)
(9.98959 0.0441397 -0.000557447)
(9.94555 0.0272906 -0.0189669)
(9.92844 0.036967 0.0193321)
(9.94404 -0.0072371 0.0294042)
(10.0232 0.0331991 0.00431226)
(10.0435 -0.0314055 0.0369339)
(10.0543 -0.0120256 0.0111547)
(9.98378 0.018234 -0.0554831)
(9.93834 -0.0446899 0.0433013)
(10.0308 0.0201019 0.0289841)
(10.0262 0.0232381 -0.0204456)
(10.0448 -0.0766727 0.0217266)
(9.95261 -0.0164833 -0.0287024)
(9.99019 -0.00262155 -0.0113986)
(10.0755 -0.00970368 -0.0132363)
(9.99236 -0.00213729 -0.00751402)
(9.93803 -0.0244932 0.0379981)
(10.1091 -0.029257 0.0296748)
(9.94308 0.00058541 0.00285671)
(10.0126 0.0429016 0.0165573)
(9.99955 -0.0259908 -0.0331805)
(9.87064 0.00337893 -0.0103714)
(9.99352 -0.0408919 0.0378822)
(9.99449 0.00768331 -0.0466477)
(9.97172 0.00987222 -0.00677605)
(9.9912 0.00749753 -0.00941459)
(10.0773 -0.0181672 -0.020344)
(10.0084 0.0181816 0.026317)
(10.044 -0.00418803 0.0117278)
(9.95774 0.0495711 0.0672626)
(9.93019 0.0780272 0.0291965)
(9.96008 0.0237836 -0.0285101)
(9.9914 -0.041596 0.0116034)
(10.0151 -0.0100666 -0.0164561)
(10.0034 -0.0598297 -0.0252858)
(9.97843 -0.0356403 0.017899)
(9.99639 -0.038067 0.0160844)
(10.034 0.0210942 -0.0298347)
(10.0466 0.0410058 0.0207492)
(10.0245 0.0147943 0.00755676)
(10.0279 0.0235912 0.041916)
(9.96816 0.00459763 0.00406654)
(9.9301 -0.0555744 0.00152497)
(9.98733 -0.0657139 0.0224128)
(10.0054 -0.0405965 0.0176147)
(9.93166 -0.0276881 -0.0715579)
(9.9906 -0.0280385 0.0237408)
(10.0253 0.0096851 0.0155245)
(9.95383 -0.0315632 -0.0155242)
(10.0354 -0.014048 -0.0207845)
(10.0436 0.0031027 -0.0469337)
(9.95953 -0.0588609 0.0520737)
(10.0026 -0.00449221 0.0188703)
(10.0021 0.0189119 -0.00127)
(9.98856 -0.00948953 -0.0122666)
(10.0636 0.00918585 -0.0327223)
(10.0276 0.00022577 -0.0173436)
(10.0159 -0.0406634 0.0146237)
(10.067 0.0122014 0.0224981)
(10.0204 0.0171624 0.0050773)
(10.0294 0.0218892 -0.00483709)
(9.93295 0.0252243 -0.104725)
(10.0108 0.0108806 -0.00717478)
(9.99124 0.019829 -0.00667633)
(9.97294 -0.0182044 -0.0224637)
(10.0243 0.00977131 0.00833879)
(10.0314 0.020416 -0.0222897)
(10.0378 0.000479824 0.016026)
(9.94529 0.0221313 0.0124211)
(9.97313 0.0159794 -0.0059102)
(10.0099 0.0285161 -0.0255031)
(9.97175 0.047941 0.00354175)
(9.95347 -0.0262513 0.0760569)
(9.96321 -0.00462811 0.0198162)
(9.96309 0.0410801 -0.00196228)
(9.96818 -0.0410279 0.0421293)
(9.96812 -0.0352462 0.00988241)
(10.0019 -0.00212355 0.0384143)
(9.99711 0.0451195 -0.00175953)
(9.95349 -0.0364734 0.0154675)
(9.92734 -0.0154898 0.0153231)
(10.0228 0.014821 0.0177861)
(10.0128 0.0227702 0.0167791)
(10.0288 -0.00795681 -0.00135662)
(9.98997 -0.00913375 0.0199017)
(9.97204 0.04663 -0.0435393)
(10.0528 -0.00868632 0.00712053)
(9.98245 0.0460538 -0.0114844)
(9.97872 -0.0373206 -0.0078624)
(10.0003 -0.065465 -0.00703853)
(9.94201 0.0598532 0.00507755)
(9.98365 -0.088804 0.00114388)
(10.0161 -0.0365316 0.0381586)
(10.0461 0.0158009 0.00216406)
(10.0026 0.0508743 0.00896929)
(9.92531 -0.00835909 -0.010654)
(10.0298 0.0110326 -0.00731131)
(9.96325 0.0268921 0.0347555)
(10.0323 0.0283874 0.0149848)
(9.97263 -0.0178485 -0.033956)
(9.83487 0.0176984 0.00777239)
(9.96627 0.0473846 -0.0199153)
(10.0011 -0.00876844 0.0255608)
(10.0197 -0.0137197 -0.0479853)
(10.0261 0.0380214 -0.0173725)
(9.99736 0.00268224 0.00401533)
(10.0391 -0.00362363 0.0133384)
(10.033 0.0277404 -0.0320406)
(10.0363 0.013846 0.00763257)
(10.055 -0.0113003 -0.0392644)
(10.004 0.00493084 -0.0124967)
(10.0992 -0.0117734 0.0379652)
(10.0985 0.0115957 0.0195448)
(9.94208 -0.0506222 -0.0127118)
(9.97478 -0.0222247 -0.0115428)
(10.0112 0.0538909 -0.0076142)
(9.98875 0.0543973 -0.0191105)
(9.9965 -0.011713 -0.0244144)
(10.0187 0.011174 -0.0180284)
(9.95698 -0.0453096 -0.0361397)
(10.0423 -0.0444118 -0.00917126)
(9.92447 0.00351006 0.0490303)
(10.0439 0.00797728 0.0334059)
(9.95369 0.0623013 0.00870572)
(9.93266 -0.00392016 0.0281146)
(9.94349 0.0131089 0.011019)
(9.96046 0.0288786 0.0327784)
(9.99914 0.0196967 0.0406886)
(10.1184 0.00315755 0.0484353)
(9.95137 0.0012681 -0.013562)
(10.002 -0.0153022 0.075725)
(9.99716 0.0411021 -0.0254299)
(9.96113 0.00720204 -0.00523107)
(10.0203 0.0245932 -0.0327852)
(10.0275 -0.0337153 0.0259026)
(10.0039 -0.00977855 -0.0240684)
(10.0004 -0.0144442 -0.0103482)
(9.90533 0.0121888 -0.0300182)
(9.98548 0.00614977 -0.00459113)
(9.97236 0.0456351 0.0577418)
(9.91507 -0.0149613 0.0705265)
(9.96611 0.0366002 0.0327561)
(10.002 0.0283454 -0.0109248)
(9.98109 -0.049167 -0.0169166)
(10.0078 0.0496144 0.0118687)
(9.83083 -0.0427798 0.0313398)
(10.0102 0.0368747 0.0109378)
(10.0264 0.0319397 0.0307308)
(10.0247 -0.042302 0.0254175)
(10.0453 0.0435572 0.019194)
(9.97415 0.0292967 0.00854614)
(9.95507 -0.0366621 0.0669854)
(10.0231 -0.0337937 -0.00068385)
(9.95786 0.0304043 0.007143)
(10.0433 0.00856591 -0.0186499)
(10.0631 0.0068083 0.0163908)
(9.98144 -0.025813 -0.00141773)
(9.8867 -0.00409437 0.0354219)
(10.0097 -0.00373795 0.00142733)
(9.98899 -0.0497619 -0.00575488)
(9.97412 0.00169385 0.0113739)
(9.98518 -0.0220675 0.0320557)
(10.0295 0.0154859 0.00494934)
(9.98876 -0.00871998 0.0149744)
(9.98543 -0.025909 -0.0213587)
(10.0103 -0.000468925 -0.0202023)
(9.97847 -0.0203174 -0.00509545)
(10.0671 -0.061752 0.0111423)
(9.98965 0.00131186 0.0712632)
(10.1042 -0.0460274 0.00749294)
(10.0908 0.0404732 0.00104222)
(9.95871 -0.0130344 -0.00539647)
(9.98804 -0.00391977 0.0579626)
(10.0485 0.00176928 -0.00342604)
(9.97221 0.0600775 -0.0201056)
(10.0555 0.00555953 0.0211479)
(9.95891 0.00192777 0.0065294)
(10.0206 -0.0363524 0.0456675)
(10.0637 0.0091491 -0.102876)
(9.98851 -0.000313937 0.0079427)
(10.0206 -0.011383 -0.0233536)
(10.0086 0.0034592 -0.0352947)
(10.0815 -0.00372863 0.0250393)
(10.0084 -0.0249777 -0.00570714)
(9.97685 -0.0151398 -0.0291446)