/*--------------------------------*- C++ -*----------------------------------*\
| =========                 |                                                 |
| \\      /  F ield         | OpenFOAM: The Open Source CFD Toolbox           |
|  \\    /   O peration     | Version:  2506                                  |
|   \\  /    A nd           | Website:  www.openfoam.com                      |
|    \\/     M anipulation  |                                                 |
\*---------------------------------------------------------------------------*/
FoamFile
{
    version     2.0;
    format      ascii;
    arch        "LSB;label=32;scalar=64";
    class       volScalarField;
    location    "0.0626374";
    object      nut;
}
// * * * * * * * * * * * * * * * * * * * * * * * * * * * * * * * * * * * * * //

dimensions      [0 2 -1 0 0 0 0];

internalField   nonuniform List<scalar> 
47425
(
0.00511555
0.00497851
0.00436031
0.00197237
0.00327846
0.00448374
0.00449183
0.00320209
0.00742777
0.0021627
0.00242831
0.00738116
0.00506461
0.00394783
0.00321221
0.00375305
0.00452222
0.00248187
0.000256453
0.0027925
0.00378578
0.00683458
0.00307872
0.00498371
0.00671631
0.00686875
0.00386689
0.000495303
0.00426043
0.00548677
0.00724291
0.00712953
0.00745916
0.00444477
0.00545366
0.00476386
0.00691178
0.00537816
0.00472173
0.00426009
0.00503247
0.004487
0.0049424
0.00260976
0.000886286
0.00334018
0.00344842
0.00451907
0.00389366
0.00640217
0.000648018
0.00268281
0.00605465
0.00107428
0.00326194
0.00295492
0.00681306
0.00519681
0.00244907
0.00508217
0.000897502
0.000727915
0.00100253
0.00303295
0.0073849
0.00686108
0.00555512
0.00419145
0.00107967
0.00525453
0.0039337
0.00570241
0.00620685
0.00345662
0.00140776
0.00746319
0.00104473
0.00383507
0.000218579
0.00197831
0.00138373
0.00483118
0.00723526
0.00742903
0.00634458
0.00387879
0.00555723
0.00573873
0.00430236
0.00146931
0.00703399
0.00444137
0.00715603
0.00322215
0.00258846
0.00187669
0.00634781
0.0057073
0.00352767
0.00453579
0.00556771
0.000961656
0.00598429
0.000985981
0.00613368
0.00702125
0.0062662
0.00341693
0.00635659
0.00702871
0.0034154
0.00519534
0.00595123
0.00226471
0.00737293
0.000345488
0.00739149
0.000744078
0.00431276
0.00530756
0.00403517
0.00747141
0.00590574
0.0026203
0.00360657
0.0068258
0.00379491
0.0074179
0.00334878
0.00719151
0.00698152
0.0034278
0.00102465
0.00290563
0.00477618
0.00466196
0.00659912
0.00657545
0.00450324
0.00319181
0.00499025
0.00248367
0.00469885
0.00515196
0.00634342
0.00742414
0.00389069
0.00542382
0.002399
0.00499682
0.00520447
0.000544671
0.00738987
0.00042227
0.00301496
0.00384838
0.00291172
0.000304873
0.00382239
0.00456749
0.00749003
0.00696764
0.00603746
0.00672616
0.00120243
0.000441042
0.00743355
0.00140124
0.00316761
0.000787647
0.0014509
0.00409195
0.00479076
0.00337746
0.00484531
0.00126435
0.000394796
0.00424647
0.00572951
0.00695868
0.000321133
0.00624792
0.00495522
0.00663998
0.00650607
0.00695949
0.00547193
0.00111062
0.00235914
0.00534991
0.00746955
0.00421512
0.00515201
0.00474282
0.00658416
0.00739968
0.00582735
0.00448225
0.00751007
0.0035327
0.00506647
0.00296587
0.00611735
0.00735977
0.00243179
0.00236816
0.00558442
0.00731394
0.00401622
0.00747105
0.00479852
0.0046347
0.00745923
0.00334905
0.00482826
0.00482767
0.0039976
0.00177225
0.00339763
0.00380796
0.0018967
0.00239791
0.0046389
0.00314853
0.00238583
0.00162367
0.00658964
0.00248529
0.00725819
0.00405294
0.00423982
0.00437995
0.00332547
0.00748889
0.00223079
0.00347764
0.00174454
0.00298516
0.00196347
0.00202455
0.00403696
0.00497058
0.00713257
0.00304175
0.00690401
0.0073316
0.00451438
0.00590005
0.00699708
0.00398994
0.00719999
0.00231012
0.00464847
0.00742026
0.00345344
0.00709816
0.00670907
0.0030259
0.00326145
0.00739659
0.00304597
0.0074598
0.0039995
0.0026771
0.00522369
0.0039039
0.00691091
0.00460079
0.00482327
0.00397993
0.00398599
0.00218772
0.00180894
0.00625898
0.00228758
0.00208654
0.00228636
0.000548477
0.00185781
0.000610461
0.000904557
0.00515853
0.000826643
0.00295951
0.00396516
0.00358777
0.00338796
0.00354308
0.00401761
0.00749796
0.000769029
0.00507606
0.00737543
0.00535116
0.00457642
0.00333206
0.00292592
0.00659284
0.0048613
0.00496753
0.00381654
0.00688785
0.00382456
0.00505031
0.0010615
0.000830146
0.00056011
0.00714228
0.00623202
0.00709395
0.00321976
0.000828783
0.00372321
0.00283845
0.00177777
0.00466215
0.00329946
0.00303581
0.00341724
0.00151275
0.00186178
0.00699287
0.00513324
0.00634715
0.0041452
0.00692465
0.00401673
0.0048263
0.00576185
0.0042404
0.00363036
0.000961813
0.00399775
0.00412158
0.00297234
0.00710839
0.000855007
0.00634148
0.00659305
0.00580063
0.00686734
0.00681687
0.00672435
0.00589833
0.00587798
0.00602528
0.00511463
0.00661389
0.00371805
0.00405729
0.00673535
0.00682455
0.00513616
0.0065537
0.00659216
0.00261592
0.00402185
0.00724744
0.0064327
0.00385731
0.0019636
0.00563543
0.00417681
0.00339865
0.00634533
0.00663318
0.00280509
0.00743425
0.00486561
0.00706955
0.00278189
0.00114471
0.00391249
0.00727156
0.00192608
0.00722955
0.0043193
0.00384504
0.00502325
0.00686992
0.00563157
0.00709703
0.0070773
0.00481478
0.00404058
0.00439933
0.00385692
0.00589445
0.00717412
0.00387497
0.00642901
0.00624104
0.00407
0.00539176
0.00470442
0.00651082
0.00518255
0.00360254
0.0033253
0.00618364
0.000936363
0.00667341
0.00214845
0.00473514
0.00346881
0.00344756
0.00646023
0.00240326
0.00650216
0.00355935
0.00683053
0.00112476
0.00102742
0.00704466
0.00270763
0.0038765
0.00361352
0.00387629
0.00422056
0.00379983
0.00401563
0.00482329
0.0067154
0.00308362
0.00449521
0.0062045
0.00351637
0.00393805
0.00602657
0.000901699
0.000401983
0.00667992
0.000488295
0.000505425
0.00397324
0.000477877
0.000883943
0.00638891
0.00384819
0.00409179
0.00390137
0.000996747
0.00380633
0.00607351
0.00622352
0.0041826
0.0041672
0.0040134
0.00381827
0.00101393
0.000739458
0.00124366
0.00543757
0.0010048
0.00382596
0.00531666
0.00716372
0.00516845
0.00722515
0.0042293
0.00478997
0.00284693
0.00450753
0.00748961
0.00390728
0.00514958
0.00433091
0.00729109
0.00487278
0.00463505
0.00523097
0.00562936
0.003394
0.00279399
0.00504472
0.00416268
0.00723349
0.00125107
0.00278014
0.0020429
0.00744304
0.00258824
0.00333431
0.0029629
0.0070596
0.00399244
0.00740273
0.00486634
0.00291463
0.00328521
0.00355544
0.00324759
0.00550023
0.00228704
0.000877293
0.00641839
0.00159898
0.00559329
0.00163072
0.00622988
0.0058849
0.00694419
0.00447865
0.00533406
0.00297325
0.00503113
0.00650413
0.0070826
0.00641923
0.00438067
0.00265265
0.00369685
0.0071235
0.00561555
0.00513545
0.00522848
0.00523378
0.00481446
0.00437699
0.00256302
0.00472289
0.00372038
0.000678463
0.00515401
0.00448186
0.00627824
0.0074118
0.00175715
0.00209551
0.00442691
0.00616455
0.00427774
0.00418497
0.00683687
0.00205825
0.00747829
0.00354864
0.00238757
0.00274881
0.00521547
0.00285383
0.00727268
0.00427521
0.0043281
0.00602122
0.00697017
0.0057721
0.000915492
0.00487153
0.00244632
0.00669136
0.00184861
0.00643904
0.00517276
0.00212302
0.00241487
0.00452534
0.00667801
0.000716855
0.00549652
0.00533391
0.00541211
0.00624354
0.0068897
0.00229401
0.00293267
0.00611078
0.00538332
0.0047226
0.0069726
0.0020238
0.00705126
0.00509309
0.00044657
0.00439359
0.00707843
0.000887757
0.0013161
0.00705876
0.000321551
0.000336682
0.00425934
0.00744588
0.00575821
0.00697947
0.00426571
0.00385668
0.00131861
0.00701535
0.00271361
0.00611488
0.00207022
0.00227912
0.00433134
0.00478305
0.00152577
0.00747634
0.00596845
0.00345028
0.00336386
0.00254829
0.00298962
0.00300212
0.00668372
0.00336603
0.00285124
0.00300873
0.00532654
0.00292586
0.00338918
0.00646972
0.00251386
0.00365702
0.00398914
0.00271439
0.00336611
0.00445116
0.00492974
0.00622578
0.00169753
0.00507758
0.00656279
0.00653963
0.000302944
0.00393649
0.00512737
0.00053446
0.000829125
0.00708858
0.00465271
0.000161713
0.00206739
0.000787551
0.00267649
0.00315409
0.000727604
0.0051179
0.00625736
0.00590975
0.00300155
0.00335452
0.0033283
0.006478
0.00313339
0.0045556
0.00382604
0.00624322
0.00428872
0.00386988
0.00171214
0.00100559
0.00279426
0.00294731
0.00401667
0.00610912
0.00342308
0.00741646
0.00605412
0.00567856
0.00526738
0.00599222
0.00193341
0.00469486
0.00642119
0.0018756
0.00194004
0.000970868
0.00119111
0.00392617
0.00727412
0.0048272
0.00696045
0.00116866
0.00444273
0.00122186
0.00420171
0.00404512
0.00512499
0.00470013
0.00554136
0.0034219
0.00194101
0.00353178
0.00524877
0.00189317
0.00431707
0.00748588
0.00419973
0.00398219
0.00178263
0.00504939
0.00185015
0.00340038
0.00747322
0.00696926
0.00249812
0.0040847
0.00364913
0.00743259
0.00507724
0.00412197
0.00443002
0.00411405
0.00392363
0.00477561
0.000897321
0.00061552
0.00432773
0.000805499
0.00453655
0.00288528
0.00338001
0.00628599
0.00411474
0.00480907
0.00410251
0.00403197
0.00682386
0.000577047
0.00271792
0.00335467
0.00506994
0.00650627
0.00375256
0.0053922
0.00240557
0.00741
0.00185331
0.00403808
0.00682963
0.00414557
0.00655252
0.00530116
0.0044525
0.0060608
0.00354707
0.00718464
0.00662564
0.00380033
0.00103638
0.00722683
0.000717382
0.00239849
0.00214298
0.000714935
0.00419493
0.00412901
0.00214819
0.00377873
0.000807082
0.000819591
0.000929863
0.00323193
0.00491823
0.00379331
0.00292204
0.000875191
0.00247971
0.00365852
0.00564217
0.00438
0.00423977
0.00308799
0.00572985
0.00419477
0.00131838
0.00198838
0.00555595
0.00246468
0.00108548
0.000697874
0.00357077
0.000570601
0.00197555
0.000664442
0.000849507
0.00450004
0.00301669
0.00697103
0.00651522
0.00478861
0.000732719
0.00126225
0.00474076
0.00480655
0.00705466
0.000873607
0.000777104
0.00711163
0.00225574
0.0036403
0.00710707
0.00220814
0.00712801
0.00707214
0.00427645
0.00478082
0.00158548
0.0063603
0.00708094
0.00502909
0.00519241
0.00517382
0.0010329
0.00185016
0.00696162
0.00127825
0.0062149
0.00657895
0.00654676
0.00177422
0.00450853
0.00198429
0.00261971
0.00563356
0.00713559
0.00127356
0.000658001
0.00446178
0.00387138
0.00194587
0.00530965
0.00561054
0.0029886
0.00275085
0.00294507
0.00608028
0.00241054
0.00108489
0.0074237
0.00110346
0.00536233
0.00393495
0.00686423
0.00200714
0.00269332
0.00702645
0.00385561
0.00127526
0.00328909
0.00202392
0.00464592
0.00546198
0.00460329
0.00351303
0.00449533
0.00307911
0.000692121
0.00463661
0.0025768
0.00178517
0.00176988
0.0010862
0.00172686
0.00410823
0.000548128
0.00688864
0.0064785
0.00413815
0.00271467
0.00381577
0.00143148
0.00133966
0.00319374
0.00478165
0.00448337
0.00317079
0.00355296
0.00389553
0.00893278
0.00135712
0.00396489
0.00411514
0.00262696
0.00197124
0.00575256
0.00055342
0.00390342
0.00537212
0.00386732
0.00395404
0.00714707
0.00673007
0.00338816
0.0038633
0.000723515
0.00274367
0.00477878
0.00364942
0.00560246
0.00350387
0.000779607
0.00462408
0.0020928
0.00561046
0.0018344
0.00286743
0.00376016
0.00546109
0.00529041
0.00357869
0.00203907
0.00388892
0.00164293
0.000746169
0.00523874
0.00693916
0.00499648
0.00106085
0.00527633
0.00272885
0.00699204
0.00168196
0.00177151
0.00396201
0.00304637
0.00434282
0.00705739
0.00514755
0.00315338
0.0011413
0.00223682
0.00118945
0.00676357
0.00226823
0.0025385
0.00293717
0.00355609
0.00500496
0.00168544
0.00164378
0.00375762
0.000939733
0.00355438
0.00355741
0.00426875
0.00488179
0.00375026
0.00478598
0.00123914
0.00406158
0.00383974
0.00444393
0.00601043
0.000799715
0.00242219
0.000711331
0.00155954
0.0010061
0.00208312
0.00387301
0.0012927
0.0034831
0.00127032
0.00200033
0.00204561
0.0013394
0.00301817
0.00521802
0.00425877
0.00746856
0.00145968
0.00368323
0.00342944
0.00436
0.00135227
0.00581811
0.00427963
0.0059236
0.00746037
0.00292754
0.00184046
0.00297593
0.00316675
0.00536018
0.00233123
0.00656505
0.00315974
0.0030891
0.00688061
0.00237121
0.0022921
0.00425194
0.00208235
0.00386156
0.00328049
0.00205666
0.00292549
0.00310311
0.00022423
0.000662612
0.00166737
0.000745845
0.00331014
0.00331562
0.000623573
0.000931008
0.0050982
0.00104141
0.00332602
0.00416938
0.000543517
0.00262133
0.00698498
0.00318247
0.00149998
0.00607945
0.000696625
0.000344378
0.00224205
0.000837119
0.00223826
0.000955791
0.000846396
0.00544796
0.00448625
0.00276854
0.00192628
0.00366961
0.00732454
0.00210613
0.000700342
0.00472482
0.00168996
0.00428421
0.00201976
0.00625048
0.00590942
0.00224111
0.00220566
0.00418053
0.00178549
0.0050899
0.00143084
0.0070846
0.00583588
0.003845
0.0020859
0.00490036
0.00719623
0.000781426
0.00181589
0.00168727
0.00370463
0.00257593
0.00217119
0.00119298
0.00402441
0.00117086
0.00279561
0.00510365
0.0031665
0.00232628
0.000843402
0.00204125
0.00179236
0.00588112
0.0050278
0.00201408
0.00401649
0.00274534
0.00500518
0.00740451
0.00633382
0.00395965
0.00288313
0.00082755
0.00404815
0.000500391
0.00387343
0.00437504
0.00296711
0.0052277
0.00372539
0.00405797
0.00450449
0.00194155
0.00570148
0.00146811
0.00700456
0.000372587
0.00133649
0.00138396
0.00198268
0.0041234
0.00536069
0.003448
0.0053033
0.000646539
0.000771159
0.00338841
0.00224723
0.000992489
0.000946258
0.00232695
0.00116953
0.000567119
0.00356101
0.0051477
0.000533621
0.00382527
0.00458575
0.00425507
0.00108277
0.000597645
0.0039272
0.0037991
0.00132907
0.00259173
0.00125054
0.000770959
0.00326122
0.00110267
0.00119971
0.00335642
0.00460729
0.00110675
0.00602366
0.00151212
0.000236363
0.00718363
0.00438239
0.0038188
0.00539337
0.00300719
0.00306244
0.00735162
0.002973
0.00414185
0.000841473
0.00161469
0.00457804
0.00141227
0.00517407
0.00039363
0.00684102
0.00358602
0.00233941
0.00545336
0.00100577
0.00391758
0.00305959
0.00237092
0.00324719
0.00395349
0.00517541
0.00211655
0.000704188
0.0060111
0.00142982
0.000730579
0.00233783
0.00366032
0.00103143
0.001737
0.00478125
0.00546009
0.00105485
0.00176953
0.00225789
0.000828184
0.00258599
0.000949591
0.00331545
0.0028166
0.00216345
0.00100166
0.00534677
0.00580883
0.00214126
0.00428468
0.00255693
0.0038879
0.00113529
0.00520319
0.00371557
0.00575598
0.00140168
0.00560421
0.000608822
0.002213
0.00556766
0.0073978
0.00191436
0.00167869
0.000903098
0.0019411
0.00214448
0.00113115
0.000881513
0.00403999
0.000933898
0.00500903
0.00288681
0.000430864
0.00153366
0.00308877
0.00330802
0.00561315
0.00152017
0.000621167
0.00164061
0.00267092
0.0063926
0.00712318
0.00186033
0.00439452
0.00379486
0.00627809
0.00106425
0.00298319
0.00162848
0.00415919
0.00159744
0.00404228
0.00347973
0.00113344
0.00184738
0.00239582
0.00266368
0.00555322
0.000403486
0.00167242
0.0015599
0.00144818
0.00388025
0.00535952
0.00106456
0.000765682
0.00163953
0.00277378
0.00286664
0.00162148
0.00251575
0.00143253
0.00543659
0.00132958
0.00137197
0.00548863
0.00121431
0.00337414
0.00256091
0.00276888
0.00131684
0.00248585
0.00595117
0.000717643
0.00332957
0.000651473
0.00263504
0.00371914
0.00307763
0.00199858
0.00132841
0.0023969
0.0040349
0.00298051
0.00121118
0.0039008
0.00422608
0.000657604
0.00695032
0.00362778
0.000878303
0.00358266
0.00270406
0.00214198
0.00241573
0.00119742
0.00368381
0.000163078
0.00224064
0.000956284
0.00269757
0.00116302
0.00278913
0.00089566
0.00138004
0.00136549
0.0028138
0.00397885
0.00741052
0.00407789
0.00365926
0.00290006
0.000727759
0.00376342
0.00596752
0.00437414
0.00496029
0.00313227
0.0041622
0.0072471
0.00745336
0.00299872
0.000992032
0.00674848
0.00280661
0.00244645
0.00528482
0.00645887
0.00285259
0.00228692
0.00747108
0.00552592
0.00335804
0.00354501
0.0061063
0.0038799
0.0011641
0.00386711
0.00346032
0.00565904
0.00696032
0.00213055
0.00467615
0.00584623
0.000834947
0.00179015
0.000977481
0.00665218
0.000967993
0.00043194
0.00609051
0.000381562
0.000793122
0.000585974
0.00393676
0.00477203
0.00425132
0.00143995
0.00684717
0.00441899
0.00449308
0.00391552
0.00274809
0.00350722
0.0034575
0.00106644
0.00434394
0.00275969
0.000853104
0.00400675
0.000352165
0.0017248
0.00125912
0.00650385
0.00303951
0.00195973
0.0057974
0.00469343
0.00192778
0.00708449
0.00296915
0.00173288
0.000425144
0.00727768
0.00156136
0.0051964
0.00301952
0.00303089
0.00539046
0.00136451
0.00471775
0.00214918
0.00451869
0.00130762
0.000280369
0.00395044
0.00692464
0.0023584
0.00467529
0.000794743
0.00375546
0.00376579
0.00446462
0.00425425
0.00549825
0.0072564
0.00377725
0.00224829
0.00533188
0.00218697
0.00402685
0.00376904
0.007166
0.00230363
0.00203963
0.00402358
0.00468375
0.00479252
0.00460912
0.00309557
0.00418978
0.00442781
0.0058282
0.00236434
0.0026253
0.0074721
0.00387393
0.00357522
0.00511278
0.00382561
0.00309245
0.00377766
0.00357575
0.00393003
0.00470289
0.00387572
0.00580266
0.00473782
0.00626809
0.00206819
0.00224013
0.00196175
0.00361981
0.00476384
0.00412843
0.00123591
0.00532061
0.00509774
0.00542861
0.0015205
0.00298921
0.00125666
0.0012405
0.00124911
0.00331429
0.00451382
0.00416096
0.00420547
0.00634112
0.00119542
0.00399146
0.00643355
0.00412544
0.00318053
0.00401743
0.0014621
0.00405919
0.00237024
0.00275167
0.00341794
0.00609219
0.00440811
0.00372676
0.00378776
0.00455247
0.00300923
0.00328429
0.00284635
0.00370329
0.00508216
0.00496415
0.00213494
0.00191173
0.00471945
0.0041353
0.00231972
0.00375219
0.00228906
0.00666599
0.00529217
0.00231536
0.00463738
0.00574547
0.00466732
0.0068058
0.0065658
0.00344347
0.00431882
0.00204034
0.00441902
0.00238107
0.00597755
0.00435398
0.000993655
0.00402385
0.0042278
0.00502351
0.00511032
0.00397082
0.00427195
0.000326485
0.00347267
0.00365446
0.00594901
0.00520413
0.0049855
0.00713629
0.0062021
0.00350903
0.00409804
0.00625975
0.00667753
0.00293183
0.000985792
0.00130697
0.00302361
0.00177155
0.00351139
0.00387153
0.00354252
0.00187633
0.00195651
0.00330394
0.00398069
0.00084258
0.00478098
0.00397437
0.0038569
0.00399139
0.00639452
0.000309016
0.00463428
0.00360579
0.00743037
0.00265057
0.00263663
0.000409165
0.000234738
0.00462394
0.00574892
0.0069443
0.00399879
0.00365492
0.00499825
0.000214092
0.0012626
0.00473516
0.00253058
0.00135439
0.00489733
0.00452714
0.00338259
0.00691327
0.00497687
0.00663975
0.00426351
0.00287429
0.00389565
0.00423414
0.00513632
0.00192837
0.00426144
0.00743716
0.00140518
0.00571923
0.00349227
0.0030244
0.0010661
0.00167278
0.00345958
0.00287963
0.00492535
0.00284779
0.00286235
0.0059915
0.000587034
0.00177531
0.00287974
0.00391014
0.00339974
0.0038726
0.00383196
0.00114155
0.00716841
0.00665839
0.00574182
0.00538301
0.000889517
0.00129552
0.00131037
0.00183668
0.00307331
0.00287971
0.00719369
0.00698117
0.00454911
0.00493621
0.00509866
0.00556765
0.00712487
0.00108296
0.000793963
0.0070602
0.0062701
0.00283475
0.00230018
0.00299514
0.00707623
0.00514065
0.00171351
0.000906676
0.00344063
0.00203586
0.00479441
0.00147561
0.00056476
0.0030303
0.00618714
0.00700778
0.00617163
0.000907046
0.00533495
0.00435008
0.0042277
0.00713792
0.000940042
0.000360556
0.000497659
0.00166206
0.00398674
0.00599847
0.00684818
0.00228825
0.003927
0.000941836
0.000833921
0.000830637
0.000493271
0.000804184
0.00171213
0.00648754
0.00081235
0.00739761
0.000341936
0.00390479
0.000763431
0.00444531
0.00172706
0.00561686
0.00294364
0.00224757
0.00225491
0.00462818
0.00559609
0.00398908
0.000902995
0.00108757
0.00500301
0.00516604
0.000475419
0.000442798
0.00363844
0.0017364
0.000706683
0.00136019
0.00464917
0.00669876
0.000872904
0.000650724
0.00156014
0.00705707
0.00135262
0.00623527
0.000770405
0.0010904
0.000553967
0.00242124
0.00562288
0.00154859
0.00659851
0.00461643
0.00381672
0.00219192
0.00610714
0.00360205
0.00468471
0.00379683
0.00416939
0.00672819
0.00631989
0.00340593
0.00665318
0.00576519
0.00426584
0.0037466
0.00157398
0.00381646
0.00239777
0.00403961
0.00538187
0.00382225
0.000952962
0.00345792
0.00335193
0.00193001
0.000577219
0.00418321
0.00387898
0.00319203
0.000989484
0.00163802
0.00131024
0.00463565
0.00648475
0.00460662
0.00339891
0.00548249
0.00340486
0.00316246
0.00369657
0.00698906
0.00458791
0.00490258
0.00448668
0.00317181
0.00434952
0.00367815
0.000662444
0.00349821
0.00400621
0.00419871
0.0029316
0.00111554
0.00269479
0.00389149
0.00455064
0.00311737
0.00125171
0.00125051
0.0037899
0.00323945
0.000375112
0.00150709
0.00204887
0.00405123
0.00147843
0.00310069
0.00400407
0.00280616
0.00115258
0.00474382
0.00408267
0.00232727
0.00639572
0.00237291
0.00270722
0.00310835
0.00333023
0.00194466
0.00413015
0.00584461
0.0070162
0.00185076
0.00326051
0.00432572
0.00443023
0.00497304
0.000824794
0.00293954
0.00332394
0.000444753
0.00179747
0.00535797
0.00344625
0.000929124
0.00167561
0.00230644
0.0069751
0.00290386
0.00104859
0.00518394
0.00721504
0.000675307
0.00184699
0.00137024
0.00356625
0.00441461
0.00462976
0.00153526
0.000619476
0.000719325
0.00463953
0.0055163
0.000621527
0.00548347
0.00175375
0.00307651
0.00152112
0.000989125
0.00439354
0.00340246
0.00117106
0.00399787
0.00477027
0.00452051
0.00358346
0.00546517
0.000903852
0.000293266
0.00366318
0.00358514
0.000720214
0.000532386
0.000687507
0.00210864
0.00110684
0.00199878
0.00055814
0.00352555
0.00353175
0.000841256
0.00236124
0.00241191
0.00100235
0.000935083
0.000420115
0.00591644
0.00545921
0.000716775
0.00645847
0.00425174
0.000845513
0.00529197
0.00314931
0.00401816
0.003098
0.00502937
0.00620277
0.000471217
0.000495669
0.00210364
0.00073722
0.00241256
0.00364697
0.00432665
0.00438889
0.00332957
0.00450317
0.00518737
0.00397084
0.00467516
0.000729194
0.000671736
0.00409891
0.00173482
0.00379192
0.00425349
0.00261909
0.00353552
0.00365731
0.00452283
0.000571716
0.00111747
0.00433932
0.000671807
0.00280576
0.00143041
0.00292802
0.00343516
0.000977632
0.0028084
0.00108521
0.00467705
0.00291023
0.00290886
0.00629373
0.00116287
0.00705049
0.00540289
0.00240581
0.00427495
0.00145564
0.00333845
0.00242021
0.00339089
0.000884578
0.00389152
0.00340999
0.00364299
0.00699886
0.00337145
0.00354228
0.00177174
0.000459616
0.00278633
0.000711098
0.00366716
0.00438009
0.00501315
0.00448679
0.0049882
0.00479968
0.00347241
0.00124399
0.00170163
0.00124204
0.000626832
0.00470904
0.00391365
0.000158184
0.000928899
0.00434235
0.00420548
0.00126687
0.00374663
0.000723091
0.000451952
0.00265455
0.000893534
0.00131969
0.00279104
0.000759713
0.0017095
0.00591332
0.00348399
0.00105502
0.00126787
0.00639469
0.000973633
0.00675412
0.00262996
0.00462888
0.00261936
0.00186424
0.000849392
0.00103558
0.00589242
0.0056892
0.00024584
0.0068656
0.00456834
0.00117599
0.00581205
0.00279879
0.00416818
0.00330192
0.000527632
0.00147868
0.00082987
0.00171596
0.00315235
0.0011184
0.00564445
0.00484218
0.0010297
0.00654212
0.003678
0.00262716
0.00505546
0.00129621
0.00062718
0.00674045
0.00225471
0.00704041
0.000750805
0.0040137
0.000586991
0.00279655
0.00281544
0.00583664
0.00250642
0.00266503
0.0063596
0.00469103
0.0032422
0.00708806
0.0013729
0.00327328
0.00350081
0.00617999
0.00406245
0.00349167
0.00250327
0.00288091
0.00177525
0.00309066
0.00355538
0.00385326
0.00144625
0.000566199
0.000807744
0.000710463
0.00117871
0.000830543
0.00103815
0.00260562
0.000242809
0.000738659
0.00131277
0.00177804
0.00260719
0.00108877
0.00099131
0.0023317
0.00146301
0.00210156
0.00608647
0.0026442
0.00151173
0.00383249
0.000903723
0.0032522
0.000571051
0.00187116
0.00117943
0.00140143
0.00143978
0.000775605
0.00184755
0.000674887
0.00263372
0.00236361
0.00399747
0.00171129
0.00496897
0.00547153
0.000944849
0.00332262
0.000951594
0.00181082
0.00503807
0.00234375
0.00393644
0.00144713
0.001196
0.00694205
0.00578347
0.00158876
0.000952251
0.00366107
0.00267466
0.00114018
0.00108976
0.0042401
0.00702491
0.00386011
0.00406222
0.000804106
0.00715299
0.000897851
0.000359178
0.00497483
0.00255706
0.00408543
0.00354804
0.000869375
0.00278232
0.00076309
0.00321732
0.00421876
0.000527117
0.000983185
0.00520501
0.00232508
0.00517807
0.00642146
0.00128136
0.00298147
0.000758597
0.0035823
0.00609637
0.0025407
0.00679466
0.00456987
0.00514581
0.00477859
0.00273206
0.00221684
0.00145348
0.00339958
0.00109316
0.00509852
0.00663727
0.00215852
0.00127272
0.00083715
0.000865819
0.00186268
0.00195457
0.00104434
0.000936329
0.000819645
0.000843763
0.00311096
0.00300657
0.00396139
0.00137455
0.00503764
0.00272617
0.00311867
0.00135241
0.000519344
0.00348142
0.00258622
0.00347543
0.00442816
0.00337039
0.00391617
0.00600449
0.00454706
0.00253819
0.00290095
0.00266806
0.0053446
0.00290126
0.00150365
0.000758766
0.00415481
0.000578863
0.00744412
0.00300027
0.00686084
0.00440225
0.000909187
0.002699
0.0011516
0.0036616
0.00343712
0.00329495
0.00439339
0.00470165
0.00383945
0.00320143
0.00793707
0.00737353
0.000789532
0.00295219
0.00123433
0.00282997
0.00105106
0.00559389
0.00450055
0.00337807
0.00383583
0.00289441
0.000965144
0.00632592
0.00394141
0.00113498
0.00246719
0.00243078
0.00264173
0.00243945
0.0022845
0.00213412
0.00484679
0.00747335
0.00645914
0.00195062
0.00149019
0.00457595
0.000492569
0.00626119
0.00176476
0.00682945
0.00610674
0.00183974
0.00435138
0.00635579
0.000964277
0.00742105
0.00408873
0.00140986
0.00327407
0.00682164
0.00129675
0.00668825
0.00729365
0.00109471
0.00280444
0.00287079
0.000758031
0.00725509
0.0019471
0.00132803
0.00168167
0.000945455
0.00115671
0.00457563
0.00582475
0.00284002
0.0057732
0.00183545
0.00288449
0.00501461
0.00577981
0.00348112
0.00117023
0.00296987
0.00424966
0.00246149
0.00340283
0.00249438
0.00738822
0.00209993
0.0011376
0.00360723
0.00338013
0.00469491
0.00458582
0.00295704
0.00432346
0.0021788
0.00326057
0.000615252
0.00398959
0.00699475
0.000991609
0.00286875
0.000656371
0.000970706
0.00617714
0.00330418
0.0012312
0.00309253
0.000638847
0.00142044
0.000554846
0.00141271
0.000621758
0.0030171
0.00155747
0.00154495
0.000537322
0.00114929
0.00288531
0.000645113
0.000595831
0.00243934
0.000312819
0.00119933
0.00387601
0.0036555
0.00116258
0.000934406
0.00729203
0.00365339
0.000976453
0.000742248
0.00106731
0.00128553
0.00155724
0.000796872
0.00278571
0.00362078
0.004285
0.00687476
0.00307855
0.00634248
0.00101422
0.00293904
0.00430446
0.000671907
0.0037975
0.0022903
0.00420715
0.00601585
0.0031375
0.00432196
0.00177245
0.00639592
0.00173571
0.000599216
0.00469707
0.00648564
0.00326788
0.00492102
0.000995657
0.00358566
0.00533293
0.00622474
0.000565026
0.00609129
0.0034739
0.00659166
0.00166142
0.00307955
0.00431541
0.00568811
0.00497651
0.00144438
0.00353202
0.00255225
0.0074424
0.00693625
0.0067032
0.00460789
0.00446181
0.00352583
0.00576746
0.00329135
0.00357407
0.00239499
0.00126019
0.00110138
0.00318914
0.00177806
0.00412271
0.00264544
0.00346722
0.00370686
0.00628115
0.0031484
0.00426332
0.00618029
0.00214501
0.00453941
0.00308697
0.00105255
0.00477256
0.00270547
0.0011786
0.00364248
0.00111936
0.00187134
0.00118734
0.000338389
0.00275013
0.00511004
0.00194332
0.000453093
0.00308558
0.00699265
0.00599689
0.00514657
0.00333908
0.00442837
0.00709122
0.00694767
0.00363933
0.00276859
0.00735206
0.00642629
0.00728983
0.00515678
0.00288227
0.00173855
0.00298092
0.00602683
0.00327526
0.00092683
0.00510596
0.00576751
0.0037706
0.000571955
0.00060465
0.00374871
0.00539699
0.00465621
0.00304128
0.00480189
0.000687729
0.00173306
0.00478083
0.0040009
0.00578603
0.00339983
0.00179763
0.00434423
0.00320443
0.00347003
0.00129076
0.00195065
0.00149922
0.00093527
0.000260845
0.00227594
0.00190997
0.00372535
0.00380606
0.00334313
0.00322476
0.00552641
0.00428094
0.000472934
0.00634556
0.00177916
0.00100629
0.0032832
0.00294563
0.000738414
0.00202396
0.00394133
0.00379549
0.007303
0.00294649
0.00105951
0.00378217
0.00150616
0.00642064
0.00262424
0.000739219
0.000846146
0.0032477
0.00305603
0.0010644
0.00450458
0.000678333
0.000599926
0.00120671
0.00741959
0.00670675
0.000303534
0.00577293
0.000508561
0.00193924
0.00306166
0.00107687
0.0010373
0.00598018
0.00719966
0.000949734
0.00603153
0.00575189
0.00471234
0.00637354
0.00423166
0.00364684
0.00213118
0.00541837
0.000357728
0.00310437
0.00388049
0.00370953
0.000309662
0.00411446
0.000560271
0.00467843
0.00308845
0.00358584
0.00109558
0.00559265
0.00436885
0.00474381
0.000958176
0.00185064
0.00184599
0.00132164
0.00268219
0.0060686
0.000782931
0.00327432
0.00320502
0.00327024
0.00412667
0.00307652
0.00383024
0.00717415
0.000369785
0.00127639
0.00431486
0.00470857
0.00290478
0.00384155
0.00270144
0.00279111
0.00456729
0.00225322
0.00433445
0.00471561
0.00411811
0.00155161
0.00439654
0.00439215
0.00451234
0.00345359
0.00674018
0.00536953
0.00480156
0.00275627
0.00415061
0.00270065
0.00254092
0.00352303
0.00069412
0.00475752
0.0027266
0.00144243
0.00119595
0.00150095
0.0036071
0.00629299
0.00181244
0.000730294
0.00394196
0.00100997
0.00397868
0.00711796
0.00268777
0.00172894
0.0037995
0.0042736
0.00733485
0.0047987
0.000346311
0.00477115
0.00640685
0.00239313
0.000478127
0.00055643
0.00351773
0.000290008
0.00149087
0.00113247
0.00244211
0.00114783
0.000536878
0.00482649
0.000870387
0.00387497
0.00501455
0.0061883
0.000521101
0.00205991
0.00678398
0.00560729
0.000998282
0.00407218
0.000521172
0.00493885
0.00289793
0.00432142
0.00290303
0.000632965
0.00729832
0.00313066
0.00280179
0.00544029
0.00366596
0.00559433
0.00283842
0.000465493
0.000451018
0.000732142
0.00143102
0.00125418
0.00563169
0.00607626
0.00491197
0.00363113
0.00692344
0.0014409
0.00716085
0.000908361
0.0041745
0.00646361
0.00566845
0.00472064
0.00656739
0.00323338
0.00295322
0.00719045
0.00308431
0.000888102
0.00520749
0.00103031
0.000922701
0.00634726
0.00030269
0.000551381
0.00275524
0.00289631
0.00365858
0.00123296
0.00448429
0.00197339
0.00120533
0.00527433
0.00161266
0.0071124
0.00198762
0.00402689
0.00226864
0.00201509
0.000864605
0.003328
0.00383209
0.000672655
0.00127463
0.00197576
0.00158887
0.00566126
0.00168171
0.00408914
0.00183714
0.0031915
0.00612343
0.00129645
0.00269103
0.00232045
0.00647136
0.000592139
0.000824698
0.000566613
0.00560686
0.00404119
0.000864297
0.000576741
0.00179375
0.00369732
0.00249605
0.00105179
0.000709095
0.00174123
0.00442031
0.0044669
0.00428076
0.00480973
0.00399127
0.000566923
0.0049953
0.0016956
0.00311076
0.00668851
0.00256702
0.00258653
0.00475202
0.00386282
0.00499592
0.00227448
0.0018888
0.00469043
0.00508518
0.00213945
0.0032546
0.00277997
0.00193981
0.00218509
0.00356113
0.00595618
0.00576367
0.00519765
0.000766104
0.00356409
0.000955366
0.00237279
0.0036901
0.00492468
0.00326626
0.00703397
0.00245033
0.00747117
0.00200808
0.00234996
0.00358915
0.00422553
0.00237219