/*--------------------------------*- C++ -*----------------------------------*\
| =========                 |                                                 |
| \\      /  F ield         | OpenFOAM: The Open Source CFD Toolbox           |
|  \\    /   O peration     | Version:  2506                                  |
|   \\  /    A nd           | Website:  www.openfoam.com                      |
|    \\/     M anipulation  |                                                 |
\*---------------------------------------------------------------------------*/
FoamFile
{
    version     2.0;
    format      ascii;
    arch        "LSB;label=32;scalar=64";
    class       volScalarField;
    location    "0.0626374";
    object      omega;
}
// * * * * * * * * * * * * * * * * * * * * * * * * * * * * * * * * * * * * * //

dimensions      [0 0 -1 0 0 0 0];

internalField   nonuniform List<scalar> 
47425
(
59.0131
67.447
71.8842
161.655
141.099
71.328
95.0193
101.714
49.394
602.729
137.504
44.1236
71.9996
79.5997
96.034
88.5247
68.7622
47.8427
1326.7
191.779
84.7506
45.3241
104.974
63.3049
46.1252
44.1282
78.0233
691.202
70.347
55.4919
43.7637
44.9916
47.7437
68.2423
55.2726
67.0686
44.7858
67.5585
65.6121
74.6521
71.8179
107.422
190.24
144.994
1770.12
104.374
96.006
77.5996
78.7793
47.3074
574.943
230.739
49.8219
723.768
113.055
123.407
44.5624
58.3049
80.5784
61.3803
965.802
1174.98
904.008
44.2641
49.3523
44.9883
61.4469
86.9673
732.306
44.5144
78.315
52.1759
48.821
90.8316
651.838
49.4036
890.132
81.3503
1333.32
267.286
670.367
65.1795
43.31
46.9291
49.834
82.0881
53.9507
52.196
122.964
405.648
44.5686
76.5107
42.8091
114.38
146.977
194.643
48.1328
52.9002
88.1216
78.3375
60.1742
91.99
52.3333
97.4524
49.9139
52.7714
48.8236
93.5456
60.9176
45.0618
358.15
62.2604
71.7792
155.18
44.8971
893.486
44.1503
228.71
78.1832
62.6493
79.4516
48.5449
58.1362
63.1606
96.8314
57.6526
85.2301
49.1901
105.426
42.6673
45.1067
95.7468
125.837
119.866
98.7411
68.0648
47.8291
60.7334
69.1111
97.2848
70.9466
131.733
70.8937
89.1588
52.0822
49.3287
112.813
62.7149
150.668
72.3657
88.897
501.688
48.7559
698.405
46.3501
84.4231
59.484
901.336
92.0835
71.9537
44.8535
43.5889
49.9027
46.721
414.793
825.736
45.534
663.63
106.367
727.978
696.109
85.5958
73.8609
45.6251
71.8676
65.7707
725.541
70.3747
52.7072
44.0055
1002.67
47.7742
60.3323
46.0018
46.7881
48.4416
56.7766
76.5966
149.317
55.9367
47.9247
72.0139
82.94
77.021
46.5891
42.8128
61.869
72.4151
43.9421
83.1978
65.8711
122.966
56.809
43.352
49.313
159.066
53.4929
43.0063
86.8157
48.4401
63.2479
66.058
47.2111
93.6394
63.7799
63.8378
76.3805
248.971
46.802
93.096
285.172
120.48
125.869
96.573
167.099
239.928
46.4563
130.076
48.9689
60.2325
72.2579
72.4477
103.234
49.3224
164.975
92.75
326.776
112.46
271.198
181.247
83.4848
59.8675
42.5534
102.509
44.5946
49.4529
68.5975
60.6039
43.2721
77.6665
42.5274
219.863
67.1645
49.2833
91.5909
42.8753
46.3314
119.938
94.6933
48.3486
124.633
47.2151
78.688
135.182
71.7759
89.6208
44.258
71.9797
62.9162
82.1121
79.9966
237.231
314.541
48.6625
222.442
179.203
223.271
112.366
298.265
183.2
1022.52
58.0766
974.28
123.254
79.7155
85.5898
104.312
91.0568
90.4036
45.9732
622.609
44.337
50.3438
56.7997
67.6585
98.1036
111.47
46.4457
65.597
56.0834
87.5132
43.7354
85.8799
60.3519
821.746
1037.43
669.846
42.703
48.3849
43.5314
100.757
688.679
86.4633
116.524
263.546
73.5591
104.295
122.02
93.2833
430.976
231.249
44.9085
60.583
47.1192
81.5124
43.777
78.4025
62.6758
52.3638
72.009
83.7762
700.804
54.878
74.8375
129.127
42.934
704.177
50.3958
45.6306
52.9613
45.8945
46.2694
44.8951
52.8048
50.7342
50.6996
59.6597
47.1481
83.4418
83.5168
47.027
45.0536
62.6931
47.7941
48.1113
46.8956
80.7384
43.0987
48.8426
93.4007
54.5536
60.5084
77.9471
94.5938
48.0341
48.7726
130.944
48.2156
67.1109
44.4448
129.864
956.411
78.0191
43.7307
200.232
43.7226
98.616
93.3588
72.55
45.0594
63.5012
44.4207
42.8791
73.7831
85.9106
82.8566
83.7799
52.6732
48.7499
82.681
48.3109
46.7063
80.4857
56.7816
65.7289
48.4434
61.9454
88.8771
66.4918
48.8384
487.227
45.4171
420.329
69.8597
105.382
102.768
47.1506
145.735
46.4121
94.0824
46.4432
535.011
365.333
42.9202
49.9373
80.2953
85.9533
82.3892
74.5748
81.139
89.2303
67.1758
45.2331
101.374
70.997
48.7133
88.2173
78.2354
52.3945
145.118
1320.49
46.5714
282.597
1091.82
89.4058
1121.31
784.598
47.691
80.2844
75.8243
79.0176
698.591
87.1727
49.5647
49.1077
74.9963
75.4615
80.5162
80.2545
477.868
770.647
153.74
65.5409
72.0025
127.768
57.7003
43.8201
68.2854
43.3312
83.9815
75.8092
132.705
69.3817
49.3502
80.1866
59.7529
77.6567
43.532
64.734
67.4405
66.6411
63.5365
108.807
120.153
61.9024
83.4815
43.3597
526.282
130.05
74.7991
46.3511
134.936
244.571
47.4076
43.0699
47.5236
47.3058
67.3787
49.5325
105.595
84.457
48.0572
54.847
142.395
99.379
46.8541
50.6301
57.1744
54.3823
48.5535
51.6636
43.8935
69.5359
59.0501
111.389
61.8112
46.5641
43.2304
43.5506
74.1329
127.212
44.6055
42.6788
55.7571
57.3593
57.4678
59.4397
69.4125
72.1334
51.7788
76.9244
100.902
431.015
61.5106
69.1572
53.0307
49.345
131.553
130.163
76.2021
49.7752
80.1905
103.824
46.9086
140.537
48.4579
261.911
48.0333
50.9342
58.5032
125.713
42.1998
72.5202
73.511
53.7795
43.4458
51.5808
1135.88
62.9693
146.531
45.8381
99.091
46.4555
58.955
84.2201
72.4751
70.2325
45.4219
395.706
54.8521
59.2169
55.6405
48.4791
43.9722
57.9484
116.752
48.3617
57.4638
67.5844
43.8957
260.885
44.5294
62.0604
491.285
71.7339
43.0895
347.3
575.76
44.6248
656.458
685.355
70.8358
46.6053
52.079
44.3001
85.076
88.5214
670.223
44.6164
126.572
49.4466
113.632
56.734
85.3115
66.9748
510.535
321.25
51.7674
94.4131
100.511
84.7544
121.652
125.027
48.0845
97.6353
132.906
98.002
67.4569
134.71
51.4263
47.85
135.409
93.0357
78.0987
119.947
100.815
68.1199
73.4158
59.4371
53.4029
67.6536
47.2676
46.9219
1320.03
62.2479
77.0738
1001.77
974.771
43.2394
76.4308
1629.16
168.986
92.9994
294.056
119.462
767.113
59.5325
48.4233
60.046
172.164
113.73
112.841
46.3394
118.192
67.5617
83.4467
48.32
80.0326
57.9072
454.947
703.051
121.921
49.0611
85.9898
43.1889
109.557
47.421
58.2114
63.5001
65.0722
44.6513
176.823
75.5096
47.5373
67.342
186.409
767.489
229.732
86.902
43.1711
74.606
43.7082
751.436
70.4896
648.38
83.8082
109.212
66.7538
68.9765
58.6769
87.3768
54.0715
88.3067
56.9167
206.988
90.8821
49.2336
71.8718
89.3099
597.078
66.7182
202.296
69.1676
48.6641
43.6722
141.614
79.8309
71.7832
45.9461
63.3846
67.628
72.5581
80.7466
79.8227
64.8395
126.349
196.781
70.9204
98.3474
67.7823
113.191
91.4399
48.2645
150.816
61.8284
76.9073
78.3976
44.3963
298.534
394.329
95.0974
65.9623
46.8603
91.0556
55.4623
135.842
44.2279
255.523
80.9858
44.6761
77.1882
46.8031
59.4451
69.889
49.6393
89.1954
42.4767
45.4487
48.193
165.667
41.9799
340.478
253.574
263.361
365.45
79.1629
231.815
58.5125
46.3962
144.41
320.877
400.518
104.58
61.8961
123.321
115.384
164.08
128.341
94.4479
54.0087
70.6672
101.345
112.543
56.2115
81.4215
343.051
57.6826
62.7004
153.542
119.87
115.907
175.965
737.884
462.949
224.427
247.875
80.6882
119.108
44.4467
46.6641
71.4324
431.509
176.448
71.2367
72.6313
43.5134
369.486
408.635
43.02
169.048
89.898
42.9134
165.487
42.8636
43.9114
72.6991
72.1773
84.0594
48.1677
43.0833
61.0132
68.7288
67.4053
137.189
106.496
43.4985
244.421
48.1078
46.6702
47.1552
194.826
78.8032
239.986
119.842
54.6574
43.4764
68.3349
1373.36
71.9944
82.9782
70.8539
65.0023
61.1347
114.393
119.94
127.943
290.265
95.6705
801.967
49.4171
66.0949
56.2364
63.0301
45.2093
166.07
125.792
44.439
291.912
94.6472
71.6846
242.234
78.3364
54.6321
71.0447
67.7302
69.2138
112.192
330.066
66.4482
74.0091
207.088
220.559
660.258
215.209
88.8252
172.428
45.0057
47.7736
106.617
176.803
86.4118
82.6455
92.4865
103.171
47.8172
68.2614
103.881
99.0598
89.8808
357.133
496.888
93.5881
132.222
166.736
679.272
408.547
202.999
92.4038
67.1548
96.5894
92.9456
234.696
45.9142
48.0115
96.4892
404.474
120.937
75.6099
97.6514
54.079
109.075
126.479
78.6069
508.78
54.0377
64.9048
131.331
97.2573
65.4211
66.1337
104.734
103.409
90.4151
57.9733
125.313
45.1023
44.9262
45.6148
79.8334
57.8591
151.267
52.9784
216.826
287.332
260.139
99.7346
83.7014
45.5947
70.3035
114.185
491.471
244.825
892.235
45.2202
58.0837
54.3698
324.262
88.5365
331.448
237.431
231.577
133.372
217.754
90.4802
86.3005
73.1986
46.3696
125.782
67.452
74.6778
252.643
73.372
68.4086
51.0085
265.501
397.436
151.886
203.28
661.116
191.795
91.3487
68.4019
89.6697
105.567
184.587
188.35
491.422
46.1886
58.392
72.6372
47.8202
63.0904
100.785
96.2825
54.2121
120.056
53.0545
76.4683
51.5186
47.2959
124.363
66.7527
116.5
44.7131
45.197
162.549
47.0905
99.1272
104.928
44.5593
62.6835
105.196
79.9374
68.2198
79.965
546.607
184.451
124.464
107.418
1872.84
1004.7
639.014
453.669
102.226
49.5363
1148.1
418.58
53.7907
63.1467
106.762
86.1449
396.856
138.615
45.4362
113.407
58.2419
49.4963
203.61
959.926
139.099
1193.33
152.146
249.169
682.669
56.6314
76.8113
134.071
321.385
92.1856
46.4742
46.3051
794.132
106.17
365.679
73.7075
161.671
48.7822
53.4858
556.086
575.246
82.3575
53.3256
75.8134
526.627
44.0058
51.5046
434.003
568.226
72.6124
44.1325
1048.55
742.529
583.062
99.5622
275.729
522.086
560.811
80.0221
87.7668
107.934
64.5992
107.958
547.922
1369.97
64.1736
60.0576
58.76
52.2681
47.6411
81.7322
131.319
65.8369
49.5561
48.5462
92.3444
355.727
1173.59
51.4479
228.187
103.427
72.7288
175.173
57.3878
90.4513
76.6744
46.4189
198.955
53.4858
521.198
44.3091
792.177
479.83
605.806
203.16
100.995
62.8728
102.661
60.609
218.874
1449.86
104.013
392.447
180.87
476.1
160.555
768.798
616.886
91.7633
62.3267
1619.01
88.088
48.9577
73.8149
607.514
1088.61
79.9782
52.4296
477.507
77.1804
776.238
766.576
107.971
114.248
845.167
103.03
44.7927
604.774
51.9844
528.741
999.848
43.6042
69.9967
84.571
56.6218
123.046
102.086
42.804
121.648
89.7485
117.517
57.6682
43.3006
195.373
214.996
595.761
51.6223
95.2422
228.216
45.3053
843.05
85.9899
112.768
151.43
496.904
86.7513
376.566
181.857
146.555
56.9693
540.119
224.249
289.19
86.8673
162.985
62.6256
76.0317
71.924
344.928
238.232
109.901
726.388
150.1
109.339
277.081
124.406
143.484
737.239
342.349
58.0261
156.795
83.8659
148.415
305.445
859.565
58.3788
45.6948
62.3946
488.617
63.5129
300.64
58.6683
62.3055
47.6596
150.62
55.1453
206.629
311.412
54.0313
60.6826
92.1552
80.5036
980.874
413.68
117.043
752.458
349.61
121.981
243.591
64.2443
57.1174
1027.84
56.98
363.119
358.349
45.8127
59.0022
98.423
96.2737
56.26
71.0969
146.742
74.1261
78.3073
66.6344
81.3684
239.793
66.9642
191.925
155.136
207.793
56.1641
733.553
438.77
54.4726
571.67
247.852
57.2143
106.949
639.684
217.635
46.6433
180.858
451.104
199.202
498.067
57.5734
579.229
114.93
54.9625
68.8536
108.443
185.845
122.3
65.697
244.148
50.6859
230.918
107.011
1288.13
143.683
80.705
119.637
265.026
55.1539
281.608
109.245
109.06
613.434
79.2476
79.0902
1080.28
43.5297
103.307
371.609
62.4144
273.983
627.259
151.381
71.4508
83.5508
952.947
276.102
435.956
294.966
77.7707
69.8754
100.101
686.342
709.866
304.659
88.5694
48.2492
86.523
87.3837
130.082
333.495
92.6556
55.5909
62.6739
61.4032
45.0281
85.1825
44.2261
46.8307
120.53
81.6944
45.9638
128.651
233.34
61.3596
47.6525
130.756
64.3856
48.1073
55.0977
100.567
94.4833
50.0466
96.9037
560.08
87.8128
48.5138
54.6605
43.996
247.639
67.2932
53.7615
675.889
642.088
288.005
48.1079
656.715
148.569
55.6667
1000.62
92.5969
982.878
90.937
66.6612
81.6827
66.7047
45.5101
82.4508
83.8334
92.0441
114.499
89.4533
103.854
162.888
80.4665
81.216
428.987
86.5191
1375.84
70.5038
697.799
46.3027
118.607
179.125
52.4408
68.3753
189.894
43.0436
539.524
331.851
1217.43
51.0589
630.212
59.026
109.73
172.177
57.9653
587.403
89.1825
291.653
69.5508
746.041
700.048
79.7052
43.7814
456.669
68.9768
422.054
85.2734
95.7227
70.1875
72.6408
56.9494
45.3669
88.7354
278.431
74.3855
176.743
83.7944
87.0169
42.5596
155.043
517.093
89.8517
381.395
117.099
67.6205
120.195
79.1261
74.0271
55.9043
151.116
131.299
48.5682
85.5422
83.2938
67.866
93.5444
403.454
397.927
81.3204
90.0205
314.252
87.5664
52.6666
64.6319
48.5474
166.768
166.182
203.932
104.45
69.8707
74.6754
65.1306
56.6484
57.9998
59.0868
481.889
130.166
666.303
514.782
631.511
57.9741
68.6286
72.2935
71.9982
48.1985
324.481
81.8465
46.9605
78.8294
111.523
76.8515
321.63
75.2372
157.021
113.417
97.8273
50.2186
70.7579
89.3286
88.097
68.2469
112.991
98.1555
176.524
86.9367
68.9105
79.1114
150.368
169.824
65.3348
80.267
134.618
97.0376
169.77
45.7508
56.5377
136.081
68.9001
53.9644
76.0399
44.7014
47.0306
88.6501
74.6958
395.869
72.225
88.8257
50.1148
70.3647
640.876
79.698
84.9615
60.1491
61.2194
87.6501
85.8483
941.169
107.227
460.264
51.3153
60.0945
71.1479
42.8557
48.8805
108.349
81.317
48.257
45.4308
305.931
107.04
512.601
119.953
254.43
104.64
78.7386
109.383
570.562
181.966
94.8983
78.8808
941.532
64.6078
80.2357
86.6069
82.757
52.282
946.203
67.3108
90.8891
46.7717
123.948
55.1389
911.522
1009.22
67.5075
53.4206
44.0473
90.9772
93.3861
60.3877
1176.77
786.042
64.8537
137.86
458.09
64.5615
157.69
122.188
43.9409
62.1857
46.6889
74.2944
211.269
85.7705
78.0449
45.1076
56.1887
75.1138
48.6131
315.298
63.4572
140.419
166.065
442.874
323.877
102.138
134.642
75.7261
133.155
118.663
44.0851
602.767
330.851
131.227
92.2781
106.051
90.4529
87.8656
280.326
42.6062
45.4933
62.1876
65.009
135.204
75.0398
360.6
388.399
45.7026
131.226
44.0826
43.2622
80.2628
61.893
63.9594
54.7606
42.8169
281.116
364.97
43.1956
52.7466
226.626
440.052
48.4245
42.8161
90.8812
175.585
926.482
93.8561
391.601
360.717
516.98
391.81
71.7007
49.2946
43.0644
58.4309
959.276
56.5708
85.6804
80.1272
42.7334
705.913
1194.86
1171.75
198.432
334.574
50.4318
45.3988
53.2465
84.5801
766.624
622.065
423.092
538.164
400.433
55.148
48.4877
854.582
47.8097
911.184
95.2431
907.538
79.4823
146.826
91.1411
186.766
169.166
169.718
134.571
63.0021
88.732
72.4978
65.5602
72.1004
66.0872
1260.87
813
91.2138
345.231
699.466
331.166
67.9072
46.2281
646.302
509.161
506.334
44.1666
796.201
50.0445
986.141
613.814
726.434
284.568
54.159
61.4994
46.8055
71.3432
85.9416
167.679
69.1005
84.927
64.9936
94.5224
78.5769
45.1402
48.3257
120.582
45.8988
52.0297
78.5657
94.9618
94.8157
87.3772
153.249
90.7656
58.0188
119.291
98.9364
90.5014
93.8564
141.383
1055.01
59.1937
337.009
69.3295
90.5389
473.262
65.4436
56.549
47.0393
108.721
95.7005
54.6543
109.113
101.639
84.0561
46.6212
67.5397
63.4435
71.0281
105.116
73.1327
98.5982
281.221
90.5622
80.7528
76.0973
111.984
78.7698
348.823
44.487
68.4862
106.181
310.178
275.631
88.7322
102.299
941.686
231.94
186.493
90.5188
72.1508
109.33
88.1794
53.4503
131.329
78.4969
87.6925
424.898
51.2801
165.448
128.667
110.31
106.19
201.022
78.299
57.6133
44.1946
53.214
99.9777
80.5429
461.027
62.84
91.6008
127.915
103.548
890.72
56.4227
95.255
105.426
273.879
388.008
146.17
44.441
135.721
65.8252
46.0466
43.1108
562.407
100.202
58.5758
423.708
119.433
68.6883
150.193
772.258
1128.7
175.45
71.1704
852.082
77.2481
217.58
134.965
584.816
287.953
107.958
94.8847
527.111
91.629
63.8132
80.8763
99.9301
54.0905
62.9369
349.093
44.8684
101.521
567.929
153.616
568.347
86.9573
440.794
49.5494
1145.28
105.892
106.079
629.693
235.373
295.917
553.737
424.301
268.441
58.8666
61.3675
426.062
55.5636
85.6945
315.169
67.3632
58.2962
78.4831
156.737
70.9482
50.2527
739.432
480.53
178.687
310.957
168.205
93.0573
81.7384
80.8749
115.646
70.7854
57.3768
86.0838
62.5043
301.931
311.023
132.345
54.2851
100.388
80.1571
123.808
105.88
98.0642
78.984
305.844
58.6439
65.9235
314.156
131.954
581.598
203.066
99.1955
748.446
138.061
112.324
403.074
134.475
128.637
50.112
550.365
43.4741
56.9392
51.166
86.1151
67.4945
101.262
215.955
104.959
121.934
81.4427
110.662
99.6829
43.2331
375.957
151.994
585.58
1084.75
109.013
397.109
132.562
70.2372
520.508
68.9613
61.165
98.6482
117.723
692.225
446.445
53.6974
314.162
370.726
88.385
1926.19
406.901
134.401
371.351
61.9216
88.4747
242.264
340.489
145.743
744.566
53.9055
52.1692
154.626
51.3624
48.1323
106.159
322.053
576.051
46.9321
138.831
43.8458
144.394
63.3196
143.813
313.789
92.1952
297.417
59.636
63.3971
789.249
44.7364
53.9095
107.1
53.4546
124.522
261.025
46.464
951.303
554.314
885.158
462.087
119.396
66.9204
53.5854
62.1595
85.0564
47.2279
86.2777
149.173
62.8184
71.1306
661.916
45.8196
166.405
44.726
134.973
71.4893
731.326
128.337
107.796
45.3766
131.025
151.321
48.8027
60.5185
99.1428
43.0116
200.797
97.4416
105.154
54.8775
45.3628
102.444
46.7939
127.951
410.682
44.9259
75.766
49.6907
63.4458
344.313
220.471
124.588
452.888
849.394
345.958
82.0655
495.575
374.4
681.017
73.4296
206.262
338.068
338.229
301.792
880.653
54.8765
45.1423
203.344
800.187
53.5565
434.186
116.804
455.61
79.4852
66.8234
630.778
572.829
323.541
57.1745
290.007
131.012
400.059
44.8226
203.935
64.4639
57.0294
94.9544
96.3862
293.626
107.734
63.7124
161.431
80.1689
266.687
382.409
44.1909
73.4336
54.2067
897.535
91.0097
131.405
200.447
138.024
71.5123
44.1355
91.379
76.4128
467.704
43.4244
104.474
316.424
65.1517
49.9912
77.8654
74.2849
692.691
138.689
210.446
96.1985
73.9719
1014.81
655.079
60.2463
144.303
60.4039
48.553
409.933
86.9166
534.178
56.6305
51.1312
96.2959
56.6767
47.2767
61.253
71.0714
136.504
243.313
290.208
403.247
70.2327
73.4218
47.123
171.161
605.881
939.924
68.0864
457.761
180.427
674.637
77.2737
359.423
110.487
167.182
129.893
82.434
260.156
75.8613
189.058
113.208
59.5782
1032.43
107.579
518.686
107.395
76.8766
109.263
147.851
68.7203
68.5031
344.613
106.028
122.275
57.6988
123.292
530.499
127.33
79.3193
159.106
46.4944
63.1775
45.6445
74.8312
78.2973
148.063
70.8333
94.7018
95.3353
74.2946
76.8427
64.4138
74.5136
60.0374
378.166
49.5519
107.341
49.1331
68.0119
123.952
75.4004
54.3222
78.8378
99.898
87.6803
126.765
354.29
47.9454
173.13
463.61
158.583
156.246
51.4901
156.802
91.8093
309.927
65.1209
45.2206
53.2489
165.039
56.4004
66.6193
875.075
216.315
365.814
44.7944
51.1017
186.649
81.1322
55.638
135.076
49.1072
80.403
54.2728
393.238
45.599
156.048
46.0618
45.1382
76.5991
67.3824
132.655
106.074
43.0731
298.295
65.1788
67.5707
89.8557
804.233
65.6872
61.7969
126.795
61.8676
57.4473
123.427
60.1432
51.8573
107.57
211.248
125.483
83.5645
407.628
109.244
242.159
48.5042
182.4
64.6062
94.9007
230.193
49.9102
110.557
66.0297
82.1137
156.066
70.7812
579.671
109.312
46.02
521.075
131.392
1022.4
302.668
203.269
86.9421
94.0004
122.129
360.48
60.509
442.959
92.2269
351.099
65.5831
397.911
64.2574
253.426
220.044
123.467
340.774
547.131
388.731
1137.44
538.191
444.188
458.884
469.568
326.275
43.4264
95.6272
327.625
69.4898
638.525
58.6197
499.4
625.182
119.208
100.047
76.3468
44.2152
114.398
47.8657
250.721
131.364
83.5439
187.391
85.1045
154.5
72.694
54.2787
111.807
49.2735
219.483
47.6175
69.0636
708.891
65.6089
43.3972
105.134
63.7821
772.717
291.113
73.0432
67.742
173.68
50.4461
85.3067
49.8515
51.5254
105.413
76.8093
56.0296
62.8878
307.265
88.6637
55.0151
44.0563
44.2648
46.2093
202.691
72.2982
96.1347
54.0874
80.7624
98.3793
55.5552
233.477
72.222
48.0087
59.816
82.7695
137.914
111.156
99.151
50.5428
119.537
84.8489
52.436
51.7171
76.7048
84.4014
101.956
68.8275
123.602
66.2033
88.7794
115.876
299.554
764.998
1117.39
122.784
60.8881
499.306
169.88
177.262
45.4696
51.1897
44.1505
90.539
73.4117
43.8567
45.3507
45.8375
111.724
42.941
48.5131
43.5208
60.1484
184.872
53.173
114.331
52.6067
97.7076
242.081
60.3367
54.2712
62.8851
1075.93
884.533
99.8163
67.118
68.6241
59.2499
96.4701
479.046
64.3083
68.0522
90.5747
43.4583
95.2953
51.3009
87.5714
112.108
91.8323
62.8269
204.161
262.478
64.4411
2078.5
251.5
199.913
61.5006
85.4404
100.225
114.912
54.5855
75.6713
302.02
45.7957
192.631
620.34
105.521
124.058
648.587
64.6453
80.1827
91.949
43.1755
118.063
411.197
92.0303
91.0847
465.169
219.678
1074.73
625.089
100.122
48.9942
141.203
68.7216
186.067
149.476
567.082
49.8488
45.7507
645.108
52.9322
193.725
77.8602
103.743
660.823
834.971
51.1168
43.6996
931.604
50.5735
54.3107
66.1364
48.1809
81.3072
154.919
268.919
61.6836
579.06
104.988
51.9585
85.6082
719.089
80.1812
606.444
65.8654
61.7294
86.57
84.7917
59.9006
114.04
65.1998
567.171
114.51
117.357
525.716
123.327
53.8092
675.636
111.848
106.206
82.9801
163.915
108.311
78.9977
45.1067
263.893
73.1939
72.7485
64.6917
122.116
83.5859
58.9558
46.7182
66.9895
147.47
71.8726
66.5978
80.6073
464.466
72.9814
71.1555
68.9078
94.0493
46.9012
63.975
63.6283
132.204
104.327
141.595
148.694
89.9625
474.911
63.3632
56.9378
453.843
412.832
494.857
89.7444
337.473
52.7626
580.028
94.953
320.666
95.8363
44.4716
115.232
199.895
93.3899
69.8025
43.795
63.8415
422.553
64.0824
50.3013
54.1729
1482.14
326.359
45.231
1487.13
579.91
330.79
227.101
827.789
287.484
76.0806
308.126
88.7895
91.456
402.603
990.887
62.8581
45.0487
55.1272
490.867
46.0197
991.025
126.204
128.997
135.346
125.328
335.798
43.0413
115.375
122.95
55.8508
105.033
53.582
121.458
2009.25
1894.57
817.846
97.8254
670.286
44.0963
49.4797
63.0057
100.772
44.4606
55.7141
43.9266
74.0359
90.2494
47.2493
54.7187
76.6832
46.5798
101.359
121.073
44.0608
115.233
122.092
44.5046
54.2613
880.843
56.4236
839.551
602.489
126.304
132.758
83.9749
122.635
68.621
53.1093
567.461
58.7111
58.3584
47.9307
51.4161
78.7062
140.509
125.967
176.238
112.831
47.7704
560.945
61.1426
321.355
365.04
63.6797
541.054
80.4196
54.4737
60.88
57.4105
63.5738
47.6479
129.842
50.8965
350.202
220.174
364.94
57.1096
56.8345
83.5289
318.959
479.91
92.3346
147.036
64.7653
306.154
64.4732
165.661
459.507
84.798
56.4171
91.6283
981.13
63.558
59.2434
120.087
47.8124
137.071
126.49
130.439
84.5729
294.002
170.104
503.292
71.4849
277.648
412.273
319.258
53.8407
175.504
92.6454
102.611
53.9086
64.6864
63.4171
490.32
85.7388
99.6207
257.457
82.7295
63.0439
97.2626
45.7611
143.59
48.2487
64.054
164.981
103.566
79.5185
166.54
98.4147
92.8627
80.7969
126.337
45.2893
320.182
258.469
107.262
103.765
45.4401
315.226
60.1839
45.118
85.4305
47.436
107.802
89.2263
50.2954
55.271
98.7362
288.349
235.055
49.6423
818.108
45.1639
97.5273
95.7339
48.1618
775.783
148.377
669.606
49.8959
68.3365
539.947
681.244
88.132
102.372
186.871
127.983
49.8783
98.8174
63.4981
145.94
81.7312
134.121
49.861
135.546
100.847
106.962
61.7791
88.2647
43.9025
60.6612
585.605
373.043
107.167
100.845
101.353
86.4577
86.1703
162.599
44.1261
50.3178
59.7255
86.572
81.0831
66.488
112.131
52.483
58.1778
52.0401
72.7021
58.0654
69.7262
190.889
84.7629
68.1108
1002.4
78.3128
65.0919
78.5171
44.5294
83.1236
207.514
46.5813
76.0229
81.1155
531.523
64.397
63.2264
94.7396
1482.92
95.3244
157.027
120.092
65.3878
64.0974
77.4802
62.6091
848.542
94.3317
68.32
64.0886
44.1017
281.97
46.3531
411.982
439.128
112.119
73.3218
59.3152
116.051
88.8325
57.4951
439.746
119.167
299.162
43.5986
138.386
574.386
119.116
49.5874
99.8375
54.4826
603.633
57.5433
53.9
90.2566
43.5504
60.8087
87.8191
52.3237
379.7
43.6755
373.869
46.4607
73.3729
66.7648
147.995
87.1983
126.538
113.159
559.275
109.623
119.206
75.3552
45.0971
103.761
58.7995
53.397
81.0495
76.6505
63.389
123.785
47.0668
66.001
47.3316
290.984
87.1186
621.412
544.712
318.035
157.701
67.8203
70.3092
61.2506
194.481
90.5125
44.7704
42.8734
112.505
145.961
46.5832
71.8841
1048.49
123.3
66.7892
75.3498
580.384
845.521
59.4649
553.09
549.146
200.356
369.836
163.308
540.221
72.0371
220.959
739.532
75.1732
42.8832
61.9698
108.249
314.932
43.7755
44.4506
70.5666
144.205
153.22
960.741
109.172
1041.22
119.101
69.8955
84.7671
77.1019
75.9988
544.181
201.809
339.269
462.779
66.8224
393.41
1188.39
66.1245
162.444
115.623
408.983
150.754
128.152
701.781
1052.55
107.636
621.023
125.58
422.157
81.5624
44.6878
152.864
785.513
682.685
62.8982
102.581
147.728
98.6229
253.172
48.8512
72.0963
958.138
381.839
367.846
58.8485
360.075
66.8667
366.847
56.4381
114.344
188.529
309.302
87.1684
121.455
289.954
104.864
921.306
71.7782
59.6619
383.349
46.732
145.782
45.3773
54.9858
43.8151
81.7959
438.01
444.868
326.216
59.1402
63.1934
305.086
57.0626
546.922
72.3548
53.6091
80.9318
217.216
153.844
644.633
51.025
72.9571
64.0787
274.129
100.094
578.289
908.457
429.877
104.579
61.2204
427.294
348.324
152.754
47.3747
61.6309
42.9062
696.335
274.126
463.562
1232.3
240.422
95.1578
79.8443
776.98
408.617
63.1625
87.5694
102.083
333.115
60.7934
47.6185
88.2562
81.5819
784.228
289.804
224.451
245.67
324.858
329.19
162.382
90.6735
839.086
459.701
716.858
201.588
333.341
656.491
150.598
57.6923
107.465
58.1492
59.2463
78.5063
76.7283
136.344
302.868
84.9046
178.847
182.076
146.915
113.034
191.419
113.242
102.623
128.523
754.704
1129.16
447.856
69.4266
118.698
82.6612
264.027
575.386
156.527
613.709
80.799
497.804
433.323
176.008
47.4982
43.9968
70.3137
63.7717
698.395
95.0713
58.4047
490.988
72.6792
869.043
454.571
107.695
456.918
63.5523
45.8967
46.5382
43.1808
97.558
61.9124
91.2931
130.602
73.5853
45.9119
144.111
676.211
535.804
44.2303
106.375
49.301
62.5466
56.7235
687.855
48.9126
54.8513
52.9132
104.259
46.1837
54.3261
99.0154
56.5498
58.4241
53.1665
239.513
44.2849
57.771
133.337
410.794
306.459
63.4629
543.209
725.313
54.2931
52.813
165.065
79.0314
311.554
73.9279
91.4217
82.3832
280.078
68.173
91.873
1035.74
494.482
87.2277
631.952
46.4203
46.2502
61.8553
45.9832
47.4839
70.7142
53.8382
80.4919
213.082
88.9939
359.928
251.808
218.618
81.5177
43.7154
580.37
131.224
83.5507
550.465
101.995
686.601
62.8573
425.052
44.6845
182.379
86.8738
225.799
47.3342
85.8316
77.6857
665.292
49.0445
43.3484
183.522
81.2827
135.044
60.8746
72.6932
91.5375
47.653
141.197
48.7173
63.7929
147.483
93.7926
301.646
68.8529
45.7197
61.4006
45.219
52.155
292.597
43.2683
95.638
43.7399
220.937
115.717
50.3296
111.867
111.949
56.9892
72.5796
76.1732
129.032
149.617
51.4249
48.362
91.0701
67.7928
286.63
614.775
508.871
60.4462
45.763
58.2794
65.3182
90.266
924.367
237.612
63.6667
53.2199
78.0492
46.7263
48.4558
77.0555
153.334
196.802
511.262
373.966
57.0148
77.1577
74.4779
43.4484
224.738
72.6206
114.113
113.304
49.9026
991.36
77.2767
57.988
70.7274
72.8345
159.586
624.727
45.0391
472.899
54.6828
740.07
123.321
530.536
70.3129
44.3233
60.5229
104.678
49.1246
48.5088
125.345
44.8473
44.23
54.6982
60.9074
236.93
53.4226
758.778
71.0617
60.2898
156.438
171.477
48.3933
416.123
964.804
747.804
516.289
440.421
55.3283
380.616
292.157
73.5033
57.3885
53.2856
669.342
90.5867
96.0019
48.6484
78.1035
303.35
767.745
160.435
86.2154
45.4856
65.7858
231.006
46.0361
56.0992
608.493
451.914
250.705
772.243
74.7421
46.8467
69.4051
81.9408
1142.23
50.5304
46.0979
43.5624
272.68
46.922
50.3749
91.7326
100.859
44.897
113.502
46.1776
145.079
86.4229
141.842
51.0476
237.228
87.7676
112.014
164.872
110.822
240.445
49.0011
624.554
94.2456
308.562
318.419
359.036
85.8363
125.958
206.274
66.273
44.9656
51.0126
54.0593
86.5264
571.768
116.239
46.3502
82.811
64.9436
48.8215
120.535
62.2501
134.519
102.234
46.8335
98.5184
48.903
78.9705
290.008
579.913
71.6254
99.8477
80.4486
103.728
525.367
331.116
457.992
849.661
141.877
46.6456
48.2336
44.0415
104.979
833.912
79.7897
768.618
119.82
44.9961
117.313
451.161
46.0942
46.4085
55.7683
75.1103
60.065
287.689
76.2678
91.3257
313.853
51.519
96.9195
65.8938
128.875
165.548
51.2627
683.967
82.0804
110.512
55.479
123.838
46.0769
131.007
123.23
93.669
91.7634
80.4734
66.7552
69.7624
50.2858
226.549
62.1528
50.3496
115.441
198.427
230.468
153.912
98.6646
111.905
192.254
71.4811
287.751
123.305
134.335
101.351
102.017
144.278
75.1841
135.18
430.682
99.5759
53.6719
48.8815
303.219
89.9812
101.914
49.8743
101.452
87.2288
48.2102
94.1725
411.958
95.6331
72.2652
86.2436
668.247
75.9918
90.8552
147.676
58.6977
155.822
47.8283
769.027
85.576
79.0719
83.015
55.2331
113.95
55.2277
516.173
43.6964
76.9836
658.958
59.6829
110.064
199.019
100.107
49.0162
585.056
59.3857
45.1939
101.743
130.96
60.7343
331.395
45.0951
350.229
99.1012
43.9538
70.7216
116.884
734.435
183.926
72.1951
44.4804
131.591
407.871
285.983
116.733
123.652
988.948
213.909
304.036
127.868
82.0799
102.622
59.7945
519.506
1055.3
152.996
162.609
100.198
1039.54
466.963
550.592
407.14
184.786
64.3951
51.0794
152.802
73.7495
554.489
311.222
76.7868
865.705
107.13
105.537
71.705
50.665
105.711
87.7473
91.0319
80.6598
148.855
184.326
884.74
57.3931
119.109
644.868
618.938
182.268
177.624
62.1016
628.372
47.5911
65.8893
345.653
148.443
44.0985
334.681
432.592
72.4328
123.96
48.3856
94.4183
55.837
80.9262
173.906
81.7856
616.389
43.9235
50.6225
87.1514
480.053
172.342
123.349
163.846
338.119
121.779
78.625
433.203
108.408
69.5482
234.424
799.719
261.192
59.7138
367.639
160.407
93.2013
65.9683
128.746
47.1088
115.877
80.1097
73.9383
64.9434
60.0823
86.5311
43.9514
43.7335
49.4743
100.244
49.7429
160.566
391.559
738.318
96.021
86.6083
59.4902
49.2806
103.098
651.547
52.0774
143.265
71.7335
228.554
67.5141
130.892
225.588
425.199
47.8252
57.3837
274.712
53.0403
70.5561
131.193
93.2718
398.215
86.7995
258.043
464.779
221.382
647.596
196.629
380.315
94.5791
156.618
147.002
53.838
483.206
134.221
85.2677
172.263
98.7208
89.9945
43.997
52.5213
49.7887
45.1948
87.6331
342.139
43.2283
952.995
111.368
346.614
114.548
373.676
1172.49
54.7577
251.661
848.263
144.297
346.115
77.1399
69.8192
778.494
1007.19
286.211
169.059
52.5023
445.451
103.602
621.612
53.2177
54.0382
242.154
1024.26
60.8677
83.4847
51.0762
235.439
531.639
47.9337
475.577
203.338
541.038
721.217
49.6791
341.351
74.3771
690.964
333.174
200.441
405.488
282.614
518.907
346.977
230.795
82.4483
78.1022
75.0151
49.0604
53.8361
1405.57
73.8953
109.458
78.0631
82.6256
133.476
1145.68
146.336
236.549
298.278
152.094
278.268
125.653
44.5256
79.0071
1035.72
638.112
317.918
193.842
246.864
88.07
484.191
61.8706
257.836
325.901
57.9401
546.198
94.3969
297.126
317.9
163.343
233.013
236.763
151.635
50.7367
137.226
61.2353
550.952
72.7465
197.12
83.1351
263.968
55.5582
67.2155
332.444
121.143
294.468
45.0944
1358.3
46.1451
59.3924
57.2716
55.1179
95.8704
519.946
172.678
96.0205
663.821
74.6576
49.2954
57.4912
877.476
79.9431
98.5117
852.17
355.164
912.329
547.96
167.478
226.76
157.824
186.074
741.093
65.7387
449.065
135.108
66.3924
180.531
64.8676
150.162
75.3918
621.089
457.917
563.237
363.827
273.631