/*--------------------------------*- C++ -*----------------------------------*\
| =========                 |                                                 |
| \\      /  F ield         | OpenFOAM: The Open Source CFD Toolbox           |
|  \\    /   O peration     | Version:  2506                                  |
|   \\  /    A nd           | Website:  www.openfoam.com                      |
|    \\/     M anipulation  |                                                 |
\*---------------------------------------------------------------------------*/
FoamFile
{
    version     2.0;
    format      ascii;
    arch        "LSB;label=32;scalar=64";
    class       volVectorField;
    location    "0.0626374";
    object      U;
}
// * * * * * * * * * * * * * * * * * * * * * * * * * * * * * * * * * * * * * //

dimensions      [0 1 -1 0 0 0 0];

internalField   nonuniform List<vector> 
47425
(
(10.1989 0.176352 0.00225691)
(10.0593 -0.177648 -0.00299548)
(10.021 -0.0112098 -0.0119386)
(11.5349 -0.528154 -0.227396)
(12.5211 0.39073 0.745986)
(10.0552 0.0144833 0.0048765)
(12.4172 0.238211 0.728213)
(10.0473 0.01663 0.00318459)
(10.0048 0.00865036 0.00577314)
(2.16368 4.60197 -1.29527)
(10.0272 0.0163092 0.00121794)
(9.97831 0.0584905 -0.00316055)
(12.2068 0.353351 0.271313)
(10.0312 -0.00246488 -0.00513734)
(11.1061 0.234424 -0.138362)
(10.1253 -0.212625 -0.0241289)
(10.0424 -0.000502121 -0.00646341)
(8.77272 -0.537957 -1.4936)
(8.70301 1.31678 -5.06737)
(13.5844 -0.477753 -1.0468)
(10.9056 -0.715218 -0.606764)
(9.80869 -0.0424227 -0.0301123)
(9.96127 0.0265595 0.000462499)
(9.9801 0.0138858 0.0100003)
(9.90757 -0.0860549 -0.0130497)
(10.0015 0.0282712 -0.0128293)
(9.99067 0.0271786 0.000269772)
(11.5136 -0.357866 -8.87272)
(10.0015 0.0287497 0.000697332)
(10.031 0.0157178 0.0108046)
(9.72716 0.727662 0.0382101)
(10.0348 0.100762 -0.000556277)
(10.0016 0.00673146 0.00605551)
(9.99879 -0.00161997 0.00707741)
(9.98981 0.00872463 0.00202741)
(9.94975 -0.00741805 0.0115612)
(9.75319 -0.0188371 -0.0769854)
(10.0017 0.0166867 0.00769884)
(10.5512 0.402752 0.00429762)
(10.0521 0.0523043 0.0052617)
(9.86433 0.115459 -0.00145356)
(9.488 0.258193 -1.11102)
(6.04382 -2.51993 -1.29145)
(9.9834 0.0133655 0.00526513)
(-0.147757 -1.45515 0.68316)
(9.98053 0.0714642 0.0137381)
(9.9712 -0.00741019 -0.0191214)
(9.99566 0.0296883 0.00566181)
(10.0808 -0.0447317 -0.00586637)
(10.063 0.0234429 -0.00350796)
(2.15165 -0.573495 -5.87259)
(9.01392 1.10828 1.46213)
(10.0381 -0.00770159 0.00494807)
(6.84153 -5.41435 2.23195)
(9.99271 0.0289776 -0.00893033)
(10.2056 0.011177 0.0477806)
(10.2181 -0.144544 0.0350438)
(10.0392 0.00244653 0.0258336)
(12.138 1.35409 1.60482)
(9.99255 0.0216422 0.0168545)
(5.50666 -5.37074 1.6724)
(5.17797 -0.497195 2.38694)
(4.60804 -3.4419 0.757949)
(9.09827 -1.17593 -0.0705247)
(10.0074 0.0106651 -0.00684606)
(10.8234 -0.330124 0.0189933)
(9.98818 -0.0127478 -0.00647331)
(10.6806 0.116405 0.534903)
(8.334 -4.7373 2.42935)
(9.0257 0.546671 0.329923)
(10.8169 -0.586387 0.154912)
(10.0533 0.00473398 0.00693777)
(10.9626 -0.125787 -0.0184206)
(10.8418 0.257111 -0.630573)
(4.30091 2.02525 0.550752)
(9.99892 -0.00377523 0.000658935)
(4.82099 -3.12822 1.49233)
(9.98655 -0.0180724 0.00644948)
(7.32819 -3.38268 1.72628)
(11.8957 0.0274767 1.59733)
(4.61958 1.43313 0.652381)
(10.2222 0.324365 -0.0109895)
(9.18548 0.121358 -0.299358)
(10.0129 0.0134769 -0.00673705)
(9.77286 -0.00273811 0.123034)
(10.2611 -0.0730595 0.0181944)
(10.7558 -0.150461 -0.0336534)
(10.1481 0.0964223 -0.0176698)
(11.0821 0.343627 -1.69964)
(11.0042 -0.527396 2.23098)
(9.7779 0.426203 -0.0424388)
(10.6529 -0.0014412 -0.0304367)
(10.0526 0.0142952 0.0101958)
(10.1522 -0.0634218 0.00819987)
(10.0977 -0.0599821 0.0153745)
(10.0429 -0.00645263 0.00826771)
(10.0456 -0.0245694 -0.0183403)
(10.2965 -0.288902 -0.00448636)
(10.1803 -0.0268226 0.0132478)
(10.0329 0.0174209 0.0337144)
(10.0268 0.0361037 -0.0015713)
(8.76631 0.114013 -4.10475)
(10.2871 0.18864 0.0151827)
(5.314 1.97711 -0.717245)
(10.301 0.144925 -0.0338199)
(10.6304 -0.774957 0.118577)
(10.1113 0.216847 0.0519757)
(10.1426 -0.0559086 0.00998439)
(9.11704 -0.0940478 -0.165946)
(9.94302 0.0696511 0.00731539)
(-1.13133 -1.92194 -0.441591)
(10.0255 -0.0879854 0.0161834)
(10.5771 -0.963313 0.201224)
(10.2739 -0.021308 0.00549253)
(10.9124 -0.463063 0.072382)
(1.80481 -4.21094 -5.87106)
(10.9096 -0.42392 0.0549492)
(4.08779 0.0284199 -4.40848)
(10.3702 0.16594 -0.00406637)
(11.1092 0.369407 0.464074)
(10.3537 -0.0530852 0.00400707)
(10.0002 0.00389789 0.0056911)
(10.0012 0.0516139 -0.00294732)
(11.7903 0.770145 -0.679618)
(10.0884 -0.0592847 0.00103331)
(10.853 -0.851297 0.155502)
(10.1942 -0.0918044 0.00384647)
(10.0073 0.00388342 -0.0069012)
(9.95256 -0.00764228 0.00222567)
(9.99416 0.0287974 -0.0150167)
(9.21926 -0.318232 0.331566)
(10.4872 0.46798 -0.0377332)
(4.29009 0.0495311 0.515184)
(10.343 -0.47439 0.0348141)
(9.93392 -0.286201 -1.13028)
(12.0759 -0.518229 -0.898991)
(10.9532 0.822885 0.270098)
(10.8746 -0.86872 0.293027)
(10.1482 -0.0989031 0.00707261)
(11.1182 0.0435094 -0.0456818)
(9.9822 0.00605946 0.00265419)
(12.2712 0.204159 0.274736)
(10.5135 0.0433756 -0.04688)
(10.6286 -1.2312 0.276063)
(10.209 0.225147 0.00738777)
(10.0047 0.00519958 0.00581973)
(12.1642 0.136522 0.98693)
(10.0157 -0.0276903 0.00277126)
(10.4775 0.0241873 -0.0243008)
(9.97577 -0.0168749 0.00658128)
(10.5485 -1.27303 0.140229)
(2.94348 -0.377142 -6.91345)
(10.0073 0.014809 -0.00990611)
(5.67128 0.0854763 -11.5032)
(9.00797 -1.1718 -0.742268)
(9.96741 0.0668133 0.00553123)
(10.9649 0.433439 -1.67771)
(7.47955 -3.90164 -2.64284)
(10.0909 -0.0529516 0.0218063)
(9.99888 -0.031582 -0.00626545)
(11.184 -0.30982 0.0385248)
(10.007 0.0375085 -0.00444562)
(10.0054 0.00810036 0.0326922)
(10.1623 0.294753 0.0211501)
(12.2051 0.168832 -0.395902)
(0.0482558 -1.78511 -2.08451)
(10.011 -0.0274311 0.00329528)
(4.69188 1.84969 0.517754)
(9.94984 -0.0140849 0.020424)
(12.2238 0.707613 -4.29056)
(5.71558 1.4174 0.227887)
(9.98609 0.000487739 0.00545884)
(10.0012 0.0235168 -0.00328831)
(9.4751 -0.980498 -0.652086)
(10.2366 -0.0304186 0.0400196)
(9.32069 -3.04982 -1.33393)
(2.77877 0.985164 -7.66467)
(10.0043 0.0267648 0.00257715)
(10.0233 0.0213638 0.00621613)
(10.0488 0.0133478 0.00135728)
(2.6148 0.442045 -11.0037)
(10.0511 -0.108815 0.0131971)
(10.0092 0.022712 -0.00181838)
(10.0081 0.0126456 0.0137141)
(10.0414 -0.0111438 -0.00107503)
(10.0271 0.0203508 0.00364818)
(10.2147 0.0843022 -0.0143324)
(5.66708 -0.494307 -0.653126)
(9.845 0.0033642 -0.0120548)
(10.1143 0.149682 0.0466731)
(10.0008 -0.00994604 -0.00353399)
(9.97746 0.000556298 0.00414755)
(12.257 -0.538119 -0.768774)
(9.99698 0.00166532 0.00374098)
(10.0105 0.0105885 0.0309713)
(11.1311 -0.0452569 -0.0226706)
(10.0018 0.00104538 0.00749656)
(9.99594 -0.00332198 0.00619914)
(11.3002 0.0163153 -0.0175286)
(10.303 -0.251497 0.0666167)
(9.97326 0.00505888 0.0107374)
(10.3477 -0.0360846 0.0107658)
(9.53727 0.198149 0.0305161)
(11.0802 -0.198264 -0.0194376)
(10.2889 -1.4857 -0.916255)
(10.6167 -0.0141768 -0.0438276)
(10.0032 -0.00561825 0.012088)
(11.0639 -0.0981055 -0.0240176)
(10.0064 0.0963083 -0.0116556)
(10.0025 0.0130422 -0.00323516)
(10.263 -0.154785 0.0155616)
(11.0658 0.105408 -0.013641)
(10.0066 0.026471 -0.00114014)
(9.98402 -0.00963768 0.0270892)
(10.6798 -0.0637517 0.0380138)
(11.3364 0.0220373 -0.175274)
(10.7709 0.0177229 -0.0628429)
(11.0171 0.22201 1.76661)
(8.74738 -1.28463 -0.660706)
(9.94951 -0.0299734 0.0101028)
(11.7928 -0.389439 1.69722)
(11.1066 0.159683 0.183693)
(10.0135 -1.48492 -0.949046)
(10.8457 0.127514 -0.0149303)
(10.6163 -0.00937005 -0.0318693)
(11.8722 -0.641983 1.62009)
(10.0338 0.0151344 0.0025523)
(11.2517 0.0345925 -0.0721936)
(11.4296 0.286357 0.153944)
(11.947 0.155298 -0.291889)
(10.7778 0.0173196 -0.0665752)
(10.0228 -0.0302657 -0.0101981)
(10.4437 -0.0995028 -0.00898356)
(10.0011 -0.0043113 -0.000438368)
(9.7791 -0.00653734 0.00374197)
(10.0265 0.246092 0.000975112)
(11.7107 0.106778 1.65319)
(9.98125 0.0418122 -0.00368042)
(12.0304 0.141562 1.47335)
(9.75576 -0.00152913 -0.0304017)
(9.85403 -0.0148825 0.0073521)
(10.0058 0.0125831 0.0136561)
(10.0529 -0.0177223 0.0116003)
(11.8333 0.665775 0.0423828)
(10.4346 0.411684 0.0389175)
(10.0076 -0.00277421 0.0119831)
(10.3046 -0.0654827 0.00845245)
(10.0107 -0.000395948 0.00318444)
(10.0283 -0.0162778 0.00419147)
(9.97768 0.0013856 -0.00890555)
(10.0035 0.0420347 0.000425147)
(11.8719 -0.290969 1.63322)
(9.94453 -0.0106006 0.00592713)
(10.0032 0.00426645 0.00574869)
(9.92607 -0.0104763 0.00991196)
(9.94847 -0.00564092 -0.00191441)
(9.85017 0.087856 -0.0211723)
(9.7415 0.00241147 0.00866489)
(10.4301 -0.634206 0.134761)
(10.0099 0.00110266 -0.00690292)
(9.74133 0.00926946 0.00240517)
(9.99833 0.0241587 -0.000576861)
(10.2341 0.0623551 -0.0162804)
(10.134 0.0175159 0.0121293)
(11.771 0.10174 0.812454)
(10.1961 -0.509588 -0.106329)
(10.0208 0.00586628 -0.0247365)
(11.8516 0.115525 0.647155)
(10.013 -0.00282256 -0.0110008)
(10.2616 0.0743374 -0.0202664)
(10.204 0.0596384 -0.00526416)
(12.1067 0.258694 1.21253)
(11.5788 0.252081 1.44093)
(10.1589 -0.162363 -0.0161468)
(11.9596 -0.0403784 1.57772)
(10.0664 0.0057681 0.0118057)
(12.0316 0.118801 1.40736)
(6.69183 3.37761 2.2659)
(11.5456 0.13698 1.5222)
(5.9052 1.2794 -5.18981)
(4.66932 -5.43223 1.52985)
(10.1952 0.155881 -0.00175342)
(3.96498 -5.36825 0.847186)
(9.87902 -0.0047383 0.0154408)
(9.99179 0.00644091 0.00866117)
(11.2899 -0.154324 0.0469129)
(9.89359 -0.00306421 0.0229305)
(9.9788 -0.011129 -0.0147434)
(9.83849 -0.174881 0.00839907)
(10.9404 -0.576098 -0.0500679)
(1.40627 1.74335 -3.59296)
(9.24044 0.795565 0.027233)
(10.0029 -0.00159153 -0.00212329)
(10.0029 -0.00167072 -0.0128194)
(10.0165 -0.0137061 -0.0185846)
(10.2924 0.361778 0.441973)
(11.7933 0.774102 0.226332)
(10.2093 -0.681114 0.13427)
(10.0406 -0.145759 0.0219814)
(11.8456 -0.130042 0.207942)
(10.0735 0.154404 0.0214988)
(10.0672 0.0233627 0.0254962)
(9.96481 -0.00709286 -0.00331182)
(10.0282 -0.0175176 -0.0109305)
(10.6097 4.08141 -0.456457)
(6.19956 1.80381 -0.155896)
(1.49978 1.18804 -6.26943)
(10.0034 0.00540663 -0.0152285)
(10.0775 -0.0499585 0.0190017)
(10.0626 -0.63212 -0.0250057)
(10.1653 -0.522765 -0.159542)
(1.24825 -0.72033 -5.85553)
(9.98631 -0.00555108 -0.0218395)
(9.96004 -0.00910345 -0.0288812)
(10.8687 2.44662 1.07357)
(10.1904 -0.135485 0.0179369)
(9.86627 -0.000886408 0.0064576)
(9.81829 -0.00714863 0.0182219)
(9.91587 -0.00129682 0.0198368)
(12.7502 2.25981 -0.88363)
(11.2219 2.14414 0.967042)
(10.0007 0.178639 0.00321879)
(10.114 0.146656 -0.0152982)
(10.0161 -0.00365708 -0.00889331)
(10.2403 -0.0275315 0.0119245)
(10.0485 0.0053049 -0.00271431)
(10.0893 0.25078 -0.00934124)
(10.1048 0.0536512 0.0045704)
(10.0465 -0.0062287 -0.0110099)
(9.99777 -0.00837335 0.006595)
(11.3905 -0.0356096 0.269696)
(10.0167 -0.107279 0.00294447)
(10.5772 -0.736913 -1.36429)
(9.98868 0.0233428 -0.0102047)
(9.96586 -0.00716813 0.0074594)
(10.011 0.0177862 0.0284586)
(10.0274 0.336456 -0.00661244)
(9.96172 0.112393 0.00545225)
(10.044 0.00515517 0.0178249)
(10.0154 -0.00556316 -0.0147227)
(9.99798 0.253672 -0.0257734)
(10.0091 0.285173 -0.0214912)
(10.1054 0.0705539 0.00708536)
(9.93373 0.28087 -0.0213848)
(10.0357 -0.0202275 0.00195229)
(10.0214 0.0111397 -0.00436068)
(10.0276 0.00745969 0.0182427)
(9.65477 0.438155 -0.185582)
(9.9628 -0.00571624 -0.00958653)
(9.98103 -0.0224858 -0.00441107)
(9.98551 0.23645 -0.0271462)
(10.4211 -0.454381 -0.0531536)
(10.1014 0.246796 -0.00278978)
(9.93986 0.216056 -0.0144837)
(9.98996 0.18727 -0.0284176)
(11.1968 -1.32204 -0.150987)
(9.94574 0.00807482 0.00695549)
(9.21219 0.239613 0.0861823)
(9.9645 0.153463 -0.0183659)
(9.99598 0.0220754 -0.00783727)
(9.5564 0.305774 1.99458)
(11.4665 -0.195256 -0.515648)
(10.0789 -0.015976 -0.00250163)
(9.95801 -0.0085446 -0.0104562)
(10.3557 -0.417949 0.0235161)
(10.6324 0.495706 -0.042562)
(9.81557 -0.00310823 -0.0100319)
(10.0112 -0.00635164 -0.0079404)
(10.0303 -0.145186 0.0184996)
(10.2543 0.727536 -0.105248)
(9.85102 -0.0123861 -0.0113516)
(-0.977176 -1.28645 -0.176426)
(10.6744 -0.0914104 0.0294338)
(10.0823 0.962869 -0.0784408)
(9.97932 -0.00169774 0.00748086)
(10.0766 0.849278 -0.0527923)
(10.7282 -0.129452 -0.977115)
(10.0119 -0.00652394 -0.00158628)
(10.0033 0.00578203 0.00425296)
(9.78502 -0.0113663 -0.0621085)
(10.0113 0.00315931 0.00463037)
(10.0835 0.858961 -0.107704)
(10.1195 -0.0753532 -0.0230153)
(10.006 0.0236859 0.00604933)
(9.9397 -0.013932 0.00593513)
(10.0022 0.0182059 0.00595985)
(10.0178 -0.0109575 0.0104541)
(10.2215 0.18245 0.0107689)
(10.0006 0.00635108 0.00850047)
(9.97958 0.0207094 0.00802303)
(10.5323 0.899672 -0.336163)
(10.3493 1.10622 -0.383212)
(9.95822 -0.00023676 0.00702848)
(10.504 -0.496419 0.0468645)
(9.96706 -0.0222075 0.0209728)
(10.46 0.84346 -0.295142)
(9.96869 -0.0685061 0.0134713)
(9.95694 0.00928402 0.00429603)
(12.2356 0.338948 -0.555726)
(10.0198 0.00756185 -0.0183929)
(10.5772 -0.338463 1.41086)
(10.0444 -0.00580908 -0.00838165)
(10.2645 1.09455 -2.6629)
(9.96675 -0.00439485 -0.0137313)
(10.6567 0.121905 0.0136107)
(9.97061 -0.00611927 -0.0203739)
(10.0196 0.0238757 -0.0181537)
(9.83611 0.0104785 0.00829291)
(10.0355 0.00803689 0.0148243)
(9.98164 0.00474353 -0.0106084)
(10.347 0.98725 -0.29348)
(1.41524 -1.90848 1.21059)
(2.0419 -0.644173 -2.59837)
(10.0685 0.0587424 0.0123765)
(10.3587 1.50277 -0.915372)
(10.7189 0.741731 -0.324973)
(10.8175 0.698925 -0.315833)
(9.99764 -0.0301226 0.0256701)
(9.97667 0.0123849 -0.000743581)
(9.97812 0.0204655 0.0125059)
(9.91287 -0.0066108 -0.0123152)
(9.95561 -0.000337969 0.00344339)
(10.1363 -0.214811 -0.00309958)
(10.8222 0.634996 -0.218352)
(9.96603 -0.0235404 0.00478217)
(10.0358 0.00149513 0.00870541)
(11.4311 -1.21532 0.247502)
(11.516 0.518131 -0.20429)
(11.139 0.568344 -0.171585)
(8.13556 -1.31598 -5.14469)
(-0.0413715 4.19417 0.677938)
(10.5923 -0.301454 0.0589412)
(7.47763 -0.965653 -5.68573)
(-0.100216 3.96967 0.988359)
(9.83082 -0.185324 0.00607365)
(-0.154947 4.11357 0.858483)
(9.12469 -1.03921 1.23532)
(10.0201 -0.0403127 0.00624408)
(11.0587 0.649218 -0.333741)
(11.0071 0.70411 -0.361695)
(11.2944 0.613168 -0.322705)
(-1.16316 3.18045 1.16903)
(10.1483 0.118237 0.00631935)
(10.0127 0.0133324 -0.00582854)
(10.0032 0.00211003 -0.0166287)
(11.3692 0.65137 -0.426053)
(11.2423 0.691689 -0.492117)
(10.0728 0.0120385 0.0225326)
(10.091 0.112446 0.0174735)
(9.8279 3.48818 2.53078)
(-1.05524 3.17187 1.17277)
(12.9934 -0.467054 -3.0903)
(10.0066 -0.014287 0.00812458)
(8.8143 -0.742362 -3.33254)
(10.1163 0.261385 1.2105)
(9.99473 -0.0467704 -0.00195201)
(10.9761 0.449899 -0.0510259)
(12.0163 0.26426 0.282747)
(10.9618 0.361908 -0.0399077)
(9.99504 -0.017726 0.00480732)
(9.9986 -0.00482257 0.00697986)
(9.9829 -0.00673761 0.000637068)
(10.4643 0.387281 0.00360343)
(9.99925 0.00194554 -0.000382972)
(10.0011 -0.0313454 0.0322136)
(10.1577 0.0809242 -0.0281296)
(9.96761 -0.00323111 -0.00637988)
(11.1247 0.218853 -0.0574022)
(10.0245 0.00226335 -0.0133138)
(9.9863 0.0497284 0.0153722)
(9.99657 -0.0190977 0.00155514)
(10.0057 -0.00722994 0.00872874)
(9.95779 0.00562513 0.00614637)
(10.3945 0.32861 -0.00747641)
(10.124 0.0568566 0.0077505)
(10.074 0.00485158 0.0325239)
(11.047 0.233179 -0.0540932)
(9.05422 4.04665 2.05745)
(9.97095 0.0018281 0.000485528)
(11.9971 1.54062 -1.43421)
(9.99723 -0.00810382 -0.00214026)
(10.9205 -0.1235 -0.0474391)
(6.73293 -0.944592 2.16733)
(9.76498 1.42676 -0.616337)
(9.99641 0.0391331 -0.0126412)
(9.83734 1.50737 -0.689309)
(10.0079 0.0260834 0.00487931)
(10.0414 -0.00565601 0.00138167)
(10.0732 1.28848 -0.915022)
(9.9789 0.00110268 0.00971576)
(10.726 -0.19187 0.0412339)
(9.94894 1.18434 -0.640017)
(10.2739 -0.0660945 0.0385447)
(10.6161 0.0622772 -0.273806)
(8.23748 0.285177 -4.20383)
(10.0658 -0.0358469 0.0083213)
(9.63224 1.89861 -0.638093)
(10.0516 -0.00478856 0.0167031)
(9.03808 2.03268 -1.05614)
(10.0963 -0.104994 0.0282998)
(10.0122 -0.0178819 0.0064361)
(10.0027 0.0189735 0.00127775)
(9.98958 0.0135379 0.000212662)
(10.7908 1.05694 0.864288)
(9.96437 0.00904127 0.00151239)
(9.99281 0.0188984 -0.00481822)
(10.0329 -0.0329861 0.00687496)
(9.96687 0.0599551 0.0236625)
(11.1592 0.6339 -0.00479594)
(10.0377 0.0143889 -0.00337725)
(10.0267 0.021567 -0.000124644)
(8.63793 0.282588 -0.618383)
(9.96466 -0.00742845 0.0226181)
(9.8591 0.105676 0.0136259)
(10.08 -0.147525 0.0402681)
(10.0684 0.0167254 -0.00663998)
(10.0855 0.0137727 0.0156233)
(9.96369 0.0260477 0.00856966)
(10.1094 0.0360971 0.0040272)
(10.3514 1.32847 -1.06494)
(10.0037 0.00982026 0.00694731)
(9.98893 0.00455556 0.00282453)
(3.02177 -0.501967 -5.87234)
(10.0182 -0.00665478 0.0114824)
(10.0318 -0.0056034 0.00484843)
(10.0051 0.130463 -0.0315714)
(10.0043 0.0111162 0.00694273)
(12.6534 1.32033 -0.679918)
(12.7654 0.997647 -0.424599)
(9.96281 -0.0138247 -0.00194058)
(9.94339 -0.106383 0.0147797)
(9.89536 0.00158412 0.0189786)
(11.4004 0.0334443 1.27244)
(10.0501 0.0631996 -0.0207271)
(12.7559 1.27331 -0.570456)
(9.99936 0.00633782 -0.0033927)
(-1.41158 -0.745976 1.94361)
(8.17246 -0.550812 -0.716373)
(9.17634 -0.90395 1.82971)
(10.0219 0.00760674 0.0132847)
(12.6947 1.20303 -0.508324)
(10.0609 0.0339435 -0.0171991)
(10.1134 0.117049 0.0200866)
(10.0089 0.00734013 -0.0538951)
(9.72106 0.103853 0.154471)
(10.0251 -0.00123692 0.00773441)
(10.0211 0.0356449 -0.0133728)
(6.58372 -1.23688 -0.496786)
(10.0007 0.000861123 -0.0221196)
(9.95083 0.00696604 0.00616453)
(10.0039 0.00451621 0.019057)
(12.5406 1.42086 -0.613318)
(10.0518 0.0191462 0.0133456)
(10.0251 -0.00933725 -0.000567677)
(12.3746 1.38136 -0.660952)
(12.2934 0.830502 -0.238046)
(10.0204 -0.00843103 0.0147549)
(10.022 -0.0100156 -0.000228634)
(-0.211004 2.01978 0.623084)
(10.0493 0.00182532 0.00316636)
(10.6681 -0.357133 0.156527)
(9.99632 0.00179803 -0.00368521)
(10.0622 0.0134637 0.0395512)
(10.0429 -0.013253 0.00450447)
(11.9385 0.958517 -0.356789)
(11.2465 0.145775 1.43941)
(9.25211 0.712675 0.803274)
(9.92537 0.0909642 0.14152)
(10.0331 -0.0606406 0.0180372)
(10.0139 0.00535296 -0.0178597)
(12.6456 -0.469662 0.11302)
(9.30943 0.214642 -0.428276)
(9.7758 0.0655837 -0.0245217)
(-0.0944843 1.81322 0.4061)
(10.0238 -0.0282908 -0.0138562)
(10.0306 0.01347 -0.00999501)
(-0.519897 1.71209 0.619784)
(12.1235 1.79075 -1.19013)
(9.88369 0.0804072 0.0105818)
(0.0364032 1.93452 0.424998)
(0.0192128 1.9712 0.606295)
(9.99797 0.023354 -0.00934843)
(9.99809 0.0136856 0.00156543)
(10.0327 0.00604874 -0.00781673)
(9.61476 -0.367417 0.00999944)
(9.99852 0.00559514 -0.00536258)
(9.97723 -0.0102585 -0.00594047)
(10.9124 0.417222 -0.140906)
(10.0018 0.260849 0.0228458)
(9.94007 0.0291383 -0.00182282)
(10.0484 0.00809076 0.0256368)
(12.6031 1.10055 -0.25373)
(11.853 1.25269 -0.357912)
(9.96928 0.00980432 -0.00036258)
(10.4427 0.378927 -0.0323575)
(-4.16937 -2.58387 -0.236672)
(-1.57254 -2.80349 0.888312)
(10.8071 0.402907 -0.131193)
(9.94939 0.000385578 0.0129741)
(10.2897 -0.0975565 0.114819)
(10.9832 -0.112309 -0.759199)
(9.86777 -0.000122561 0.0055628)
(9.86684 0.00143626 0.00590313)
(10.049 -0.0234897 0.0167035)
(10.3383 0.140917 -0.00317303)
(9.9797 -0.0131407 0.00685064)
(10.7934 0.23904 0.302552)
(10.0012 0.00149752 0.00198744)
(13.0357 0.812572 -0.621007)
(10.3321 1.51407 -1.15973)
(10.7189 0.383857 -0.0682762)
(13.0629 1.00063 -0.955359)
(10.0817 0.044484 -0.00498683)
(9.99554 0.00576195 0.0104516)
(10.4434 0.759719 0.144715)
(10.1708 -0.10918 0.0272777)
(10.0158 0.0105101 0.00399812)
(10.0047 0.00696002 -0.00320668)
(11.1088 0.644491 -0.53805)
(7.96525 -0.783908 -1.49658)
(10.0187 -0.00646137 -0.00586858)
(10.9183 0.150312 0.0159276)
(9.97668 0.171319 0.0270171)
(11.5945 -5.34016 -2.2912)
(10.4821 -0.877913 0.883634)
(11.6504 -0.0360877 0.94659)
(6.48314 0.612942 0.297655)
(6.25897 0.577423 0.141892)
(10.0618 0.0129305 0.00533067)
(9.89853 0.213452 -0.0262129)
(4.71311 0.463711 -0.189382)
(10 0.014097 -0.000832153)
(10.0343 -1.74374 -3.54295)
(7.46779 0.472184 2.09676)
(9.98445 0.00127484 -0.00230316)
(10.002 0.900254 0.518257)
(10.0099 -0.00985586 -0.00312117)
(10.0304 -0.00189903 0.0173849)
(10.0182 0.000846388 -0.00061475)
(13.2778 0.46941 -0.113143)
(9.9766 0.0104776 -0.00392905)
(9.98474 0.00443847 -0.00121259)
(10.0464 -0.0242966 0.00225818)
(9.84775 0.000971558 -0.025786)
(10.04 -0.0178727 0.0233365)
(10.0146 -0.00520346 -0.00513256)
(10.0469 0.0142853 0.0191669)
(9.92648 -0.0292494 -0.00277425)
(11.0836 1.10389 0.689714)
(9.60628 -0.362824 -2.78499)
(12.6766 3.59552 1.66704)
(10.7874 0.495551 0.0263305)
(9.69255 1.46598 1.34269)
(10.0325 0.0152758 -0.000356788)
(9.33085 -0.995889 0.0674839)
(9.98194 0.0151035 0.00273475)
(10.0004 0.00173722 -0.0101947)
(10.003 0.00364254 -0.00788444)
(9.9997 0.00130285 -0.0072992)
(9.98468 0.0177227 -0.00413997)
(9.18092 0.395657 -0.89411)
(11.2468 0.714419 0.224832)
(9.9862 0.0137604 -0.00510158)
(10.2157 -0.555362 0.0914251)
(11.3596 1.59166 1.98155)
(10.0021 0.022721 0.00141335)
(3.13773 0.396335 1.39466)
(13.2493 -0.99119 -2.9991)
(9.96618 0.00104294 -0.00894499)
(9.34271 -0.579376 0.0182233)
(10.4347 0.0257503 0.0293168)
(10.0196 -0.00301612 -0.0162524)
(3.70005 1.1609 1.06604)
(10.0087 -0.00676982 -0.00512224)
(7.02989 -2.59316 0.434501)
(9.98974 -0.00135271 -0.00210181)
(11.6396 -0.0837648 1.14983)
(12.0608 0.418552 0.0014131)
(9.97179 -0.025856 0.000270702)
(9.94151 -0.00881114 -0.010043)
(10.1793 0.583513 0.049379)
(8.62706 -0.623163 -2.32555)
(9.93479 -0.00927949 0.0147939)
(10.0284 0.0154298 0.0119309)
(10.2816 0.00280626 0.00953731)
(12.1042 -0.0755725 0.780766)
(10.0013 0.00397024 0.0021667)
(12.3015 0.368306 0.294461)
(10.426 -0.0190293 0.0116302)
(0.714336 -0.62728 0.0908498)
(12.0058 0.346041 0.110065)
(10.3593 -0.009631 0.0106122)
(12.1249 0.355907 0.226516)
(10.0006 -0.0034302 -0.00358421)
(10.1158 -0.117941 -0.00772535)
(10.5316 0.4004 0.0227765)
(10.3942 -0.0470409 0.0010895)
(12.3167 0.440544 0.117525)
(9.99872 -0.0206381 0.000159991)
(10.068 -0.219543 -0.00623861)
(12.158 0.415169 0.065233)
(9.97455 -0.0295791 -0.00121408)
(10.4372 -0.0547788 0.00682292)
(9.99498 -0.00337237 -0.00939287)
(10.0247 -0.00858738 0.00452209)
(6.90743 0.350217 -5.23096)
(6.73047 -0.151444 -5.83112)
(9.70776 0.0905128 0.372549)
(8.84928 0.341106 -4.26051)
(9.99942 -0.00734293 -0.0124904)
(9.97817 -0.00291273 -0.00346757)
(10.8238 0.652338 -0.254435)
(10.4162 -0.163381 0.0273839)
(8.08512 0.140137 0.350994)
(10.0202 -0.0303577 -0.0141279)
(10.0522 0.0301227 -0.0133966)
(9.97615 -0.0239447 -0.00388322)
(10.0055 0.0411432 -0.00390911)
(5.29204 0.228699 -6.49653)
(3.31955 -0.617899 1.51877)
(9.96583 -0.0221147 -0.00291959)
(10.017 0.0431887 -0.00473587)
(9.99386 -0.0607562 -0.0155467)
(9.9301 -0.0128797 0.0046165)
(10.1527 -0.142505 0.038329)
(9.95946 -0.0254614 -0.00251736)
(11.2364 -0.0587647 -0.00763833)
(11.7823 -1.3575 1.51699)
(10.1092 0.00920564 0.00926667)
(10.0452 0.0288176 -0.0240496)
(9.99799 -0.0300242 -0.0130283)
(10.0117 0.0304951 0.000751952)
(9.72232 0.215683 0.0316547)
(10.0149 -0.0275419 -0.0148024)
(10.6607 -0.187569 -0.00379897)
(9.95928 -0.0174749 -0.011514)
(10.0125 0.0174311 -0.0159357)
(10.0613 0.0364037 -0.00552573)
(9.26952 -0.880934 -1.28987)
(5.1795 0.701477 -4.90105)
(10.0529 -0.0708168 -0.00993444)
(-0.106688 -2.02297 0.442217)
(10.0928 -2.61116 0.998035)
(13.1908 -1.24163 -1.12891)
(-0.105204 -2.14424 0.368546)
(10.3225 0.0507234 0.0211458)
(5.38864 -0.278398 1.58286)
(10.5356 -0.495377 -2.63103)
(10.9565 -1.56116 0.400377)
(5.70247 0.30495 -3.86488)
(-0.310373 1.84094 1.05402)
(1.51581 0.636123 -3.68452)
(11.3646 -0.0434279 0.608168)
(10.7461 -0.0171065 -0.0562964)
(11.1249 -0.00168992 1.31334)
(9.91685 0.00647317 0.00657322)
(3.73335 -0.224519 -0.380924)
(10.8237 0.0329739 -0.340592)
(10.6733 -0.0234773 0.0154428)
(9.9881 -0.0407109 0.0261326)
(10.0103 0.0214515 -0.042334)
(11.4202 0.0201477 1.20126)
(9.97041 0.116532 0.0567865)
(10.1788 -0.0402707 0.0158041)
(9.9531 0.0381762 -0.00578151)
(-0.875221 1.13155 0.280136)
(8.11906 0.253339 -2.54985)
(10.0153 -0.00670213 0.00682861)
(9.98446 -0.00477806 0.00436605)
(5.04575 0.288198 -2.48742)
(5.94365 0.141824 -3.14543)
(10.8707 -0.947579 -1.42601)
(-2.7107 -2.99734 -1.05074)
(4.50589 0.287555 1.96347)
(4.06558 -0.00912827 -3.98315)
(3.79548 -0.0713392 -4.84527)
(10.0055 -0.00407212 0.00995232)
(9.79426 0.00267157 0.00708105)
(9.46424 -0.0307861 0.051121)
(10.012 -0.0107173 -0.00365086)
(10.4156 0.0417053 -0.0267811)
(-0.370504 1.99744 0.571629)
(10.9591 -0.0659391 -0.26007)
(10.4695 0.0366981 -0.0313883)
(10.3422 0.0404049 -0.0170032)
(10.0525 0.0239234 -0.00265144)
(-0.314041 1.94194 1.27588)
(-0.502281 2.11374 1.23395)
(10.0477 0.0176539 -0.0203738)
(10.4274 0.0044192 -0.0425808)
(9.93107 0.0240808 0.00576663)
(10.021 0.00823225 -0.0115222)
(10.3728 0.0193331 -0.0205788)
(10.0323 0.0139818 -0.0261005)
(9.7004 -0.00450499 -0.0585339)
(10.0269 0.00670729 -0.0193893)
(10.0181 0.00164852 -0.0135656)
(6.99195 -0.728091 -3.20823)
(10.0436 0.00632441 0.00646478)
(10.0155 0.0164987 0.0226417)
(10.0209 -0.0107733 -0.0170044)
(9.86672 0.0103944 0.00271124)
(9.88375 0.0151978 0.00243696)
(4.27397 -0.532199 -2.51623)
(12.6288 -1.29186 -0.593354)
(10.0177 -7.73084e-05 0.0092905)
(10.8494 0.409922 -0.21421)
(10.0233 0.0338459 -0.0123558)
(9.70722 -0.344731 0.106916)
(9.68273 -0.429013 0.160022)
(12.1792 -0.0573029 -0.0566035)
(9.87971 -0.00163551 -0.00434121)
(-0.173655 -1.07248 1.53353)
(12.2686 -0.143439 -0.0740098)
(10.4758 0.104288 0.00530143)
(10.8146 0.373157 -0.0359551)
(8.13168 0.288838 -3.49582)
(11.3061 2.98854 1.31539)
(9.98054 -0.0204935 -0.00860924)
(9.9827 -0.0214786 -0.00352122)
(11.6502 1.70644 2.10822)
(10.009 -0.024519 -0.0158265)
(10 0.0325581 0.00440525)
(10.9435 0.71173 0.351558)
(9.97156 -0.0226968 -0.00540635)
(9.98353 -0.00301712 0.00151912)
(-2.52115 0.634066 2.01396)
(12.5366 0.483529 -0.084215)
(10.8961 3.42413 -0.344346)
(10.0019 0.000719563 0.00488134)
(7.70529 0.548514 -2.71719)
(9.99431 0.00609764 0.000805616)
(12.0153 -0.13557 -0.301717)
(9.52771 -0.417477 0.262544)
(12.2303 -0.076861 -0.0329591)
(9.90499 0.00385708 0.00441029)
(9.33886 -0.451491 0.224536)
(-1.32217 -0.0989925 2.0264)
(11.6564 1.81958 2.57966)
(12.4615 -0.395732 -0.862923)
(-0.794959 1.57761 1.23613)
(12.1881 0.299175 0.250928)
(10.4968 0.192708 0.0513097)
(9.94914 -0.0164626 0.0116541)
(12.1876 0.0117974 -0.237683)
(9.97355 0.0138031 0.00374249)
(12.3784 -0.0896187 0.127183)
(-0.143771 -1.26606 0.932119)
(9.98025 0.0168406 0.00419774)
(12.8413 0.0509387 -1.24221)
(9.91354 0.0020628 0.0158401)
(9.9012 0.000274078 0.00616231)
(11.3712 -1.52645 0.140519)
(9.92897 -0.00438667 0.00228534)
(10.194 0.117808 -0.0121838)
(8.17238 -5.80561 0.0696295)
(9.53832 0.43593 0.0460853)
(9.98863 -0.244665 -0.0219147)
(12.6812 -0.693736 0.0631815)
(10.5488 1.47948 1.28399)
(10.0221 -0.00923211 0.0230397)
(11.8109 -2.59393 -0.930189)
(5.2607 -0.877352 -0.208985)
(10.7208 0.0326509 0.0194467)
(9.63286 -0.733551 -0.899522)
(10.0097 0.110831 0.02033)
(10.5058 0.198582 0.0170176)
(9.9651 -0.0112295 0.00240551)
(9.9847 -0.0147038 -0.0023716)
(0.416511 1.41346 -0.361961)
(0.990887 -4.45328 1.87963)
(12.313 -0.6798 0.207908)
(10.1632 -1.58258 -0.467529)
(12.3387 -1.17542 -0.376304)
(1.18123 4.58701 1.11461)
(-1.01717 0.617461 0.991178)
(9.42878 -3.61785 4.28249)
(9.98473 -0.01132 -0.00558433)
(10.0027 0.0121713 -0.00951859)
(9.989 0.0141251 -0.00390212)
(9.82594 -0.0463125 -0.0279112)
(3.68646 0.993594 -0.467643)
(9.63634 -0.554328 0.158894)
(8.99652 -0.663905 1.05136)
(9.98762 0.0208819 -0.00900757)
(-0.387593 -1.63836 0.222276)
(12.3164 -0.0745387 -0.00755308)
(10.2052 0.194921 -0.28606)
(10.1075 0.0362304 0.0116891)
(10.0172 -0.026698 0.0103858)
(10.1033 0.0316641 0.0106091)
(6.28238 -1.85158 -3.26835)
(10.0048 -0.00305114 -0.00688959)
(4.97024 4.83433 -0.244402)
(10.0287 0.0100921 -0.00209417)
(10.2764 -0.614237 -3.12314)
(9.98817 -0.00369185 -0.00288752)
(9.99902 -0.00616006 -0.00617635)
(10.0097 -0.00968327 -0.00667723)
(10.0154 -0.00986001 -0.0103268)
(9.9881 -0.011856 0.00328108)
(12.7582 1.32519 0.378659)
(11.8673 0.295439 0.800724)
(8.96886 1.49389 2.42305)
(7.04118 4.08521 2.42433)
(9.38591 1.2035 0.471806)
(10.4238 0.537576 -0.0564544)
(11.2215 1.16887 0.0312475)
(6.63982 -0.423273 -2.97902)
(10.6052 -0.140203 0.0419371)
(12.5027 -0.282565 0.0388872)
(10.5898 -0.759593 0.110692)
(12.0894 0.0334086 -0.0458058)
(8.14303 -0.169565 4.45597)
(5.59875 -1.64704 2.1606)
(10.6168 -0.255469 0.196246)
(9.99942 -0.00943313 0.00503784)
(9.56083 0.918031 -0.317193)
(10.0044 -0.00542116 0.00990912)
(10.165 -0.0133827 -0.00196787)
(13.1552 -2.40533 2.91826)
(12.4008 -0.442889 0.790162)
(-1.56425 3.28499 0.130549)
(10.1401 -0.93139 0.23208)
(11.8377 -1.02437 -0.468636)
(10.5082 -1.07789 -1.17695)
(10.0877 -0.344025 1.64712)
(10.205 -0.0183769 0.0110753)
(-3.95021 -3.25045 1.29628)
(10.0327 -0.00156981 0.00379838)
(10.0965 -0.0100062 -0.00150459)
(10.5693 -0.146362 1.06984)
(9.66811 -0.103556 4.74311)
(10.2299 -0.0304925 0.0156649)
(10.2882 0.542325 -0.424425)
(9.994 -0.00571602 0.00135848)
(10.5742 -1.35834 0.605998)
(10.716 0.0850045 1.30674)
(9.96467 -0.00914429 -0.00255464)
(11.1052 -0.413601 -3.09547)
(10.0115 1.42054 -2.08897)
(12.1853 0.432653 1.51897)
(10.8408 0.485037 -0.14345)
(9.50903 0.129104 0.280661)
(3.14239 0.969405 -3.85802)
(0.422307 3.48589 3.08724)
(5.2866 3.22486 0.723394)
(13.257 -0.827251 -2.85419)
(5.02898 -0.702751 -0.198404)
(9.79421 -0.00270547 -0.0348247)
(9.88723 -0.00686281 -0.00032255)
(8.34217 1.755 2.74304)
(9.95989 -0.00743438 -0.000948227)
(4.51926 -0.798695 -0.290335)
(9.83487 -0.00320644 -0.0209734)
(9.82092 -0.0127032 -0.020898)
(-0.109138 -1.35556 0.953004)
(9.57242 -1.30343 0.831579)
(10.8909 -0.543486 0.128377)
(9.98459 0.00425234 2.17884e-05)
(9.99899 0.0184751 0.00114199)
(8.31914 0.318619 -2.8833)
(10.0215 0.0150953 0.0171677)
(9.95646 0.000631721 -0.00234446)
(9.97499 0.989696 0.950705)
(12.4358 -0.721872 -2.93583)
(10.2327 0.36235 0.0243729)
(9.89736 0.0561919 0.00393183)