/*--------------------------------*- C++ -*----------------------------------*\
| =========                 |                                                 |
| \\      /  F ield         | OpenFOAM: The Open Source CFD Toolbox           |
|  \\    /   O peration     | Version:  2506                                  |
|   \\  /    A nd           | Website:  www.openfoam.com                      |
|    \\/     M anipulation  |                                                 |
\*---------------------------------------------------------------------------*/
FoamFile
{
    version     2.0;
    format      ascii;
    arch        "LSB;label=32;scalar=64";
    class       volScalarField;
    location    "0.0126916";
    object      k;
}
// * * * * * * * * * * * * * * * * * * * * * * * * * * * * * * * * * * * * * //

dimensions      [0 2 -2 0 0 0 0];

internalField   nonuniform List<scalar> 
47425
(
0.369553
0.385056
0.37353
0.365768
0.430731
0.373421
0.412886
0.371796
0.373004
0.694434
0.374343
0.385653
0.393902
0.37128
0.37771
0.377434
0.37278
0.401224
0.786968
0.487692
0.371534
0.370951
0.378467
0.368312
0.379609
0.376698
0.371126
0.730052
0.370789
0.386683
0.391263
0.376122
0.385383
0.37659
0.369142
0.382497
0.374833
0.386023
0.385717
0.365905
0.387194
0.368565
0.379439
0.384969
0.977278
0.392339
0.376861
0.381585
0.378778
0.374281
0.62618
0.401707
0.378221
0.663898
0.391993
0.377607
0.373569
0.390512
0.433314
0.385607
0.673921
0.778147
0.707043
0.387119
0.373673
0.3778
0.377605
0.375638
0.700644
0.40075
0.371731
0.381458
0.376675
0.381289
0.685061
0.375254
0.717831
0.374745
0.740648
0.445635
0.680531
0.376158
0.380248
0.388113
0.372826
0.372918
0.373713
0.365003
0.401149
0.487567
0.37649
0.373618
0.378373
0.384879
0.390632
0.37987
0.369048
0.368334
0.380398
0.384159
0.368591
0.460171
0.374859
0.479634
0.372086
0.381521
0.37405
0.364201
0.366186
0.387406
0.594869
0.368556
0.376409
0.374349
0.375949
0.69231
0.375367
0.588909
0.393208
0.377406
0.365812
0.378106
0.378324
0.395826
0.385347
0.380197
0.372918
0.372214
0.378357
0.379589
0.381739
0.381314
0.516337
0.384749
0.377935
0.401223
0.37962
0.378679
0.382686
0.366699
0.382497
0.388901
0.371455
0.383056
0.376855
0.374224
0.399168
0.370114
0.377771
0.381833
0.381498
0.680182
0.37949
0.687232
0.391191
0.376566
0.398543
0.757607
0.392428
0.379592
0.375822
0.377228
0.376962
0.375844
0.570711
0.696112
0.378637
0.689938
0.380803
0.728996
0.679707
0.392272
0.379385
0.381734
0.390688
0.42764
0.692533
0.373626
0.37791
0.366824
0.677409
0.371374
0.37567
0.381236
0.37119
0.3805
0.377345
0.455235
0.381968
0.374803
0.385328
0.38644
0.416842
0.379553
0.37324
0.376414
0.380429
0.367418
0.376209
0.369238
0.376312
0.384215
0.369745
0.374063
0.39611
0.379698
0.3788
0.375378
0.379624
0.38625
0.379434
0.37754
0.389707
0.377796
0.374365
0.377957
0.38512
0.418071
0.394851
0.390582
0.474663
0.374452
0.378534
0.378798
0.401816
0.465838
0.374745
0.382973
0.384017
0.403871
0.383059
0.376353
0.387503
0.372076
0.377361
0.366928
0.457665
0.38954
0.449689
0.376075
0.36802
0.377094
0.374907
0.377892
0.374808
0.391355
0.366797
0.401751
0.369344
0.383899
0.369044
0.443191
0.378351
0.375916
0.382498
0.378791
0.377469
0.385757
0.365171
0.382445
0.405612
0.400634
0.390122
0.381928
0.386824
0.388165
0.371838
0.387387
0.378429
0.381961
0.390811
0.440533
0.44517
0.382561
0.430432
0.384341
0.433731
0.50001
0.434665
0.546509
0.666282
0.369607
0.654971
0.386529
0.375512
0.374085
0.380481
0.366348
0.387593
0.379435
0.606703
0.397597
0.37276
0.369309
0.373538
0.38067
0.375876
0.381052
0.367085
0.394479
0.390335
0.373139
0.37737
0.376407
0.709991
0.721616
0.666422
0.370252
0.373064
0.381273
0.368502
0.619159
0.372576
0.371436
0.49584
0.382564
0.376573
0.394567
0.37246
0.565158
0.484842
0.379008
0.372352
0.371398
0.387659
0.372839
0.383812
0.372414
0.37767
0.382261
0.375496
0.643845
0.38752
0.371204
0.397828
0.379341
0.643469
0.374144
0.368529
0.378311
0.39085
0.389271
0.370819
0.371356
0.376621
0.382588
0.385063
0.378605
0.376437
0.386918
0.384809
0.383639
0.373189
0.385545
0.380957
0.39955
0.383118
0.377135
0.395832
0.379209
0.422461
0.379709
0.391799
0.380165
0.374977
0.376738
0.38952
0.387027
0.369644
0.38001
0.393125
0.490523
0.363691
0.374935
0.386739
0.374164
0.375551
0.391084
0.383779
0.376523
0.385392
0.375874
0.368702
0.371063
0.379787
0.373538
0.382765
0.370965
0.387263
0.380635
0.381096
0.382358
0.379011
0.380702
0.380635
0.379822
0.368987
0.373008
0.41538
0.376157
0.5313
0.371868
0.640552
0.378891
0.394985
0.391285
0.373437
0.374005
0.367686
0.380836
0.381762
0.874375
0.640935
0.388678
0.392563
0.37624
0.376773
0.37236
0.374211
0.381348
0.375291
0.379959
0.373298
0.369027
0.375275
0.373181
0.408222
0.37865
0.375045
0.515729
0.341097
0.380646
0.608834
0.319383
0.385456
0.390241
0.599196
0.376167
0.377515
0.380219
0.381176
0.551718
0.387699
0.369535
0.372162
0.382742
0.383215
0.382295
0.366837
0.575084
0.55796
0.499782
0.376234
0.443005
0.385165
0.375709
0.37889
0.390856
0.381976
0.377318
0.375456
0.383865
0.382062
0.374694
0.377112
0.380577
0.383288
0.378078
0.372638
0.375367
0.378464
0.375622
0.379364
0.389646
0.378613
0.387478
0.380699
0.604054
0.37381
0.432501
0.38955
0.391985
0.428421
0.388001
0.381443
0.38902
0.395955
0.373341
0.391116
0.394868
0.370673
0.386019
0.37702
0.385925
0.464553
0.369181
0.39911
0.375226
0.411027
0.368167
0.377437
0.374832
0.376417
0.392401
0.378769
0.374626
0.368536
0.369095
0.385055
0.373413
0.377712
0.387536
0.378318
0.370851
0.373463
0.380631
0.376237
0.385599
0.385834
0.392708
0.374761
0.391169
0.650449
0.382728
0.383315
0.380917
0.371727
0.455727
0.459171
0.386482
0.377952
0.388056
0.389399
0.386679
0.471062
0.381309
0.611107
0.402801
0.403659
0.391898
0.463182
0.370454
0.371835
0.373044
0.376291
0.37265
0.376307
0.812572
0.367603
0.400384
0.377324
0.445864
0.390722
0.38524
0.433461
0.426077
0.383266
0.374943
0.310543
0.369589
0.375085
0.375426
0.370624
0.37037
0.410273
0.390668
0.389729
0.373498
0.37467
0.370785
0.502134
0.375337
0.370899
0.317252
0.373151
0.378043
0.40434
0.646535
0.37756
0.207827
0.232369
0.370451
0.400024
0.370074
0.374117
0.396217
0.385526
0.612171
0.389583
0.392587
0.370938
0.448209
0.407608
0.39153
0.378678
0.471381
0.491176
0.371585
0.373934
0.369836
0.380257
0.379297
0.392065
0.37677
0.386535
0.389793
0.378552
0.386898
0.463768
0.396763
0.372957
0.47435
0.381728
0.375989
0.38361
0.379715
0.372084
0.383763
0.377546
0.415972
0.384806
0.376517
0.377708
0.916806
0.392204
0.388464
0.671257
0.652578
0.36745
0.388894
0.595216
0.387424
0.453222
0.411745
0.386637
0.657696
0.380129
0.370734
0.388565
0.458081
0.395319
0.390407
0.376925
0.39886
0.370279
0.372224
0.383974
0.375381
0.389088
0.640509
0.675591
0.396021
0.404428
0.378997
0.385938
0.38907
0.386868
0.388519
0.3908
0.379183
0.380952
0.393838
0.381648
0.375476
0.435496
0.396671
0.668505
0.523458
0.377567
0.392532
0.379197
0.369393
0.649336
0.374604
0.688007
0.381265
0.393524
0.390242
0.367358
0.380158
0.379101
0.413823
0.384065
0.369263
0.403868
0.387985
0.37457
0.40611
0.378179
0.846489
0.38998
0.392731
0.398495
0.375012
0.368278
0.397462
0.367429
0.407472
0.378172
0.373752
0.39514
0.373879
0.370164
0.383394
0.369933
0.493617
0.554629
0.383168
0.464967
0.382107
0.382395
0.370946
0.366096
0.373544
0.382757
0.36981
0.3706
0.377071
0.642094
0.465832
0.367754
0.377475
0.375526
0.377894
0.374137
0.372329
0.376693
0.503632
0.376514
0.369012
0.3758
0.372918
0.368873
0.378639
0.374383
0.372835
0.382028
0.377142
0.388679
0.535479
0.370646
0.349878
0.479847
0.521619
0.264624
0.375358
0.406631
0.40825
0.399384
0.507116
0.30661
0.66631
0.375249
0.375649
0.394374
0.390587
0.535662
0.376536
0.378483
0.372092
0.366789
0.390408
0.388308
0.379388
0.388223
0.379796
0.419584
0.386782
0.385245
0.490872
0.479613
0.414458
0.520637
0.472539
0.5778
0.602045
0.380643
0.394805
0.37565
0.370766
0.371956
0.278105
0.385365
0.367726
0.3788
0.37145
0.324645
0.280566
0.372611
0.398527
0.371244
0.373686
0.390199
0.372368
0.373736
0.375318
0.376668
0.460933
0.372096
0.378011
0.375266
0.384552
0.380281
0.521391
0.457017
0.369387
0.401643
0.378069
0.368861
0.371442
0.39131
0.386838
0.592176
0.373223
0.370822
0.388067
0.43346
0.779409
0.377629
0.375086
0.444992
0.386248
0.37638
0.390609
0.376758
0.387526
0.658737
0.437722
0.720035
0.375726
0.428788
0.370589
0.407344
0.374196
0.377395
0.383776
0.378263
0.655814
0.470796
0.407629
0.521801
0.389254
0.374857
0.383699
0.41464
0.37177
0.379929
0.293295
0.372742
0.417015
0.379491
0.403504
0.685092
0.392903
0.392508
0.53376
0.38927
0.375743
0.444504
0.429678
0.371187
0.447419
0.469547
0.366769
0.379431
0.367037
0.377231
0.37866
0.38142
0.470469
1.94624
0.38777
0.383148
0.455926
0.51994
0.531102
0.558156
0.390403
0.378606
0.392864
0.387217
0.411477
0.374242
0.392717
0.392192
0.341887
0.377194
0.378901
0.375987
0.368179
0.390692
0.50288
0.381593
0.573681
0.37106
0.428052
0.382659
0.378603
0.383349
0.383276
0.391843
0.465159
0.381678
0.42333
0.50529
0.395951
0.391571
0.384648
0.456993
0.372337
0.398036
0.383438
0.40541
0.611657
0.447898
0.370103
0.379813
0.382421
0.375453
0.379011
0.652639
0.452068
0.462166
0.385795
0.407883
0.388338
0.552609
0.380251
0.724011
0.410146
0.395912
0.389859
0.589052
0.369965
0.374816
0.374269
0.393296
0.390692
0.380254
0.436595
0.481703
0.411486
0.371203
0.38656
0.617725
0.677422
0.515813
0.517857
0.65493
0.403962
0.387761
0.444672
0.37151
0.483565
0.378893
0.392249
0.857607
0.391857
0.378718
0.377458
0.402661
0.427161
0.39421
0.365281
0.394708
0.467366
0.374892
0.378846
0.375988
0.392771
0.375206
0.413949
0.379929
0.401225
0.386365
0.384505
0.385418
0.37347
0.367654
0.385088
0.415247
0.480367
0.382572
0.410384
0.377542
0.493428
0.388237
0.377822
0.366662
0.917113
0.543309
0.562054
0.290073
0.393842
0.395957
0.728448
0.316445
0.392244
0.425086
0.380612
0.38326
0.52451
0.374595
0.38181
0.391315
0.407462
0.374554
0.570629
0.816286
0.371748
0.845562
0.372897
0.616802
0.909452
0.367171
0.383488
0.379489
0.542672
0.383843
0.381471
0.397666
0.568666
0.375747
0.438206
0.384165
0.375149
0.368499
0.381615
0.693062
0.700976
0.39254
0.409167
0.387787
0.606753
0.375231
0.369018
0.595571
0.768449
0.381827
0.381792
0.768028
0.940471
0.710133
0.384522
0.446843
0.597604
0.646839
0.387883
0.487555
0.45422
0.384974
0.384699
0.650301
0.752996
0.411916
0.413469
0.375594
0.378194
0.396591
0.385323
0.486541
0.373145
0.371764
0.373931
0.377544
0.582395
0.947146
0.386193
0.591879
0.425324
0.365168
0.485963
0.371076
0.380083
0.380704
0.39394
0.398045
0.375503
0.635911
0.374969
0.743236
0.638363
0.637175
0.409501
0.386052
0.377744
0.388185
0.374846
0.548428
1.06208
0.388237
0.584422
0.542732
0.656258
0.479994
0.780311
0.58608
0.3746
0.376854
0.987681
0.372256
0.379376
0.373556
0.616673
0.507454
0.369526
0.390535
0.578655
0.436227
0.626661
0.598303
0.390511
0.495288
0.880006
0.382407
0.406822
0.637439
0.382042
0.795002
0.756216
0.375419
0.378269
0.381927
0.379409
0.403648
0.367515
0.381949
0.399125
0.384774
0.492195
0.412301
0.391824
0.489711
0.40528
0.755591
0.382068
0.386629
0.393944
0.381547
0.740681
0.36495
0.381841
0.370601
0.867422
0.369304
1.42958
0.390725
0.503034
0.402449
1.09346
0.586292
0.519208
0.424115
0.532247
0.415219
0.373911
0.398406
0.564089
0.583803
0.446161
0.623238
0.394177
0.470721
0.553124
0.391287
0.368995
0.554081
0.512671
0.369151
0.379344
0.376962
0.384519
0.586047
0.627708
0.374056
0.392228
0.377135
0.871367
0.381326
0.625921
0.40958
0.379352
0.382695
0.42672
0.408079
0.568331
0.382584
0.397761
0.428047
0.461601
0.368084
0.7503
0.499965
0.376173
0.752293
0.568052
0.384001
0.506352
0.381062
0.412875
0.727273
0.410601
0.993743
0.541291
0.380372
0.416782
0.403991
0.376757
0.382333
0.434446
0.461649
0.447909
0.370162
0.429747
0.373037
0.421926
0.424824
0.400683
0.398259
0.400763
0.378428
0.718763
0.449608
0.418311
0.526326
0.65611
0.374561
0.494811
0.298018
0.402617
0.402711
0.391207
0.544699
0.474143
0.617996
0.369232
0.667518
0.453707
0.37819
0.422948
0.398518
0.472446
0.382389
0.425597
0.532207
0.367051
0.622383
0.397356
0.854483
0.401568
0.386782
0.391271
0.448101
0.413295
0.432052
0.396317
0.378332
1.01691
0.386819
0.387872
0.802919
0.371859
0.376205
0.604283
0.393049
0.438772
0.994402
0.390268
0.446881
0.383895
0.776168
0.561156
0.492674
0.499151
0.44746
0.396394
0.468253
0.73382
0.95705
0.473486
0.382805
0.391481
0.376202
0.374026
0.390833
0.587899
0.384072
0.369229
0.39443
0.374062
0.392146
0.391165
0.402662
0.416739
0.389822
0.468577
0.376474
0.39782
0.395381
0.377641
0.379997
0.403661
0.399383
0.391767
0.369719
0.384282
0.380508
0.384993
0.397899
0.665625
0.369865
0.392286
0.369717
0.380903
0.508582
0.366445
0.374314
0.391279
0.94962
0.634388
0.382981
0.409851
0.516191
0.377927
0.37295
0.479014
0.369237
0.406328
0.387346
0.39065
0.43525
0.375146
0.413005
0.406078
0.38087
0.365945
0.369722
0.387117
0.507863
0.378056
0.408703
0.693932
0.380433
0.487167
0.432437
0.691897
0.37988
0.388454
0.391903
0.377135
0.381957
0.379989
0.375332
0.455255
0.474177
0.690995
0.385522
0.562549
0.380321
0.369975
0.421846
0.366759
0.635559
0.377489
0.559305
0.376088
0.678348
0.729887
0.378917
0.373227
0.430514
0.373807
0.397615
0.380386
0.385376
0.37878
0.370931
0.374764
0.381397
0.379603
0.406126
0.386988
0.400083
0.380682
0.381657
0.380016
0.379666
0.446135
0.376814
0.50694
0.376694
0.368316
0.387598
0.387049
0.371244
0.372173
0.388594
0.373665
0.375791
0.365495
0.381644
0.385267
0.374943
0.518697
0.485871
0.381038
0.397853
0.57668
0.367022
0.37475
0.374762
0.371375
0.389422
0.386456
0.398736
0.401097
0.378112
0.379405
0.435196
0.377423
0.378828
0.374867
0.65575
0.392595
0.712401
0.654975
0.700827
0.383822
0.381092
0.376634
0.369427
0.38404
0.578279
0.391739
0.368779
0.373442
0.378194
0.377348
0.42041
0.377566
0.383144
0.413691
0.380358
0.36674
0.376282
0.372452
0.380741
0.371593
0.384601
0.384824
0.397199
0.374687
0.380321
0.380987
0.380148
0.382349
0.368125
0.38375
0.372611
0.394059
0.396657
0.37956
0.369146
0.374419
0.376268
0.372371
0.380681
0.377703
0.383659
0.379503
0.377569
0.485279
0.377386
0.44666
0.375021
0.379315
0.374384
0.379786
0.384236
0.377483
0.376361
0.383673
0.388633
0.573285
0.398487
0.518695
0.365995
0.375807
0.383067
0.376638
0.385489
0.405849
0.381657
0.374172
0.36871
0.463023
0.46395
0.611287
0.387388
0.466094
0.388417
0.391897
0.406187
0.730802
0.379572
0.376683
0.378673
0.6626
0.374921
0.377153
0.389344
0.381837
0.382742
0.705168
0.38082
0.385178
0.395198
0.379731
0.40618
0.778525
0.692339
0.377647
0.370554
0.371672
0.392332
0.393046
0.37895
0.693925
0.674752
0.376164
0.380953
0.522638
0.377334
0.380959
0.453522
0.376883
0.37443
0.376124
0.377376
0.399765
0.377438
0.374784
0.394039
0.410066
0.375375
0.37631
0.529284
0.373538
0.425371
0.4858
0.335542
0.512359
0.381728
0.392906
0.400514
0.384268
0.395831
0.393561
0.716914
0.513772
0.383384
0.385609
0.374509
0.389378
0.380717
0.384046
0.375713
0.370992
0.389091
0.384725
0.509445
0.452483
0.661666
0.634783
0.396846
0.387487
0.380879
0.381994
0.374392
0.388453
0.381902
0.370893
0.381089
0.366342
0.310443
0.375954
0.375448
0.43702
1.16253
0.400516
0.373679
0.381234
0.498441
0.704272
0.367062
0.486042
0.446147
0.573541
0.506423
0.430688
0.37498
0.374926
0.389688
0.737919
0.374224
0.38701
0.38023
0.380016
0.460091
0.340599
0.298028
0.384104
0.42737
0.380042
0.388351
0.394754
0.389848
0.557877
0.563014
0.265971
0.383672
0.316899
0.418242
0.37812
0.774932
0.381013
0.732329
0.390214
0.72037
0.386755
0.487742
0.381453
0.469691
0.392244
0.400059
0.375442
0.380186
0.384192
0.453837
0.422512
0.382575
0.383217
0.930727
0.273006
0.386844
0.518188
0.31117
0.51426
0.37287
0.378041
0.292716
0.569386
0.488302
0.393639
0.90682
0.378279
0.713581
0.988156
0.279506
0.397324
0.38301
0.408232
0.362546
0.377093
0.37024
0.499605
0.386294
0.377999
0.371481
0.379694
0.370236
0.374266
0.369812
0.462639
0.372347
0.369911
0.385493
0.381056
0.445764
0.385522
0.394319
0.383184
0.373742
0.392117
0.472638
0.366346
0.370257
0.483857
0.904424
0.385623
0.799799
0.399891
0.464575
0.580169
0.438529
0.405569
0.376113
0.403083
0.377604
0.37017
0.382355
0.373108
0.368904
0.385729
0.37985
0.367418
0.364109
0.392169
0.378901
0.388351
0.629412
0.377058
0.373626
0.372655
0.376441
0.455703
0.55579
0.386585
0.376255
0.381212
0.498332
0.505233
0.376058
0.389659
0.710447
0.402973
0.391681
0.382858
0.430821
0.381396
0.370066
0.385986
0.513425
0.386292
0.378578
0.498268
0.376797
0.393282
0.377244
0.398185
0.379942
0.402935
0.385218
0.376126
0.383436
0.403308
0.364198
0.382263
0.942152
0.369622
0.450615
0.394278
0.379153
0.509499
0.40898
0.373944
0.390717
0.591229
0.472588
0.390005
0.378477
0.396662
0.43188
0.384159
0.383206
0.698787
0.474823
0.417658
0.482461
0.381942
0.375143
0.513512
0.397028
0.805793
0.376376
0.396857
0.436786
0.376462
0.474673
0.407046
0.516442
0.455435
0.378165
0.379451
0.689407
0.381728
0.397639
0.371712
0.376631
0.393662
0.42923
0.634275
0.392204
0.372959
0.309728
0.524762
0.633294
0.438157
0.587195
0.406651
0.78967
0.397803
0.391733
0.662685
0.391454
0.449757
0.306132
0.54098
0.589242
0.378293
0.376609
0.291864
0.383101
0.382892
0.626909
0.383921
0.413666
0.375463
0.406764
0.377269
0.38062
0.759456
0.295483
0.490408
0.34548
0.401148
0.384725
0.382365
0.391382
0.388169
0.385569
0.37641
0.389224
0.389361
0.265682
0.255846
0.378469
0.406036
0.371293
0.411442
0.443272
0.388558
0.37814
0.396946
0.267952
0.417305
0.400424
0.374164
0.378302
0.494765
0.394348
0.37946
0.71208
0.396735
0.484401
0.439095
0.395154
0.37917
0.376607
0.931213
0.375784
0.366971
0.406323
0.39483
0.43239
0.377048
0.401599
0.379162
0.516123
0.371502
0.395171
0.389017
0.374609
0.462987
0.389019
0.556475
0.510007
0.373209
0.541382
0.437636
0.377153
0.915203
0.374701
0.374088
0.379802
0.419972
0.64741
0.559242
0.401922
0.639354
0.453164
0.381307
0.475711
0.618626
0.393162
0.569235
0.429627
0.37045
0.569875
0.664588
0.395452
0.752476
0.413352
0.391765
0.529147
0.410609
0.383163
0.393179
0.630838
0.325625
0.368726
0.512905
0.387052
0.39468
0.389906
0.39144
0.451814
0.458632
0.617528
0.384232
0.386869
0.551259
0.380992
0.383358
0.492704
0.377305
0.39592
0.592003
0.393355
0.74876
0.692022
0.643748
0.406643
0.386278
0.438668
0.370323
0.378151
0.455293
0.376288
0.371698
0.39599
0.372649
0.446209
0.594905
0.379542
0.492616
0.379375
0.490171
0.403258
0.729435
0.376597
0.434749
0.384652
0.377387
0.401142
0.382218
0.385354
0.374547
0.371348
0.54309
0.367846
0.392028
0.391629
0.389353
0.380413
0.398428
0.38853
0.53363
0.39548
0.384146
0.38606
0.423463
0.355082
0.586805
0.504022
0.533773
0.691638
0.407116
0.428431
0.195202
0.348087
0.625468
0.423957
0.471919
0.421091
0.625083
0.460484
0.96771
0.412655
0.389826
0.464553
0.746279
0.396126
0.289198
0.425662
0.296129
0.434319
0.437142
0.585922
0.410299
0.381804
0.426629
0.26643
0.380236
0.636342
0.389789
0.393539
0.372297
0.377731
0.461854
0.374266
0.602714
0.47205
0.38169
0.392298
0.383379
0.486659
0.544058
0.3803
0.393619
0.411469
0.689883
0.411664
0.371706
0.478181
0.519454
0.374712
0.384646
0.387259
0.378981
0.576802
0.383223
0.468865
0.618783
0.373072
0.397511
0.387065
0.38356
0.289808
0.394368
0.520237
0.37536
0.382913
0.672967
1.12066
0.37595
0.380256
0.376045
0.379629
0.478152
0.410666
0.654487
0.392208
0.376433
0.456657
0.382978
0.389359
0.380294
0.390341
0.390387
0.483917
0.481207
0.470855
0.43508
0.439102
0.378604
0.381981
0.636057
0.723831
0.434771
0.442271
0.397397
0.667018
0.456612
0.625874
0.480338
0.398887
0.393423
0.383704
0.403045
0.417268
0.51227
0.379025
0.411601
0.799857
0.394199
0.741468
0.394304
0.37512
0.379664
0.381097
0.376773
0.368078
0.484681
0.370605
0.366319
0.367052
0.379814
0.43468
0.501814
0.38162
0.525903
0.410506
0.397673
0.372259
0.378402
0.446865
0.406744
0.440048
0.390309
0.370669
0.414614
0.377146
0.368114
0.409521
0.397456
0.492665
0.38255
0.470509
0.397815
0.431518
0.385622
0.442779
0.384619
0.379143
0.368165
0.384586
0.387147
0.657696
0.368978
0.418924
0.304414
0.400966
0.385445
0.399161
0.392746
0.44899
0.415698
0.381957
0.37695
0.38397
0.446008
0.41737
0.370572
0.800585
0.411233
0.454614
0.380035
0.370593
0.494814
0.383815
0.388617
0.498008
0.377426
0.383241
0.408175
0.600803
0.373661
0.531196
0.372682
0.379089
0.44795
0.397314
0.387759
0.473277
0.374347
0.414454
0.429328
0.432622
0.463606
0.762667
0.382572
0.389715
0.390309
0.395726
0.398555
0.393958
0.379642
0.378273
0.388732
0.552192
0.387755
0.393105
0.541638
0.401864
0.637928
0.380565
0.390348
0.427472
0.371094
0.385557
0.391783
0.379281
0.403714
0.385006
0.387302
0.409406
0.371456
0.410037
0.383411
0.535421
0.390324
1.0605
0.643125
0.39547
0.384195
0.479455
0.389994
0.308941
0.433215
0.331372
0.460116
0.259026
0.414824
0.450328
0.424018
0.590743
0.586705
0.396423
0.35294
0.283435
0.883047
0.646739
0.57378
1.28601
0.492311
0.304866
0.690062
0.377171
0.391134
0.626344
0.428637
0.575203
0.410662
0.558176
0.572025
0.38358
0.39171
0.379818
0.371435
0.377965
0.374236
0.620018
0.402653
0.383404
0.540101
0.368986
0.370673
0.383856
0.382306
0.383657
0.386268
0.39538
0.377449
0.43759
0.749039
0.371584
0.382835
0.38179
0.372086
0.639279
0.578156
0.403091
0.379142
0.543988
0.372695
0.38631
0.383152
0.405331
0.374888
0.376762
0.371472
0.370524
0.439601
0.370556
0.425197
0.381677
0.383972
0.381281
0.393058
0.380176
0.38015
0.373476
0.417779
0.371445
0.403351
0.582676
0.438942
0.400564
0.423932
0.378132
0.398726
0.390612
0.383369
0.377393
0.387262
0.377357
0.38993
0.416936
0.387893
0.423948
0.469024
0.382665
0.394293
0.434432
0.414449
0.493205
0.421367
0.594912
0.79977
0.395148
0.387715
0.603152
0.529763
0.432094
0.377148
0.374387
0.383458
0.374106
0.378543
0.373491
0.390179
0.394652
0.37302
0.38544
0.378652
0.375935
0.392036
0.469836
0.411835
0.385146
0.381467
0.375678
0.618593
0.374163
0.372577
0.400655
0.77727
0.727579
0.393241
0.395776
0.387146
0.400937
0.405808
0.576394
0.432932
0.377461
0.385219
0.382773
0.375067
0.404542
0.406887
0.382213
0.37252
0.428989
0.405661
0.481068
0.424067
0.53246
0.506551
0.395348
0.400191
0.37011
0.37646
0.395227
0.376855
0.372144
0.589541
0.383433
0.391435
0.649119
0.392374
0.391504
0.284764
0.431937
0.373998
0.376455
0.377253
0.392648
0.637408
0.382705
0.452561
0.559474
0.521237
0.766265
0.717227
0.373067
0.390341
0.518479
0.374136
0.540542
0.511717
0.638351
0.376829
0.371971
0.50221
0.383225
0.55782
0.431035
0.381206
0.665141
0.69148
0.385261
0.375097
0.731567
0.384631
0.374005
0.364591
0.375443
0.387795
0.381057
0.530762
0.381454
0.718397
0.372872
0.390176
0.367221
0.756535
0.376958
0.741378
0.388511
0.402291
0.375063
0.456005
0.373841
0.416013
0.367742
0.451729
0.474808
0.474799
0.614086
0.373614
0.379222
0.653211
0.425457
0.389306
0.422252
0.394573
0.381248
0.402452
0.390599
0.577068
0.431992
0.382309
0.366941
0.442462
0.382427
0.407128
0.393152
0.374063
0.389131
0.375125
0.374617
0.375821
0.536476
0.370441
0.377128
0.379551
0.374782
0.370426
0.379601
0.380643
0.3818
0.38724
0.398533
0.391086
0.370896
0.305283
0.393951
0.40628
0.408788
0.346784
0.722754
0.378868
0.615454
0.408644
0.298879
0.391329
0.400476
0.394018
0.379524
0.369854
0.391651
0.393119
0.38019
0.37742
0.374144
0.669072
0.37258
0.382629
0.401865
1.03101
0.263564
0.387777
0.691708
0.380395
0.590971
0.507558
1.01029
0.247505
0.386306
0.394324
0.384608
0.380264
0.63902
0.398449
0.420963
0.377104
0.376248
0.601091
0.38909
0.389415
0.372819
0.385806
0.392519
0.392161
0.585778
0.378231
0.383859
0.371284
0.377404
0.396262
0.369715
0.388188
0.9211
0.951699
0.578595
0.466661
0.662434
0.378548
0.376544
0.367669
0.37943
0.374131
0.414044
0.377123
0.442023
0.395605
0.37895
0.377832
0.379492
0.382153
0.376656
0.380948
0.377395
0.381716
0.50701
0.38674
0.40791
0.653188
0.38526
0.584781
0.732252
0.389375
0.405439
0.386376
0.484158
0.389705
0.405696
0.59497
0.379773
0.420284
0.37902
0.407143
0.377598
0.37786
0.441046
0.531025
0.387414
0.391217
0.659127
0.41755
0.560962
0.546727
0.386965
1.06853
0.403998
0.422206
0.403956
0.38517
0.441291
0.39753
0.369642
0.376011
0.372522
0.564276
0.246363
0.380392
0.398956
0.451531
0.251641
0.581137
0.373306
0.377992
0.427819
0.384218
0.426479
0.384115
0.672595
0.388498
0.384238
0.380074
0.756527
0.379636
0.414314
0.394888
0.379369
0.37969
0.394879
0.374179
0.373036
0.531447
0.398551
0.711231
0.371092
0.622078
0.61201
0.445517
0.401603
0.392329
0.464851
0.395536
0.385027
0.374789
0.384596
0.64898
0.388998
0.481646
0.450998
0.389386
0.378588
0.375555
0.376401
0.375437
0.376252
0.421832
0.408
0.401951
0.382956
0.411961
0.374252
0.442992
0.375547
0.384605
0.379055
0.523594
0.825072
0.396079
0.384863
0.377013
0.507529
0.371355
0.380635
0.37827
0.373889
0.386518
0.379736
0.369247
0.37971
0.384286
0.527844
0.510467
0.372245
0.620011
0.37619
0.381812
0.367764
0.383591
0.596035
0.398641
0.667279
0.37456
0.368358
0.719211
0.768965
0.378087
0.374785
0.558723
0.391438
0.40495
0.403038
0.404889
0.392762
0.441916
0.38213
0.385465
0.39042
0.378536
0.485114
0.374006
0.386059
0.379051
0.372876
0.473416
0.513331
0.36974
0.38089
0.382341
0.383261
0.384096
0.510033
0.391209
0.394136
0.418646
0.382997
0.457065
0.419214
0.488035
0.41548
0.382685
0.376101
0.376098
0.410537
0.374182
0.454102
0.413917
0.372912
1.04184
0.373926
0.380795
0.387542
0.388323
0.41192
0.573236
0.382526
0.452858
0.376786
1.0558
0.416734
0.400668
0.380576
0.545144
0.385359
0.52106
0.396229
0.436137
0.371465
0.409731
0.42165
0.589823
0.471395
0.381495
0.369775
0.374521
0.472029
0.391318
0.897238
0.500269
0.388649
0.444235
0.383083
0.476606
0.466469
0.418302
0.502148
0.487096
0.650299
0.389335
0.399841
0.840422
0.493068
0.396921
0.476241
0.380673
0.920933
0.421862
0.382715
0.372781
0.377466
0.37663
0.379101
0.378662
0.517746
0.376496
0.453792
0.378799
0.446912
0.400537
0.52369
0.374149
0.375272
0.372148
0.497263
0.469592
0.500057
0.381185
0.383574
0.473336
0.407618
0.400427
0.370993
0.371787
0.373286
0.378973
0.376342
0.40294
0.377061
0.52283
0.446404
0.831077
0.70063
0.499179
0.539222
0.423373
0.425601
0.370789
0.561157
0.383298
0.397158
0.376843
0.475498
0.409248
0.382533
0.445572
0.678905
0.435666
0.375692
0.370254
0.558849
0.743075
0.410706
0.675724
0.756819
0.579365
0.602362
0.545793
0.62543
0.430352
0.587019
0.719011
0.380021
0.384986
0.38403
0.460083
0.595243
0.382311
0.376626
0.428545
0.39778
0.402624
0.644971
0.488529
0.715206
0.380338
0.375726
0.376027
0.370579
0.383397
0.783626
0.380201
0.415021
0.519089
0.373469
0.884649
1.04717
0.375932
0.442262
0.4284
0.698734
0.393436
0.484508
0.682224
0.713206
0.45752
0.565306
0.505915
0.487466
0.378045
0.395741
0.389586
0.653161
0.668523
0.417933
0.387761
0.521395
0.465617
0.547603
0.379054
0.396575
0.789984
0.534181
0.288202
0.372766
0.328942
0.376912
0.256701
0.420953
0.45198
0.559598
0.260002
0.450335
0.472504
0.239167
0.462641
0.430588
0.452368
0.427043
0.444215
0.389277
0.517012
0.388968
0.377773
0.381954
0.384508
0.621548
0.64831
0.655914
0.418882
0.429125
0.491347
0.413411
0.282863
0.432613
0.401752
0.381894
0.496157
0.385314
0.290325
0.382788
0.437314
0.431461
0.656237
0.480738
0.739128
0.7211
0.654148
0.390765
0.427768
0.584746
0.352421
0.521158
0.410283
0.416168
0.37639
0.707257
0.529214
0.384865
1.07579
0.589155
0.382451
0.455098
0.621267
0.682388
0.432831
0.392795
0.476526
0.640393
0.400943
0.372307
0.395756
0.390431
0.413729
0.491482
0.586712
0.410549
0.579377
0.749173
0.543772
0.468063
0.574818
0.418134
0.708522
0.565514
0.455285
0.662998
0.525888
0.411029
0.460415
0.385238
0.379643
0.380083
0.396278
0.521418
0.556791
0.377736
0.393455
0.403387
0.378656
0.377251
0.549534
0.459278
0.383018
0.386258
0.649669
0.868028
0.258294
0.417818
0.373221
0.394072
0.522965
0.475008
0.378263
0.296767
0.39417
0.292034
0.333959
0.555046
0.393599
0.387278
0.382088
0.420823
0.691007
0.451991
0.391828
0.462298
0.381158
0.658557
0.540221
0.466626
0.55908
0.405104
0.37948
0.372149
0.379699
0.390601
0.430764
0.376752
0.38016
0.377712
0.377784
0.527108
0.499023
0.636978
0.382922
0.477668
0.408812
0.4305
0.404387
0.39846
0.389935
0.396762
0.387314
0.369983
0.386338
0.3841
0.462156
0.381121
0.392464
0.398007
0.581407
0.383977
0.424289
0.447134
0.652892
0.633338
0.419462
0.718185
0.288264
0.396847
0.408153
0.520027
0.393782
0.556573
0.451169
0.371209
0.435288
0.489377
0.433848
0.465104
0.541347
0.454759
0.470727
0.577828
0.389906
0.381127
0.416786
0.378191
0.375781
0.426635
0.372173
0.378679
0.529109
0.378914
0.344018
0.423257
0.932034
0.374497
0.37419
0.750375
0.37452
0.377365
0.478377
0.373498
0.554498
0.43845
0.656829
0.373649
0.532986
0.461835
0.579594
0.383536
0.450509
0.37127
0.490847
0.381126
0.381756
0.394917
0.448166
0.471162
0.400326
0.384408
0.391343
0.376491
0.483085
0.376534
0.372683
0.375124
0.453775
0.507804
0.378663
0.389449
0.379717
0.380609
0.389875
0.444461
0.378625
0.450082
0.382879
0.55636
0.382461
0.407855
0.38472
0.481849
0.383859
0.450712
0.386588
0.385519
0.376257
0.397171
0.38495
0.454408
0.440091
0.628966
0.609338
0.65572
0.423727
0.400911
0.393311
0.378277
0.373639
0.775659
0.598386
0.420067
0.408403
0.389884
0.391303
0.371748
0.374818
0.509047
0.490099
0.658694
0.537324
0.414769
0.379968
0.427821
0.377356
0.587011
0.37866
0.392951
0.387992
0.391612
0.787611
0.433789
0.371408
0.393637
0.42823
0.37192
0.291414
0.379072
0.304368
0.41237
0.769341
0.460894
0.682514
0.36986
0.39311
0.402763
0.392655
0.411771
0.377499
0.376866
0.367275
0.377307
0.391596
0.380778
0.533358
0.42183
0.714801
0.442839
0.377087
0.48887
0.388392
0.374383
0.34372
0.813858
0.7708
0.284111
0.328689
0.384937
0.653128
0.472665
0.444461
0.415094
0.409039
0.268764
0.392639
0.381654
0.366263
0.426039
0.502135
0.632531
0.519376
0.445799
0.371069
0.429346
0.612221
0.394096
0.37334
0.63104
0.614127
0.575524
0.53435
0.367534
0.366496
0.42623
0.367629
0.712445
0.373907
0.378493
0.37375
0.605757
0.375584
0.406122
0.474552
0.471766
0.377772
0.374396
0.393546
0.373375
0.373738
0.381332
0.419072
0.533736
0.459554
0.401386
0.542701
0.39377
0.501879
0.411074
0.754667
0.462177
0.459732
0.594321
0.339141
0.448463
0.421285
0.550187
0.434734
0.368472
0.381893
0.371987
0.389874
0.722693
0.397653
0.378245
0.380633
0.406082
0.367716
0.492692
0.396481
0.389448
0.462609