/*--------------------------------*- C++ -*----------------------------------*\
| =========                 |                                                 |
| \\      /  F ield         | OpenFOAM: The Open Source CFD Toolbox           |
|  \\    /   O peration     | Version:  2506                                  |
|   \\  /    A nd           | Website:  www.openfoam.com                      |
|    \\/     M anipulation  |                                                 |
\*---------------------------------------------------------------------------*/
FoamFile
{
    version     2.0;
    format      ascii;
    arch        "LSB;label=32;scalar=64";
    class       volScalarField;
    location    "0.0126916";
    object      nut;
}
// * * * * * * * * * * * * * * * * * * * * * * * * * * * * * * * * * * * * * //

dimensions      [0 2 -1 0 0 0 0];

internalField   nonuniform List<scalar> 
47425
(
0.00692575
0.00544548
0.00624477
0.00231809
0.00360294
0.00543572
0.00574894
0.00373597
0.00740673
0.00120721
0.00266708
0.00743346
0.006355
0.00543309
0.0046465
0.00311728
0.00638317
0.0030365
0.000346905
0.00323704
0.00481562
0.00755765
0.00365516
0.00635901
0.00745192
0.00749699
0.00568966
0.00043155
0.00637457
0.00688972
0.0074597
0.00754183
0.00728172
0.00623675
0.00722131
0.0057918
0.00750702
0.00537399
0.00587248
0.00536691
0.00520916
0.00719507
0.00726323
0.00263221
0.000581769
0.00354381
0.00409936
0.00467886
0.00524253
0.00738685
0.00053208
0.00515596
0.00739162
0.000872321
0.00336342
0.003145
0.00753028
0.00656106
0.00204886
0.00623126
0.000908565
0.000574629
0.00101304
0.00393554
0.00728334
0.0073664
0.00587931
0.00662317
0.00106384
0.00455474
0.00545742
0.0072894
0.00711292
0.00472103
0.00135086
0.00734438
0.00104565
0.00490086
0.000205213
0.00262821
0.0012789
0.00634006
0.00741273
0.00694112
0.00751663
0.0049576
0.00714057
0.00734676
0.00560382
0.00124018
0.00751805
0.00470968
0.00754362
0.00340523
0.00240944
0.00196709
0.00736876
0.00743148
0.00531985
0.00399011
0.00619147
0.00109997
0.0072636
0.000981181
0.00745856
0.00700922
0.00748974
0.00486051
0.00755091
0.00758805
0.000792196
0.00628545
0.00677785
0.00251189
0.00698369
0.000287153
0.00709052
0.000688987
0.00465756
0.00659142
0.00571746
0.00739726
0.00642167
0.00424991
0.00384944
0.00656539
0.00474831
0.00744112
0.00364809
0.00746973
0.0071211
0.00369495
0.000964554
0.00305424
0.00727153
0.00599074
0.00702052
0.00640606
0.00571867
0.00401643
0.00520303
0.00286856
0.0055942
0.00639049
0.00693988
0.00738837
0.00444115
0.00611227
0.00250537
0.00513459
0.0065135
0.000460147
0.00714003
0.000342808
0.00369697
0.00445897
0.00413236
0.000248466
0.00403661
0.00503302
0.00700645
0.00754569
0.00738413
0.00737609
0.00114409
0.00042905
0.00750961
0.00127323
0.00366112
0.000806996
0.00136964
0.00433067
0.00499559
0.00436914
0.00513299
0.00141263
0.000311232
0.00627141
0.00708926
0.00751889
0.000263293
0.00752546
0.00691972
0.00749718
0.00743143
0.00691334
0.00692878
0.00117352
0.00266861
0.00706462
0.00739852
0.00642601
0.00436522
0.00477681
0.00747578
0.00719907
0.0058114
0.00536541
0.00713709
0.00549163
0.00562331
0.00318194
0.00755622
0.0072102
0.00344901
0.00244163
0.00728011
0.00723003
0.00360076
0.00727556
0.00635945
0.00646932
0.00732908
0.00548904
0.00633572
0.00662598
0.00606191
0.00331278
0.00406891
0.00399727
0.00215721
0.00450457
0.00702676
0.00506953
0.00239536
0.00179692
0.00746631
0.00319233
0.00677821
0.00470501
0.00640884
0.00520344
0.00353356
0.00750228
0.0023402
0.00411711
0.00282939
0.00321579
0.00256038
0.00211517
0.0053901
0.00710909
0.00754933
0.00460869
0.00743262
0.00648801
0.00641564
0.00545324
0.00751906
0.00557516
0.00757993
0.00274842
0.00626221
0.00737902
0.00439619
0.00755427
0.00756803
0.00316559
0.00453493
0.00709868
0.00314898
0.00735915
0.00589922
0.00286779
0.00644192
0.00215049
0.00751729
0.0064069
0.00673472
0.00512153
0.00559419
0.00359103
0.00291938
0.00719526
0.00303959
0.0021573
0.0036527
0.000499441
0.00319706
0.000627826
0.000925052
0.00711788
0.000823267
0.00304682
0.00511899
0.00549098
0.00361217
0.00500999
0.00176362
0.006914
0.000616819
0.00635961
0.00737753
0.00698355
0.00671103
0.00375805
0.00369292
0.00727061
0.00609806
0.00483462
0.00412652
0.00743015
0.00409994
0.00693789
0.00063175
0.000796212
0.000450406
0.00754557
0.00740078
0.00743736
0.00360727
0.000619141
0.00460965
0.00317149
0.00148725
0.00471003
0.00367448
0.00313341
0.00493876
0.002094
0.00175068
0.00761202
0.00669403
0.00747363
0.00213439
0.00749658
0.00554324
0.0067254
0.00727184
0.00562716
0.006056
0.000831902
0.00600646
0.00539454
0.00302621
0.00758614
0.000752135
0.00731352
0.00741774
0.00706089
0.00746622
0.00738472
0.00749417
0.0072683
0.00727158
0.00686897
0.00661067
0.00725517
0.00552955
0.004336
0.00746766
0.00736481
0.00609302
0.00736611
0.00742075
0.0033497
0.00514426
0.00754692
0.00716964
0.00391601
0.00190915
0.00669707
0.00458254
0.00460925
0.0074054
0.00729896
0.00288883
0.00708733
0.00567608
0.00745473
0.00290218
0.000581632
0.0052897
0.00752079
0.00192876
0.00752137
0.00723554
0.00401368
0.005024
0.007516
0.00550303
0.00749648
0.00753679
0.0048462
0.00422685
0.00439546
0.00443685
0.00723325
0.00703626
0.00459201
0.0072977
0.00722848
0.00489967
0.00686433
0.00601044
0.00727926
0.00641164
0.0041959
0.00209879
0.00741836
0.000865589
0.00749119
0.00277202
0.00380949
0.00360602
0.00362339
0.00740497
0.00267893
0.00747111
0.00396588
0.00727176
0.000811655
0.000813703
0.00733969
0.00426776
0.00536815
0.0050393
0.00489782
0.00489005
0.00581409
0.00415348
0.00556615
0.00745834
0.00388476
0.00628971
0.00731913
0.00375556
0.00613485
0.00703504
0.000953872
0.000263454
0.00729349
0.000460149
0.000383567
0.00335802
0.00043818
0.000615778
0.00727567
0.00554267
0.0059044
0.00596868
0.000610185
0.00411491
0.00732694
0.00716456
0.00640683
0.00607032
0.00479905
0.00489789
0.000904249
0.000485218
0.00137553
0.00537739
0.0012288
0.00629286
0.0069641
0.00722078
0.00645017
0.00716087
0.00432882
0.00482455
0.00286948
0.00559724
0.00750089
0.0053867
0.00689497
0.00462385
0.00712812
0.00648908
0.00601542
0.00545161
0.00561456
0.0034401
0.00301046
0.00658169
0.00423225
0.00711316
0.000955141
0.00298004
0.00234701
0.00734849
0.00274243
0.00408195
0.00462278
0.00748915
0.00614347
0.00678497
0.00620864
0.00381158
0.00350559
0.00584766
0.00493081
0.00707458
0.00249007
0.000941469
0.00746154
0.00200879
0.00698506
0.00195784
0.00733674
0.00710826
0.0075114
0.00575366
0.00694181
0.00338669
0.00644827
0.00750931
0.00754524
0.00705554
0.00508929
0.00292237
0.00522682
0.00756538
0.00674815
0.00723354
0.00717357
0.00673817
0.00517199
0.0057233
0.00349611
0.00476285
0.00209667
0.000586262
0.0060384
0.00557836
0.00671575
0.00740127
0.0017298
0.00149199
0.00473891
0.00703813
0.00455044
0.00618365
0.00737402
0.00158879
0.00750048
0.00189227
0.00295023
0.00315923
0.0064184
0.00277183
0.0075967
0.00560564
0.00565956
0.00748337
0.00756041
0.00722917
0.000822139
0.00670072
0.00258592
0.00744894
0.00172496
0.00710826
0.00660722
0.00252368
0.00271521
0.00523922
0.00757046
0.000923056
0.0071856
0.00696623
0.00723855
0.00721664
0.00747915
0.00277801
0.00609981
0.00716135
0.00718367
0.00567006
0.0075168
0.00133614
0.00740318
0.00615119
0.000738399
0.00533027
0.00747571
0.000850177
0.00134959
0.00757844
0.000264045
0.000337819
0.00590642
0.00719267
0.0073017
0.00752339
0.00445748
0.00400482
0.00189889
0.00756826
0.00290147
0.00715168
0.00187276
0.00245614
0.00445861
0.00582392
0.0016992
0.00176444
0.00725384
0.00440809
0.0048691
0.0037783
0.00309209
0.00306858
0.00741603
0.00416501
0.00289162
0.00583351
0.00552731
0.00321742
0.00461479
0.00737058
0.00252429
0.00398889
0.00558712
0.00302404
0.00237384
0.00656022
0.00495421
0.00682542
0.00203141
0.00545936
0.00709353
0.00744271
0.00026208
0.00476973
0.0061682
0.000430043
0.000730452
0.00755247
0.00486594
0.000131607
0.0021773
0.00095193
0.00249794
0.00185092
0.000541656
0.00691682
0.00740911
0.00582088
0.00373283
0.00261843
0.00327378
0.00744271
0.00325201
0.00602144
0.00513911
0.00711822
0.00463877
0.00589591
0.00279515
0.000468901
0.00320334
0.00364567
0.00429546
0.00749139
0.00348676
0.00697098
0.00583887
0.00551073
0.00574186
0.00743057
0.00207555
0.00484529
0.00734058
0.00159251
0.00203211
0.000924629
0.00131745
0.00416949
0.0074355
0.00499139
0.00750928
0.000829521
0.00550368
0.000705211
0.0045957
0.00605494
0.00657539
0.00532621
0.0059919
0.00550058
0.00270442
0.00481795
0.00725237
0.00192216
0.00595059
0.0074664
0.00475064
0.00412815
0.000685125
0.00655585
0.00189537
0.0045576
0.00745773
0.00752177
0.00264833
0.00522979
0.00446073
0.00733264
0.00593735
0.00497097
0.00502573
0.00482893
0.00486497
0.00624008
0.00107137
0.000619688
0.00575833
0.000907148
0.00585002
0.0033547
0.00463077
0.00747419
0.00726383
0.0067922
0.00584659
0.00503238
0.00753239
0.000522639
0.00153437
0.00401862
0.00590515
0.00744329
0.00415645
0.0073398
0.00268562
0.00707234
0.00113099
0.00433296
0.00748591
0.00499261
0.00744564
0.00649948
0.00573313
0.00741081
0.00425379
0.0074496
0.00736835
0.00508459
0.00093143
0.00758916
0.000704901
0.00204501
0.00252056
0.000718922
0.00461681
0.00607436
0.00266976
0.00458509
0.000829445
0.000466251
0.000726118
0.00540082
0.00680739
0.00530883
0.00314545
0.000881552
0.00280765
0.00409232
0.00698627
0.00595282
0.00610025
0.00220135
0.00650016
0.00447274
0.00162178
0.00228984
0.00557396
0.0024866
0.00116035
0.000757373
0.0059503
0.000315065
0.00138346
0.00060697
0.000744101
0.00449074
0.00316208
0.00749554
0.00743931
0.00513169
0.000686605
0.0020207
0.00520336
0.00503786
0.00753792
0.00102473
0.00068091
0.00757106
0.00230635
0.00425278
0.00754204
0.00228203
0.00756121
0.00753651
0.00556054
0.00518107
0.0017776
0.00731794
0.0075996
0.00675607
0.00539046
0.00543475
0.00110905
0.00154515
0.00756864
0.00151876
0.00726344
0.00751634
0.00745401
0.0018879
0.00470476
0.00196008
0.00391583
0.00721451
0.00722957
0.00144819
0.000780292
0.00527764
0.00455706
0.0016112
0.00574269
0.00588588
0.00319506
0.0031156
0.00217124
0.00189819
0.00246727
0.0011047
0.00735511
0.00126113
0.00713434
0.00421582
0.00743575
0.00224972
0.00292796
0.0074227
0.00182182
0.00132989
0.00434547
0.00175223
0.00587177
0.00722801
0.005329
0.00369755
0.00530836
0.00397106
0.000769976
0.00575064
0.00325678
0.00181987
0.00179967
0.000524917
0.0017758
0.00426123
0.000540124
0.00733546
0.00747253
0.00367036
0.00254146
0.0044183
0.00159192
0.00132312
0.00385722
0.00644176
0.00627011
0.0033936
0.00370238
0.00415299
0.00203877
0.00136906
0.00483407
0.00670999
0.00219334
0.00172142
0.00147315
0.000510589
0.00406139
0.00541078
0.00273695
0.00405909
0.00439394
0.00743599
0.00359827
0.00301529
0.0012117
0.00349232
0.00556765
0.00401971
0.00731389
0.00354298
0.00082029
0.00465403
0.00227569
0.00719516
0.00237882
0.00289031
0.00379459
0.00539006
0.00545798
0.00276979
0.00130179
0.00432128
0.00168301
0.00068571
0.00697552
0.00732495
0.00701599
0.0012477
0.00667443
0.00267998
0.00713369
0.00177357
0.000657515
0.00426829
0.00447193
0.00438704
0.00730044
0.00520174
0.00327298
0.000730974
0.00332584
0.00105763
0.00728248
0.00298451
0.00383603
0.00280262
0.00491667
0.00168773
0.0017065
0.00167653
0.00576761
0.000590517
0.00447938
0.00528732
0.00582339
0.00689357
0.00650184
0.00533673
0.00151131
0.00244002
0.00341322
0.00692066
0.00663278
0.000692716
0.000916284
0.000722656
0.00170833
0.000686893
0.0020948
0.00405513
0.00133026
0.00528903
0.00121909
0.00209274
0.00206414
0.0014025
0.00466194
0.00668103
0.00606494
0.00748413
0.00175898
0.00354254
0.0041941
0.00517878
0.00155325
0.00708081
0.00494508
0.00735659
0.00738518
0.00306951
0.00233064
0.00306335
0.00418516
0.00643513
0.00234851
0.00751687
0.00501386
0.0042023
0.0070529
0.0028838
0.00133673
0.00624044
0.00268133
0.00581897
0.0014703
0.00208078
0.00304239
0.00370682
0.000207518
0.00030072
0.00129582
0.000678675
0.00357148
0.00399598
0.000508754
0.000867209
0.00684473
0.00124963
0.00349751
0.00430696
0.000390928
0.00271134
0.00695447
0.003314
0.00197117
0.00726203
0.000680817
0.000327593
0.00307919
0.000634951
0.00263457
0.00082431
0.000475499
0.00669709
0.00473311
0.00284574
0.00120085
0.00390914
0.00704702
0.00249187
0.000491835
0.00723329
0.00255886
0.00602495
0.00227704
0.00743113
0.00688496
0.00203264
0.0015117
0.0044643
0.00217566
0.00643991
0.000897739
0.00744181
0.00749803
0.0018162
0.00173913
0.00515453
0.0072023
0.000672218
0.00133574
0.00154646
0.00383902
0.00325274
0.0019439
0.000961851
0.00536936
0.000809954
0.00156985
0.00675801
0.00452899
0.00153598
0.000414024
0.00279679
0.00221648
0.00638219
0.0072385
0.00248124
0.00505304
0.00221531
0.00592251
0.00740106
0.0073755
0.00583049
0.0021485
0.000679293
0.00533748
0.000428922
0.00446315
0.00541812
0.0019178
0.00723839
0.00451041
0.00620977
0.00571525
0.00197107
0.00713363
0.00143305
0.00761991
0.000317839
0.000978539
0.001844
0.00199934
0.00652719
0.0056755
0.00361108
0.0072772
0.000664615
0.000615888
0.00355645
0.0020405
0.000719024
0.00071547
0.00198803
0.00103734
0.000493646
0.00400289
0.00738134
0.000451421
0.00496868
0.00729795
0.00529392
0.000684578
0.000333922
0.00505573
0.00578633
0.00147999
0.00194789
0.00123473
0.000579376
0.00351816
0.000895975
0.000961624
0.00352948
0.00484656
0.000650713
0.00630738
0.000806995
0.00019817
0.00750166
0.00598656
0.0049376
0.00694963
0.00246887
0.0041532
0.00716645
0.00312329
0.00421398
0.000947697
0.00183118
0.00604433
0.00122443
0.00553682
0.000323538
0.00647887
0.00413633
0.00371392
0.00748082
0.000874528
0.00460918
0.00321903
0.00249748
0.00280388
0.00439008
0.00218708
0.00213264
0.000749441
0.00682152
0.000758242
0.000674558
0.000875221
0.00419636
0.000993907
0.00217086
0.00482264
0.00546954
0.00105805
0.00112568
0.00234791
0.000574572
0.00212605
0.00106215
0.000805418
0.00297672
0.00254627
0.000797537
0.00159983
0.00743402
0.00260453
0.00439945
0.00229556
0.00312369
0.000570119
0.00663336
0.00480546
0.00572467
0.00107374
0.00566088
0.000462983
0.00245236
0.00584732
0.00714761
0.0021839
0.00224555
0.000885975
0.0021204
0.00348085
0.0013404
0.000960564
0.00488082
0.000841193
0.00128351
0.00423112
0.000480934
0.00118919
0.00273146
0.00245071
0.00558736
0.00195513
0.000578251
0.00214414
0.00123257
0.00383024
0.00683613
0.00217502
0.00479038
0.00387334
0.00620656
0.00126924
0.00182706
0.00148915
0.0056398
0.00183626
0.00506406
0.00460818
0.00139525
0.00196409
0.00248028
0.0040533
0.00690285
0.000332021
0.00147095
0.00183723
0.00131976
0.00201654
0.00712053
0.000968995
0.000514128
0.00174184
0.00319131
0.00461738
0.00280571
0.00226495
0.000923933
0.00678538
0.00127923
0.00161125
0.00718177
0.00159446
0.00352187
0.00257507
0.00294266
0.00160391
0.00254758
0.00741214
0.000526223
0.00351651
0.000621964
0.0027139
0.00612152
0.0027997
0.00277507
0.0017041
0.0038834
0.0061227
0.00428794
0.000454862
0.00545211
0.00577687
0.000564266
0.00754028
0.0050407
0.000642348
0.00518764
0.00243535
0.00136348
0.00263964
0.00106631
0.00531314
0.000186391
0.0016284
0.000641233
0.00241936
0.00129064
0.00414015
0.000908712
0.00158093
0.00125181
0.0023515
0.00421406
0.00698181
0.00432043
0.0044004
0.00295186
0.000459096
0.00394969
0.00682832
0.00664812
0.0066686
0.00419552
0.00183924
0.00717329
0.00731248
0.0031144
0.000863988
0.00743885
0.002946
0.00422933
0.00570338
0.00729021
0.00251967
0.00321733
0.0074206
0.00715843
0.00358237
0.00394302
0.00599695
0.00399167
0.000691232
0.00414783
0.00506331
0.00708798
0.00763493
0.0011493
0.00612771
0.00706678
0.000689382
0.00123885
0.00081673
0.00731457
0.000754994
0.00043492
0.00738103
0.00019337
0.000767093
0.000323732
0.00412715
0.00552585
0.00450923
0.00174779
0.00759521
0.0047048
0.00466613
0.00402572
0.00334992
0.00468816
0.00359005
0.00116781
0.00461519
0.00365583
0.000722254
0.00436429
0.00024968
0.00230475
0.00116496
0.00747606
0.00277607
0.00200492
0.00733713
0.00549271
0.00197591
0.00758868
0.00176602
0.00171302
0.000326942
0.00642714
0.00130286
0.00690446
0.00321606
0.00466396
0.00674358
0.00131324
0.00655793
0.00237628
0.00709789
0.00111531
0.000205998
0.00488174
0.00753992
0.000397939
0.00503399
0.000210528
0.00588974
0.00389384
0.00549832
0.00542025
0.00685238
0.0070515
0.00570701
0.00255483
0.00634499
0.00222513
0.00341441
0.00538393
0.00750807
0.00251948
0.000785641
0.00421787
0.00107776
0.00709798
0.00570553
0.00315951
0.00452735
0.00544913
0.0069178
0.00246607
0.00295309
0.00739054
0.00477433
0.00602027
0.00538779
0.00393309
0.00119316
0.00111009
0.00522306
0.00416812
0.00304338
0.00432941
0.00713514
0.00600865
0.00736663
0.00219798
0.00228256
0.00195859
0.00372875
0.00527214
0.00564565
0.0012869
0.00706232
0.00733056
0.00640028
0.00151117
0.00300277
0.00115791
0.00112731
0.00111408
0.00451284
0.00619033
0.00632189
0.00593622
0.00720541
0.00115489
0.00538466
0.00746181
0.00463286
0.00353758
0.00550181
0.00171794
0.00585482
0.00240853
0.00356746
0.00364564
0.00723733
0.00541624
0.0043089
0.00404644
0.00584367
0.00320068
0.0043528
0.00500752
0.00510646
0.0052415
0.00488955
0.00245334
0.00213084
0.00660398
0.00444674
0.00304668
0.0021207
0.00231275
0.00744437
0.00722661
0.00294568
0.00641036
0.00699245
0.00402528
0.00743166
0.00745909
0.00534898
0.00484019
0.00219005
0.00537015
0.00250356
0.0073937
0.005711
0.000398674
0.00466992
0.00437281
0.0069596
0.00637856
0.00416948
0.00439791
0.000258482
0.00359205
0.00133456
0.00736209
0.00658692
0.00518115
0.00748442
0.00726661
0.00362551
0.00438565
0.00719425
0.00751604
0.00290704
0.000887782
0.00136737
0.00312522
0.00178496
0.00373258
0.00590335
0.00362742
0.00270812
0.0021193
0.00475431
0.0049258
0.000781534
0.00622197
0.00474363
0.0041645
0.0042914
0.00749295
0.000314005
0.00592432
0.00390935
0.0070587
0.00298778
0.00360255
0.000279669
0.000222058
0.00571002
0.00720084
0.00749937
0.00415324
0.00392257
0.00675982
0.000212768
0.00106283
0.00633119
0.00264449
0.00133307
0.00645216
0.00740506
0.00238389
0.00752182
0.00639099
0.00720716
0.00541651
0.00457444
0.00433796
0.00490182
0.00647528
0.00271234
0.00537443
0.00732834
0.00112676
0.00557869
0.00425703
0.00222065
0.00106526
0.00120981
0.0035961
0.00287302
0.00617667
0.00286659
0.00308989
0.00731176
0.00048931
0.0013366
0.00204701
0.00477047
0.00349183
0.00408345
0.00407521
0.001883
0.00752834
0.00742707
0.0055817
0.00537578
0.00093081
0.00142613
0.000863863
0.00104792
0.00366963
0.00291593
0.00751482
0.00752144
0.00461319
0.00652409
0.00550476
0.00700874
0.00765697
0.00100203
0.000477403
0.00746585
0.00754723
0.00319947
0.00117955
0.00434284
0.0075514
0.00651472
0.00121552
0.000828763
0.00482416
0.00176412
0.00263268
0.00242141
0.000510078
0.00274978
0.00714663
0.00756338
0.00595619
0.000836436
0.00712679
0.0044323
0.00466478
0.00755286
0.000591984
0.000221985
0.000179855
0.00179376
0.00239987
0.00702476
0.00720145
0.00348605
0.00533113
0.000454762
0.000721658
0.000523934
0.000362098
0.000687492
0.0020279
0.00741906
0.000794854
0.00707094
0.000274587
0.00399968
0.000669949
0.0046509
0.0019309
0.0073165
0.00309444
0.00228274
0.00230549
0.00734542
0.00548662
0.00412044
0.000912676
0.00137221
0.00492885
0.00558535
0.00039714
0.000431663
0.00525075
0.00134298
0.000700011
0.00109099
0.00615168
0.00742563
0.000693501
0.000510179
0.00168863
0.00745386
0.00100658
0.00727058
0.00066061
0.000733061
0.000385584
0.00265966
0.00695438
0.00207203
0.00747647
0.00545641
0.00449708
0.00223295
0.00640028
0.00481782
0.00657011
0.00404876
0.00534795
0.00744264
0.00744331
0.00432681
0.00732596
0.00728348
0.00468489
0.00685436
0.00194862
0.00410372
0.00248424
0.00412998
0.0073501
0.00683487
0.000918219
0.00579978
0.00392176
0.00224739
0.000637994
0.00590141
0.00187063
0.00450052
0.000994364
0.00288984
0.00128196
0.00401666
0.00742138
0.00539626
0.00413593
0.0071341
0.00410504
0.00371916
0.00454466
0.00685204
0.00587226
0.00717111
0.00560464
0.00344036
0.00654046
0.00310817
0.000625221
0.00427702
0.00460376
0.00511319
0.00335919
0.00121874
0.00271026
0.00460726
0.00572181
0.00355546
0.000999677
0.000858667
0.00529397
0.00351305
0.000301812
0.00161848
0.00207465
0.00418527
0.00165182
0.00328909
0.00445172
0.00422938
0.00102872
0.00483198
0.00437732
0.00152574
0.00668419
0.00237519
0.00336295
0.00335015
0.0036809
0.00179247
0.00514891
0.00657416
0.00751614
0.00254564
0.0046133
0.00453129
0.00251332
0.00638936
0.00100418
0.00303468
0.00399948
0.000353384
0.00228777
0.0074364
0.00368917
0.000641152
0.00200611
0.00248122
0.00748552
0.00291334
0.00136242
0.00680101
0.00752321
0.000611402
0.00187009
0.00161343
0.00173866
0.00727065
0.0059393
0.00105002
0.000587241
0.000692387
0.00737352
0.00603429
0.000515144
0.00745529
0.00204011
0.00394509
0.00143048
0.00144312
0.00730374
0.00419892
0.000868674
0.00408131
0.00532104
0.00606339
0.00381828
0.00662171
0.00112915
0.00027219
0.00476531
0.00377539
0.000625729
0.000578879
0.000565829
0.00249546
0.000865603
0.00232752
0.000448963
0.00283003
0.00235631
0.000735951
0.00456147
0.00312864
0.000832148
0.000735192
0.000307693
0.0074997
0.00738616
0.000728502
0.00638106
0.00435876
0.000570793
0.00642898
0.00367363
0.00598811
0.00545344
0.00521748
0.00719604
0.00040742
0.000722163
0.00159471
0.000879982
0.00239891
0.00512428
0.00457466
0.00594361
0.0033816
0.00613859
0.00699315
0.0056274
0.00628566
0.000786654
0.000670434
0.00690608
0.00220648
0.00713087
0.00403561
0.00290209
0.00360229
0.00387433
0.00592749
0.000725107
0.00128794
0.00488394
0.000674895
0.0029198
0.00138298
0.00583722
0.0043849
0.000772229
0.002841
0.00115477
0.00223266
0.00292446
0.00301537
0.00709426
0.000812638
0.00750184
0.00699823
0.00286377
0.00442753
0.00146057
0.00367878
0.00381058
0.00371534
0.000700997
0.0046561
0.00263843
0.00356012
0.00748853
0.00260579
0.00661763
0.00219573
0.000185783
0.00409517
0.000473808
0.00374169
0.00572684
0.00222124
0.00565752
0.00631775
0.00636053
0.00340106
0.00113675
0.00127039
0.00167496
0.000601299
0.00204125
0.00586412
0.000203245
0.00111506
0.00706447
0.00204365
0.00151662
0.00464731
0.000756066
0.000401887
0.00267895
0.00114269
0.00148555
0.00376718
0.000794904
0.00205085
0.00652609
0.00367431
0.000863637
0.000849815
0.00751061
0.000974145
0.00674288
0.00164247
0.00641999
0.00206084
0.00274342
0.00101308
0.00082441
0.00585556
0.00555586
0.000187469
0.00754531
0.00566733
0.00103369
0.0067217
0.00298346
0.00270541
0.00407215
0.000392864
0.00141486
0.000233045
0.00123324
0.00319327
0.00127038
0.00738321
0.00667682
0.00121829
0.0075318
0.00410701
0.00217378
0.00629509
0.00146275
0.000637222
0.00736259
0.00223794
0.00718007
0.000825919
0.00514742
0.000497529
0.00310539
0.00237939
0.00729762
0.00269569
0.00265826
0.00725133
0.0066628
0.00378608
0.00756265
0.00106061
0.00507619
0.00247562
0.00653691
0.00513644
0.0036757
0.00294096
0.00295786
0.00193746
0.00326031
0.00567082
0.00478593
0.00185743
0.00080212
0.000661559
0.000723489
0.00122386
0.000806277
0.00154241
0.00307959
0.000312522
0.000708726
0.00137609
0.00219878
0.00317188
0.000997869
0.000867227
0.00258124
0.00125364
0.00212917
0.00664805
0.00334105
0.00131515
0.0043148
0.000584778
0.00313679
0.000631624
0.00218769
0.00109384
0.00129588
0.00153075
0.000630577
0.00192525
0.000787974
0.00299493
0.00184698
0.00516639
0.00181751
0.00631694
0.00663226
0.00100497
0.00402239
0.000738011
0.0014029
0.00608542
0.00238664
0.00622966
0.00128355
0.000941861
0.00714281
0.00628809
0.0018528
0.000786694
0.00431565
0.00287141
0.00120174
0.00103297
0.00683609
0.00732446
0.00404476
0.0057819
0.000705758
0.00732747
0.000944618
0.000287837
0.00609197
0.00343731
0.00620349
0.00531597
0.000601726
0.00281289
0.000660034
0.00469571
0.00613479
0.000456817
0.000766278
0.00681306
0.0025755
0.0068085
0.00727794
0.0010523
0.00300542
0.000616408
0.00540703
0.00723113
0.00211192
0.00678228
0.00539597
0.00665106
0.00640325
0.00279544
0.00201009
0.00136433
0.00195968
0.00127558
0.00345853
0.00736055
0.00224834
0.00119812
0.000711979
0.000950985
0.00108986
0.00207512
0.000858249
0.000978878
0.00108801
0.000911039
0.00513673
0.00301783
0.00429416
0.00145951
0.00426613
0.00209409
0.00347717
0.00177916
0.000461467
0.0022584
0.00135633
0.00253215
0.00664001
0.00352077
0.00671981
0.00656433
0.0060971
0.00201956
0.00384283
0.00318847
0.00701536
0.00326529
0.0015252
0.000772499
0.00543633
0.000578175
0.00700811
0.0045528
0.00752643
0.00494096
0.0010532
0.00272336
0.00128886
0.00203389
0.00493743
0.00428945
0.00469031
0.00658485
0.00293753
0.00418199
0.00250355
0.00670686
0.000883381
0.00360926
0.0015391
0.00296755
0.00125558
0.00692575
0.00469937
0.00408425
0.00362109
0.00297338
0.000829289
0.00744105
0.0053081
0.000806142
0.0024977
0.00244864
0.00328586
0.00247178
0.00248973
0.00290248
0.00689531
0.00699329
0.0062746
0.00209974
0.00194492
0.00622021
0.000252778
0.00568485
0.00206977
0.00712108
0.00731269
0.00182971
0.00457014
0.00627552
0.00101475
0.0072953
0.00365185
0.0018043
0.00258195
0.00749304
0.00110735
0.00727347
0.00712373
0.00122383
0.0034116
0.00289687
0.000836775
0.00746228
0.00188256
0.00157814
0.00176581
0.000962435
0.000848334
0.00647839
0.00569101
0.00295687
0.00609369
0.00245587
0.00135775
0.00672671
0.00746009
0.00347187
0.00110174
0.00302941
0.00447175
0.00200881
0.00353786
0.00185077
0.00726372
0.00211984
0.00144288
0.00414709
0.00683965
0.00555812
0.00666196
0.00418973
0.0044378
0.00232548
0.00427676
0.000466565
0.00453211
0.00742588
0.000689145
0.00291912
0.000594781
0.000812019
0.00698329
0.00462583
0.00117575
0.00244984
0.00069865
0.00148275
0.000985125
0.00156203
0.000553755
0.0028228
0.00164046
0.00209665
0.000565334
0.000929953
0.00304418
0.000673975
0.000549996
0.00118091
0.000300352
0.000856038
0.00191936
0.00119414
0.000919118
0.00070671
0.00747761
0.00386468
0.00083941
0.000901213
0.000912852
0.00160375
0.00158117
0.000591531
0.00267544
0.00376549
0.00498492
0.00749077
0.0034393
0.0073502
0.000878328
0.00300187
0.0044448
0.000715624
0.00479684
0.00236247
0.00617292
0.00658585
0.00328124
0.00644036
0.00178702
0.00743511
0.00240817
0.000506059
0.00629199
0.0071474
0.00491014
0.0065541
0.00137708
0.00246981
0.00631313
0.00681724
0.000568272
0.00731237
0.00582886
0.00669667
0.002089
0.00393403
0.00481143
0.00684311
0.00635611
0.000493877
0.0054461
0.00228629
0.00681549
0.00719041
0.0073409
0.00674071
0.00514975
0.0038981
0.00731846
0.00411251
0.0040291
0.00297107
0.000988081
0.00129935
0.00445516
0.00202577
0.00455045
0.00276602
0.00349083
0.00390759
0.00697422
0.00275983
0.00439985
0.00651585
0.00206091
0.00479182
0.00351583
0.00114098
0.00505399
0.00293803
0.00134447
0.00413998
0.00111814
0.00343516
0.000937405
0.000372207
0.00297518
0.00664694
0.00153963
0.00046903
0.00257998
0.00695109
0.0073903
0.0071045
0.0055504
0.00499461
0.00748386
0.0075147
0.00498617
0.00340525
0.00721292
0.00727373
0.00749932
0.00662829
0.00310195
0.00188627
0.00323046
0.00689754
0.00446334
0.000818127
0.00669338
0.00699582
0.00379008
0.000464358
0.000571784
0.00384264
0.00518404
0.00634152
0.00337031
0.00460334
0.000527137
0.00196505
0.00570322
0.00412515
0.00704468
0.0042904
0.00223956
0.00423521
0.00335096
0.0047266
0.00137891
0.00196897
0.00126981
0.0010951
0.000274226
0.00143464
0.00194366
0.00449785
0.00455559
0.00381676
0.00333072
0.00716634
0.00518162
0.000399786
0.00733185
0.00190156
0.000852492
0.00349404
0.00304897
0.000581766
0.00192589
0.00521439
0.00397975
0.00743456
0.00275894
0.000835705
0.00399655
0.00171073
0.00172416
0.00282331
0.000543269
0.000722675
0.0040225
0.00480266
0.00103688
0.00579169
0.00067564
0.000696697
0.000909406
0.00739038
0.00734282
0.000294383
0.006843
0.000451096
0.00230189
0.00362095
0.000907972
0.00102688
0.00712556
0.00747185
0.00100834
0.00714642
0.00713579
0.006072
0.00734018
0.00449276
0.00648756
0.0024636
0.00658139
0.00031706
0.00346057
0.0070091
0.00481545
0.000273288
0.00451461
0.000453934
0.00595296
0.00435592
0.00450763
0.00114515
0.00632207
0.00386769
0.00640543
0.000693435
0.00209148
0.00208569
0.00118527
0.00317267
0.00694248
0.000902932
0.00345872
0.00342774
0.00304357
0.00662395
0.00349208
0.00474406
0.0075016
0.000390087
0.00154589
0.00536286
0.00639249
0.00180594
0.00610912
0.00309551
0.00416229
0.00651967
0.00176804
0.0059998
0.00665011
0.00461948
0.00138801
0.00549573
0.00589683
0.00623024
0.00384537
0.0075266
0.00560711
0.0068955
0.00286039
0.00625111
0.00148546
0.00258533
0.00466858
0.00059038
0.00667912
0.00341904
0.000835586
0.000712929
0.00096297
0.00444461
0.00237099
0.00207054
0.000458212
0.00403079
0.00186686
0.00404487
0.00708979
0.00354758
0.00184073
0.00405335
0.00658263
0.00714418
0.00705677
0.00030288
0.00701809
0.00688407
0.00302452
0.000441156
0.000524061
0.00484291
0.000223182
0.000498782
0.000958733
0.0009866
0.000754358
0.000681099
0.0063965
0.000696982
0.00409726
0.00726353
0.00194967
0.000457074
0.00248316
0.00728119
0.00712954
0.000767969
0.00656935
0.000451791
0.00734183
0.00294424
0.00663628
0.00301418
0.000564405
0.00714799
0.00322739
0.00317746
0.0070451
0.00371941
0.0073001
0.00267669
0.000544739
0.00044787
0.000625443
0.00163691
0.00191249
0.00713439
0.00720214
0.00660469
0.00386248
0.00734453
0.00183739
0.00752417
0.000993279
0.00427785
0.00722244
0.00699252
0.00488262
0.00713044
0.00412236
0.00328415
0.00751981
0.00342149
0.000806019
0.00689352
0.00137209
0.000823538
0.00622997
0.000204731
0.000458006
0.00291477
0.0029746
0.00536379
0.00134512
0.00503026
0.00223988
0.00114021
0.00677688
0.00178859
0.00689384
0.0025699
0.00525319
0.00288217
0.00221018
0.000573435
0.00338006
0.00435472
0.000692601
0.00168219
0.00216302
0.000805755
0.00554481
0.00129301
0.00526405
0.0019305
0.00286269
0.00596638
0.0012042
0.00324334
0.00356353
0.00715763
0.00067078
0.000826326
0.000618819
0.00669136
0.00475351
0.00097432
0.000529432
0.0025223
0.00498385
0.00260839
0.00128129
0.000696941
0.00213152
0.0070363
0.00174596
0.00442904
0.00688818
0.00411269
0.000656964
0.0066515
0.00213877
0.00319859
0.00705429
0.00288054
0.00284194
0.00727906
0.00513259
0.00235455
0.00230862
0.000611699
0.00566929
0.00154203
0.00302819
0.00302339
0.00331431
0.00208239
0.00145937
0.0037052
0.00680485
0.00696295
0.00683318
0.000579831
0.00545215
0.00100304
0.00331721
0.00576079
0.00652737
0.00416735
0.00752516
0.00258263
0.00741759