/*--------------------------------*- C++ -*----------------------------------*\
| =========                 |                                                 |
| \\      /  F ield         | OpenFOAM: The Open Source CFD Toolbox           |
|  \\    /   O peration     | Version:  2506                                  |
|   \\  /    A nd           | Website:  www.openfoam.com                      |
|    \\/     M anipulation  |                                                 |
\*---------------------------------------------------------------------------*/
FoamFile
{
    version     2.0;
    format      ascii;
    arch        "LSB;label=32;scalar=64";
    class       volScalarField;
    location    "0.0126916";
    object      omega;
}
// * * * * * * * * * * * * * * * * * * * * * * * * * * * * * * * * * * * * * //

dimensions      [0 0 -1 0 0 0 0];

internalField   nonuniform List<scalar> 
47425
(
53.3593
70.7111
59.8149
157.789
88.727
68.6976
70.6654
99.518
50.3601
349.483
140.357
51.8807
61.983
68.3368
81.2891
94.3505
58.4004
57.1878
827.343
150.66
77.1519
49.0829
103.543
57.9197
50.941
50.2466
65.2282
648.363
58.167
56.1246
52.4503
49.8715
52.9247
60.3825
51.1184
66.0411
49.931
71.8317
65.6821
68.1779
74.3294
51.2246
52.241
146.253
1679.84
110.711
91.9316
81.5552
72.251
50.6686
495.783
77.9112
51.1689
558.4
116.546
120.066
49.6089
59.5197
72.3585
61.8827
741.742
1354.17
697.942
52.4487
51.3051
51.2869
64.2261
56.7157
645.91
54.9838
68.1149
52.3305
52.9564
80.7639
507.13
51.094
686.496
76.4652
1257.27
128.051
532.122
59.3303
51.2967
55.915
49.6001
75.2215
52.3366
49.6821
60.7928
209.876
50.0781
79.3297
50.158
113.026
148.92
193.113
50.0828
49.5641
71.5053
81.447
59.532
92.4176
51.6079
104.449
49.8871
54.4314
49.9417
74.9307
48.4956
51.0548
264.601
58.6364
55.5352
149.031
53.8324
862.232
52.9393
216.803
84.4235
57.2572
63.9814
51.1143
58.9136
58.0859
100.105
57.9092
78.537
50.0213
103.714
50.817
51.281
103.199
135.648
125.972
51.9747
61.7821
54.0729
59.1127
66.9186
91.2998
73.5142
135.574
66.4001
59.9415
54.3027
50.6504
63.8293
60.5527
150.784
74.3647
58.5704
470.995
53.1497
653.909
53.386
84.4513
58.2942
809.501
97.2174
75.4204
53.6394
49.9926
51.0502
50.9544
301.372
743.278
50.4203
510.765
104.013
623.043
496.267
90.5799
75.944
50.8793
76.1131
71.2897
672.954
59.5761
53.3074
48.787
891.221
49.3491
54.2897
50.8505
49.9486
55.0386
54.4605
85.1538
143.134
53.0535
52.0818
60.1369
70.7125
79.4574
49.9266
52.2865
65.4625
68.4791
52.7119
67.2365
66.92
120.748
48.9325
51.8798
55.2983
155.51
52.0322
51.9192
90.584
53.0887
59.6646
58.3585
53.1727
68.8274
59.0879
57.0416
63.5311
121.151
54.7142
97.7124
158.602
83.1272
53.8704
74.7206
167.748
134.767
50.1914
119.966
56.6545
64.7717
59.7705
72.3277
109.664
49.5951
161.251
89.1229
161.754
121.134
136.883
177.799
68.2769
53.0439
49.6609
81.9956
50.4275
58.229
57.1723
73.672
49.121
68.8589
48.6869
106.965
60.4182
50.9439
87.0068
50.1426
49.8768
121.859
80.5241
53.8755
128.807
54.4403
66.131
133.179
60.048
94.3912
49.4644
60.464
56.1907
74.5795
69.8601
122.676
152.488
53.1685
104.832
178.158
110.263
137.436
135.958
182.943
720.264
51.9266
709.461
126.863
73.3567
68.1271
105.333
73.1235
93.3799
54.8793
521.306
54.2317
50.5263
52.8827
55.6602
101.295
101.783
52.4099
60.197
58.9744
94.5917
50.2196
92.0427
54.2538
613.992
906.312
623.05
49.0688
50.4088
51.2646
102.155
597.317
80.8253
117.117
139.731
77.6843
102.483
125.923
75.4157
269.893
127.412
49.7907
55.6246
49.6945
87.3015
49.7345
69.2397
55.3742
51.936
67.9315
62.004
415.551
54.4002
68.811
131.461
50.0044
434.578
51.1578
49.6822
53.5783
52.3491
52.7131
49.4809
51.0925
51.7935
55.698
58.2486
52.1842
68.0774
89.2339
51.53
52.0909
61.2487
52.3403
51.3367
58.6219
74.4748
49.972
55.2095
96.8355
64.6099
56.6977
85.4983
82.4789
50.6357
51.6153
134.837
54.6083
65.1231
50.9757
135.459
521.902
68.7545
49.8531
200.511
49.7468
51.9037
97.4378
76.3891
50.0962
70.0327
50.14
48.9203
76.5678
89.8511
84.9827
86.2696
51.2861
55.0381
82.8906
52.2214
52.896
77.3542
55.4609
63.329
52.1787
57.5496
88.8982
70.0416
50.7063
336.111
49.6407
231.078
74.7592
109.535
107.989
50.4306
139.61
49.2143
96.0281
52.4992
1077.27
282.576
52.9556
55.8803
70.0875
74.7668
76.0255
76.525
65.5904
90.3559
68.2625
50.0511
94.9935
59.6648
50.987
67.207
61.7212
53.311
143.673
1065.33
52.1899
277.63
832.665
93.1251
890.595
645.767
51.702
68.1106
64.3958
63.8627
612.329
94.2181
50.4351
51.9448
59.7396
61.3288
79.6605
74.897
286.932
610.679
134.011
69.966
78.3278
61.2067
53.9494
52.4722
60.5962
53.3421
87.1643
77.8219
133.775
68.2589
49.9532
70.0081
55.1963
82.8937
53.0404
57.4254
62.4008
69.4224
66.9015
110.277
129.431
57.5251
88.1463
53.5204
330.834
125.438
74.6483
53.0109
142.934
104.955
53.4385
50.9328
54.0562
58.3577
60.1326
55.1318
112.639
63.3882
53.4675
53.2922
154.986
96.0582
49.4778
57.6068
53.7184
62.0351
50.1812
53.0983
49.9017
65.4222
56.5272
111.84
58.0971
49.0772
48.9176
54.5749
73.3724
129.248
52.2816
50.0065
54.956
51.6294
53.0602
55.8367
74.5553
67.4146
55.9746
78.6841
103.013
385.939
63.3823
68.7147
56.7199
50.2247
101.035
102.081
81.555
53.7006
85.2787
62.9724
52.438
111.614
50.838
322.948
56.3697
57.8286
61.0584
101.365
48.7652
66.3324
65.9141
50.2837
49.2896
52.0539
988.364
54.8602
154.832
50.6547
85.9557
54.9673
58.3058
76.2415
72.0261
73.1532
49.5271
336.429
51.4346
53.8434
51.8648
51.3569
49.5203
63.4559
64.0459
54.4211
51.9926
66.0786
49.3275
171.219
50.6994
60.297
381.197
70.0061
50.5695
227.09
479.059
49.8203
651.873
687.851
62.72
55.6156
50.6832
49.7271
88.888
94.0576
315.115
51.4759
135.306
51.8673
89.6638
61.9086
87.8144
65.0211
228.275
104.243
51.226
84.829
75.9556
70.8974
122.667
127.768
50.8048
92.8052
134.801
64.8927
69.9976
109.85
57.15
50.6008
114.314
95.6979
67.2957
126.854
106.636
56.7182
77.4619
55.3147
62.8588
70.4856
53.0789
50.7487
1349.69
58.0719
62.9786
893.323
893.389
48.6529
79.9217
1459.55
177.938
88.6021
164.834
121.02
624.106
54.9572
50.0376
66.7537
122.717
115.771
115.059
50.6435
122.65
61.4935
72.4298
53.9425
80.9224
55.6092
229.15
577.587
123.628
60.3753
88.2321
51.5176
111.585
55.4969
66.5402
70.9161
66.0383
51.2681
189.751
78.7667
51.1507
76.4633
195.201
722.998
177.338
90.5548
52.7916
75.9701
49.1916
782.784
68.0644
408.079
82.9613
64.9922
59.3488
68.9718
63.4452
68.9201
63.2485
79.7155
50.9162
210.111
65.2011
50.1674
64.9811
91.6097
918.469
59.4858
207.205
62.2039
50.285
48.9616
150.08
70.2569
65.416
51.5738
62.9492
60.9584
74.393
76.6555
78.8071
59.2834
122.219
195.004
66.5414
95.7636
65.3172
113.988
80.1047
48.9814
51.4252
56.3524
63.2523
73.6431
50.0599
310.668
303.599
91.5125
63.923
50.4517
90.9174
50.9738
138.638
53.2628
164.781
86.8952
49.2943
75.2712
50.0855
56.7542
66.044
50.5185
87.6477
51.2817
51.184
53.7832
161.066
48.8389
303.384
121.768
206.946
368.085
81.3023
66.9421
60.4752
58.7752
135.88
341.606
325.857
69.48
55.1825
67.87
124.175
154.009
134.111
92.4862
53.2604
61.616
63.9987
118.95
58.3659
86.7976
234.185
64.1268
69.3908
154.929
114.862
109.993
63.3048
569.299
341.564
218.54
246.719
84.7618
124.856
50.1165
49.8388
72.4822
405.044
190.709
70.6708
75.1907
49.2775
289.349
367.667
49.2152
172.796
87.2945
49.5471
170.988
49.2472
49.59
67.4967
72.7007
92.5069
50.847
49.7409
55.5451
71.3394
69.9721
138.939
94.774
48.805
264.454
52.051
49.0745
49.8311
207.273
82.2226
236.332
95.3114
51.3994
53.6778
71.8198
998.868
71.5527
82.3088
81.6845
67.259
63.9462
122.254
120.926
129.761
347.035
81.5085
608.629
51.0836
69.3117
51.9444
65.2555
50.324
167.752
131.073
50.9604
359.978
105.746
64.5454
167.323
66.2925
51.8617
72.002
68.9922
70.0349
95.6745
373.682
64.8175
67.8597
208.526
224.21
646.766
221.254
92.1112
187.024
53.0668
50.2833
91.2935
85.0981
84.0112
85.629
96.1143
95.0863
51.635
58.5375
111.16
102.275
91.8423
90.8461
1319.65
80.2159
57.1012
92.8651
208.382
153.075
228.56
96.1255
69.9726
99.0649
95.395
59.8595
50.3284
54.0726
98.9732
282.155
108.007
68.054
93.5358
50.3397
110.272
132.756
81.992
217.689
51.5707
71.0023
132.394
99.7743
71.1215
70.2231
107.098
98.7691
88.3252
66.2799
144.709
56.763
53.4571
54.8245
88.3511
55.7856
148.522
53.7503
228.584
312.574
101.658
82.7613
86.5762
52.3833
72.1782
115.8
448.964
135.926
436.982
52.9758
61.5789
55.2468
197.176
77.3392
272.408
240.343
236.15
67.5945
273.341
82.5928
70.8896
64.27
56.0834
60.0894
71.2521
74.8405
98.9082
69.5828
53.6369
58.2801
257.623
553.336
145.172
167.78
550.817
192.84
95.6224
78.3719
70.2417
108.016
181.051
190.03
485.261
53.936
56.6855
62.2361
53.802
68.036
103.855
87.094
56.7256
106.066
52.9448
76.6106
51.109
53.1836
122.237
63.2413
124.024
55.3779
52.2658
163.723
51.2737
74.4876
87.4888
54.6
65.1744
112.337
61.3052
63.0458
64.8812
154.083
186.583
124.186
98.9155
1739.28
907.367
230.57
413.586
110.274
57.887
1349.26
307.674
57.306
70.7961
108.824
88.9864
305.739
138.159
54.9013
118.079
60.9538
51.577
204.625
841.754
120.729
1331.7
141.54
253.941
1309.26
54.8255
81.0223
133.353
177.279
98.1911
54.1322
56.4199
722.53
51.9469
171.25
63.7623
164.753
49.5886
55.4273
270.875
277.363
87.9285
61.3907
60.2163
303.247
50.4221
49.2154
166.114
323.055
74.076
53.0098
977.009
704.08
329.236
100.161
84.5345
217.976
377.988
72.24
110.266
90.2672
56.9656
84.9415
246.14
1142.48
62.5424
62.068
58.8503
52.2476
57.1948
76.2556
137.285
63.0045
50.2312
50.6991
64.7534
271.071
1394.31
54.3111
249.468
82.0518
67.3975
138.844
51.2649
84.268
61.3073
58.1504
201.943
52.6383
443.746
49.2091
755.889
652.363
286.628
204.818
58.5593
66.5569
107.498
51.5096
201.767
1724.48
109.164
286.412
191.95
410.3
134.756
752.221
453.844
93.5824
51.0549
2035.37
74.9206
51.9839
70.5632
421.038
1040.24
73.0904
55.4645
390.985
76.5322
489.623
672.382
110.999
128.997
915.125
108.346
56.578
593.724
52.1373
985.139
990.535
50.0448
63.1863
77.3508
54.5941
128.503
88.4896
53.2968
127.79
91.3089
118.289
63.1459
52.3536
131.785
57.9421
697.465
58.9715
93.4714
95.3528
51.0034
704.207
79.179
118.62
148.39
309.364
84.1224
653.651
183.212
131.8
58.9969
1442.1
215.281
174.5
76.5028
155.105
64.2858
77.5324
61.8828
296.087
358.334
91.3993
631.706
151.262
102.088
216.059
131.449
144.916
543.785
122.643
49.6571
145.648
85.6839
149.404
187.614
730.094
56.3901
55.0531
65.879
811.524
67.3616
349.935
62.2708
64.8762
53.5417
84.5037
61.0856
190.862
180.43
57.5669
69.0789
92.7547
75.4144
891.947
134.63
88.9063
696.317
269.756
123.155
129.324
68.2007
62.1232
835.397
62.9685
806.237
141.32
55.6414
63.7428
63.861
97.2693
61.6014
74.3797
97.0138
81.1399
65.6339
70.237
73.6636
91.5601
67.7346
204.005
160.57
98.8733
54.822
696.864
289.159
66.6317
398.804
325.365
52.603
119.16
478.262
231.145
56.1503
84.7248
162.656
135.669
298.182
54.4159
521.81
96.7031
52.6597
67.8212
113.155
132.357
129.947
68.1639
208.907
49.5202
314.448
112.997
978.217
147.967
63.184
123.313
136.408
62.8042
76.3546
64.729
88.2316
1191.97
70.9485
67.1424
825.914
49.3163
74.6334
378.146
57.0289
151.402
729.312
147.849
81.7005
72.2539
882.814
187.21
294.014
139
81.2411
60.7254
106.055
464.17
764.533
95.0172
90.8401
56.0716
87.0753
84.9982
132.402
299.846
97.241
54.0732
57.7864
56.0931
54.4715
89.4686
56.1336
56.9901
125.168
97.0021
50.6092
135.037
93.4853
66.2136
52.1244
136.011
59.4791
52.7945
51.648
107.27
96.5018
52.8921
99.6824
632.845
89.1708
55.6301
52.1611
49.8896
177.937
59.8014
52.9681
525.981
766.534
276.864
52.3586
540.198
161.066
51.2024
792.859
111.928
789.05
98.4524
70.0972
86.6335
73.4091
49.3925
87.7838
87.0267
94.609
109.24
78.863
107.83
146.284
81.9155
70.1895
380.317
87.1696
1203.24
75.9679
593.924
50.8128
123.113
189.24
51.4009
69.5389
192.311
49.4594
211.609
186.508
1096.08
59.9835
431.779
55.0834
115.04
90.4481
54.3864
483.962
57.5622
235.37
52.9859
608.217
611.947
77.6192
49.5001
288.784
74.2567
277.593
64.5846
98.9706
68.8902
68.4343
54.6911
54.0873
66.5152
158.964
60.991
179.803
88.9953
70.8882
50.6144
150.692
208.411
89.3374
154.92
53.0706
64.5542
122.677
85.4913
68.129
53.7993
157.577
126.534
50.8476
76.5541
63.3932
71.5073
95.3302
133.566
168.366
72.9529
95.4514
157.642
84.774
52.5217
62.3704
50.4132
177.173
169.308
203.583
107.569
71.7188
67.203
72.5167
53.4419
51.678
58.5704
433.936
130.744
615.246
445.156
571.286
54.9956
61.5625
59.5761
62.2327
53.2988
269.966
72.7509
49.4221
80.6074
106.908
68.5862
129.524
64.488
159.078
72.9518
104.332
50.6734
69.4729
86.4377
94.0927
63.5889
120.162
88.4085
79.3206
73.3751
72.5596
77.9186
154.951
179.436
55.7429
86.2993
122.3
100.941
171.508
50.9862
51.0815
127.108
58.6968
53.2533
78.7474
50.8235
51.4351
70.9487
78.007
155.416
70.2749
84.6778
50.7217
66.4183
461.94
81.3261
87.8692
54.2392
59.004
92.0194
88.3677
820.263
110.936
159.752
49.7135
57.0535
73.9348
50.3229
53.0494
111.943
87.0242
52.0099
49.0564
159.277
102.974
447.054
123.955
133.046
104.061
66.3855
111.977
269.856
179.103
79.2299
76.8754
847.82
60.2575
79.5073
93.491
88.9771
51.0803
894.178
64.2808
98.5273
55.9875
127.094
60.7516
902.735
932.486
66.1375
51.4598
49.5605
94.4641
100.201
56.0593
1094.46
634.864
59.4143
144.055
313.955
58.4818
51.4458
100.816
50.1053
58.5873
52.1874
69.6714
87.391
87.0082
76.4582
53.1412
61.8816
69.8446
51.35
204.438
66.9581
85.2946
123.503
314.986
195.299
106.15
135.54
64.8431
134.051
128.105
53.8257
557.165
198.386
132.184
80.6627
107.253
95.3552
93.4226
149.257
49.9066
49.9513
69.7084
71.5663
134.121
83.085
328.584
432.623
54.0781
132.886
50.6837
50.7873
81.1569
59.5413
69.3766
52.9186
49.7702
211.076
377.52
50.3565
49.7465
86.497
985.57
58.7498
49.4847
58.5188
140.034
849.788
76.0883
275.515
169.465
236.862
300.439
74.4644
52.4694
49.5713
65.4258
882.218
52.5095
87.3158
81.5108
50.3141
505.238
898.199
842.142
214.133
154.886
54.1003
53.9268
56.5483
73.1268
548.845
435.758
368.734
502.767
317.12
64.0048
50.966
781.481
53.8843
832.173
97.5613
825.363
83.1572
127.137
52.136
102.411
171.83
173.525
51.1124
69.2933
93.2405
88.9452
69.4213
77.6194
68.6111
1035.22
532.45
73.674
207.466
440.163
197.328
60.6127
50.9103
422.084
373.373
279.94
52.81
900.891
52.0287
818.327
1347.99
491.334
149.389
55.0746
60.6947
48.4916
69.1101
82.329
140.74
60.3558
78.4585
56.5411
93.7803
69.2295
50.2867
49.6837
105.211
50.8257
50.7877
82.2844
55.5933
87.6009
93.9445
158.728
92.7812
50.8486
57.3701
107.287
63.1655
94.4108
122.484
1281.83
55.2631
427.557
64.2993
98.4042
177.314
74.9599
61.9469
50.6797
62.133
91.2983
51.8873
93.1428
100.32
81.1731
56.2941
64.6855
51.2359
64.9657
113.991
57.9319
102.02
274.994
88.1592
81.1566
72.8811
112.063
85.4043
199.312
51.8748
65.7581
107.219
184.019
204.185
71.0351
110.917
880.509
248.982
188.794
91.4775
74.3378
115.958
83.1289
53.4645
132.96
79.9449
86.4863
119.321
56.3713
165.579
112.177
118.856
103.22
204.065
74.8156
57.2127
51.015
58.0637
78.9454
84.3608
374.863
57.8496
89.274
129.924
94.8007
775.619
60.48
50.2857
105.909
283.664
235.575
157.183
50.5612
136.154
71.7634
56.4855
50.9365
503.827
100.715
63.8752
277.49
52.5321
63.1627
149.142
676.091
835.168
51.0442
65.767
847.891
50.496
109.979
72.424
361.027
311.015
51.7769
90.3686
793.631
93.5307
63.3072
61.3043
98.6391
56.0834
73.21
377.92
54.0233
98.7869
494.988
153.042
524.444
81.9828
366.564
57.3725
997.949
109.31
108.477
501.823
85.8175
143.755
367.882
282.113
302.669
50.4411
50.9884
400.635
60.0373
87.8443
360.312
59.7173
61.7951
62.7014
74.5885
72.3087
52.893
713.992
381.974
127.35
240.263
167.221
75.0787
83.5831
65.8493
114.788
62.8107
53.8255
69.1658
61.9443
331.584
344.046
54.8022
59.1135
52.0684
68.5736
94.0167
107.864
97.6014
66.967
369.534
65.1713
64.0312
281.037
129.564
357.753
67.5576
86.5378
508.608
139.646
109.317
196.669
135.12
125.746
53.0862
892.2
50.0923
52.4377
61.0693
89.1761
73.8101
102.493
105.39
102.053
155.884
79.7882
113.234
103.176
50.0244
90.2336
58.7852
242.139
1094.17
91.1339
304.653
84.1576
65.857
412.023
66.2307
59.2123
59.7124
74.201
546.467
187.075
58.2269
303.017
222.004
65.0238
1706.45
321.591
54.8146
181.343
69.9222
79.7128
225.904
374.399
147.33
658.51
62.6481
54.7491
153.807
59.5497
52.4289
107.008
268.148
383.171
49.0941
137.844
53.8652
147.186
60.7331
146.583
164.69
91.5854
248.16
65.6184
69.6327
678.181
50.4939
52.8773
126.796
56.1325
132.705
218.822
54.4669
907.558
489.109
775.069
329.737
120.967
75.4867
50.1574
56.6364
88.8702
49.9599
90.5034
149.935
59.1968
78.1844
530.789
51.5501
137.84
52.8372
126.981
62.9899
680.204
121.272
80.2759
52.6074
139.996
150.904
52.7101
57.8367
98.9272
49.1029
199.467
72.4651
108.505
59.9103
53.9388
103.494
56.4172
131.355
163.096
53.5239
60.0299
52.8423
66.6933
279.323
220.388
137.234
314.867
669.319
142.91
72.1562
624.602
310.854
423.059
67.3944
148.782
144.154
272.785
178.396
771.923
61.7637
56.2833
136.415
567.446
58.0279
373.223
80.855
377.654
76.9647
76.2639
452.143
193.132
282.166
67.5834
338.12
126.96
292.661
53.2343
216.526
58.9364
56.9535
93.6272
93.0455
311.091
107.443
62.722
164.372
61.5408
162.04
233.076
53.2423
62.5975
62.8488
801.111
69.6645
129.451
120.171
138.29
54.8138
52.5153
95.7432
65.546
293.537
52.2996
106.743
346.129
61.2399
55.9434
62.3947
58.9125
481.629
140.2
179.624
79.9368
62.4166
1136.79
1462.48
55.1808
147.643
55.2317
52.1616
272.572
69.3841
433.277
61.0319
52.0573
94.9125
56.4675
57.4485
57.1779
60.9598
139.651
139.484
148.889
142.802
73.6729
77.545
51.4369
169.894
479.137
785.665
76.7349
302.29
191.506
538.592
89.9545
368.474
109.473
77.6539
130.366
89.3549
276.15
69.0235
153.59
109.004
62.0006
961.466
110.378
399.729
110.385
56.4939
107.836
56.7124
57.397
60.3694
118.799
96.4406
114.888
52.3212
116.319
256.318
132.369
70.198
164.872
58.5758
59.0886
49.4602
76.5847
81.7622
149.354
76.3851
100.46
75.0733
67.183
80.4097
55.9032
65.1632
59.7156
100.922
57.0386
102.386
57.7081
70.5675
129.946
79.3496
55.5347
80.6796
90.1425
93.7514
130.205
305.415
49.5869
66.9933
335.829
160.534
157.412
55.854
158.892
86.657
143.222
55.3937
53.9017
61.1943
95.3262
62.9611
59.5756
702.02
62.3408
185.425
53.3675
50.6781
157.271
83.9832
61.9258
126.892
51.7356
86.8096
61.1425
232.694
49.8677
149.472
51.2386
53.215
81.816
69.2579
133.855
103.988
50.1653
125.676
69.8295
75.286
97.3689
648.402
57.1537
68.4792
132.001
64.9402
58.0398
129.822
56.438
50.7063
109.61
186.722
127.997
87.9086
258.631
113.589
335.998
52.3926
184.14
69.7941
89.4831
56.3709
58.8086
56.9323
61.2561
86.756
166.547
63.6143
472.324
70.2632
51.6317
413.692
133.713
1783.01
291.948
56.6309
83.0544
105.81
124.109
417.065
70.6825
311.104
92.1634
382.335
68.6565
227.222
66.346
235.657
208.718
130.223
302.323
430.053
747.77
1272.57
420.72
670.02
185.888
331.694
369.146
50.4401
101.207
270.191
74.7879
444.667
62.8075
353.014
534.801
128.108
104.026
76.1935
49.5857
109.896
50.9151
247.5
134.134
86.259
177.805
76.9227
156.901
62.1839
58.0497
116.924
57.0315
221.251
50.7657
74.3194
672.452
59.0568
53.5629
77.7554
56.7715
391.385
152.971
63.8497
55.6151
182.73
50.9677
66.2753
57.2153
60.4871
95.2938
78.3056
54.2841
58.2942
305.688
68.0405
67.4972
56.0013
53.4006
51.9392
58.3111
73.8241
97.5218
51.032
71.1268
92.1907
59.8075
208.416
78.5634
58.9503
66.3974
83.0976
144.151
111.897
98.1086
54.1125
121.249
85.766
59.8433
61.7503
80.9489
74.0285
99.1198
75.7154
134.203
72.7062
71.3865
119.611
122.663
606.246
1007.58
132.815
58.3298
220.19
167.87
78.2588
54.2574
50.6592
53.9739
67.4017
75.7904
49.9062
51.9221
53.5888
109.543
53.4375
52.0575
50.1292
59.1459
134.472
60.1813
119.223
55.3047
84.1696
271.724
55.9004
53.2572
63.108
895.308
1172.52
102.336
76.345
58.1181
60.8579
68.258
348.567
70.9147
66.1837
93.3831
54.3351
87.4199
59.6764
62.8613
114.061
78.8137
69.1684
206.027
158.702
70.3197
1763.2
149.12
203.404
62.5701
81.243
98.6333
118.661
52.5868
71.8199
314.534
52.2968
205.849
517.712
112.298
128.405
489.482
73.1898
71.7242
94.5925
50.7431
125.414
307.32
95.7589
90.4522
151.491
184.619
940.267
581.881
92.7452
54.3523
138.534
64.5987
174.536
148.075
485.456
50.9892
50.6577
515.304
56.0026
212.803
76.8046
105.278
588.552
673.38
54.0675
50.2013
725.517
53.8216
52.4125
60.0446
51.149
86.3157
58.7366
215.442
57.9595
554.273
107.749
54.331
76.2589
662.155
83.4973
563.178
65.2634
61.4486
83.2062
88.7682
59.1327
68.0211
57.4109
482.153
106.061
107.108
372.293
117.76
54.6234
496.025
80.2607
113.575
73.8737
59.5677
109.175
65.8568
52.0688
250.887
72.7953
71.2883
57.4019
92.4365
62.5994
64.5604
56.8599
57.3746
159.58
62.5229
56.3325
81.3557
316.005
67.4052
63.9543
60.9208
97.4631
49.2156
67.7
55.2018
133.479
61.9475
144.543
151.272
79.4453
394.716
58.9825
61.0662
287.229
294.859
581.649
85.2421
259.577
61.3778
432.662
97.0849
163.049
97.4119
53.5311
104.255
212.769
96.9864
57.7566
52.829
53.0191
471.671
53.0885
55.5818
61.1888
2102.27
392.374
52.4728
1389.92
376.776
313.961
142.157
1339.27
363.391
60.3934
236.825
93.8696
52.3524
234.22
871.739
68.8035
51.7916
52.7731
507.336
58.151
861.936
50.7801
131.037
59.1475
130.106
322.689
52.9143
118.938
116.85
53.5697
106.539
50.6452
128.876
1583.55
1656.74
504.309
97.2291
318.486
50.42
52.2823
55.6678
98.2348
50.9401
62.1064
50.1216
78.5387
92.4776
52.4684
54.0337
77.723
53.5946
91.369
115.996
50.1868
111.564
132.108
56.1019
61.7785
793.149
61.8398
755.412
565.44
133.587
136.3
72.0341
119.538
59.1
59.7375
276.864
56.0395
66.9034
54.9795
60.6579
71.8797
131.103
85.8688
185.958
114.617
54.3507
455.421
65.6354
259.342
201.366
69.7887
826.392
66.4732
63.879
60.2991
64.5568
77.0379
57.0645
103.729
52.5329
288.628
205.01
398.117
56.8482
61.0171
85.2817
372.571
171.821
74.9031
144.914
69.7127
252.073
68.9686
54.5904
218.366
87.7162
55.7822
92.4148
1151.55
57.0752
62.3115
123.457
53.7785
131.812
138.947
51.4049
72.68
162.004
172.636
771.049
65.4565
241.332
202.104
147.357
58.121
188.404
96.5404
106.752
56.5813
53.8262
56.2836
440
71.3477
107.553
91.3859
67.5926
58
90.1185
50.019
145.37
50.7243
66.0264
169.229
107.692
72.1286
170.037
98.7955
83.6976
74.4337
127.709
50.0852
131.696
337.721
111.136
59.9091
51.3958
119.405
53.61
51.102
85.0931
50.2727
109.683
89.9849
49.7894
52.7402
105.23
116.874
158.245
49.9291
711.433
50.1769
98.9255
80.6158
52.5
670.293
151.557
611.3
51.3417
65.1252
526.847
671.635
93.9708
96.8068
179.882
130.411
58.6361
62.6926
67.2845
150.446
82.3955
135.661
52.8803
137.166
100.857
109.782
52.0324
91.5411
50.4164
62.2659
400.391
133.018
83.0192
53.6262
108.936
88.0285
85.6161
143.147
52.2741
54.3389
65.0175
88.747
86.9271
67.9078
113.249
61.047
57.0989
53.7101
62.9411
63.1208
54.4448
103.774
69.4783
63.0024
1908.38
76.4407
63.1068
78.3378
51.2718
87.6576
198.171
55.6492
83.9397
80.6515
932.29
66.1361
62.0171
95.6149
1370.53
97.0038
150.838
125.979
73.7061
49.7067
67.4618
69.1135
758.585
100.559
73.0098
64.1566
51.8837
175.361
53.7634
735.25
181.27
114.016
78.6183
65.4093
108.167
94.5096
65.99
309.146
118.11
337.128
54.7751
140.148
546.873
120.149
56.812
102.579
58.5824
575.147
66.0493
57.0949
87.4919
49.9414
57.5737
82.7203
51.8472
117.074
50.9546
204.035
50.6008
80.6176
61.5069
150.414
88.0284
128.441
78.4049
507.198
101.601
122.366
76.9224
52.6871
105.356
61.2502
57.6291
69.0678
66.1892
59.4356
123.546
50.7257
61.3755
51.0997
232.554
87.8731
347.498
519.967
180.106
161.44
69.5634
71.0648
54.6894
193.273
90.8414
54.7963
52.3703
110.373
75.7737
53.0361
78.7552
984.534
81.9933
63.804
67.1678
404.032
800.734
63.0699
492.511
538.959
202.342
239.011
165.92
378.312
74.0594
222.346
697.429
70.064
53.1131
57.6241
98.979
319.08
54.8651
51.8914
71.0068
153.217
157.498
843.015
113.005
868.927
116.531
56.7498
87.6335
63.1071
60.9662
732.965
53.472
185.743
437.986
56.5544
464.287
2058.72
56.6467
87.1005
78.6607
425.211
155.702
121.773
670.052
1023.11
97.8001
429.5
129.755
253.343
82.4931
53.752
154.836
537.953
580.303
64.732
111.828
139.829
100.598
217.787
54.7695
62.498
812.558
208.622
424.332
49.8767
269.704
63.6171
400.782
65.1555
98.5356
185.643
352.131
85.1249
104.583
377.787
96.401
459.38
86.1781
71.141
239.405
53.1204
160.927
53.0707
52.6053
50.934
78.321
369.916
431.755
221.569
63.9865
72.3021
209.197
62.2378
430.661
73.1371
59.055
75.9992
133.311
154.94
534.628
52.2925
74.6147
70.3613
301.836
109.777
579.874
794.86
391.256
106.944
67.9172
334.005
387.58
143.313
58.9689
64.4016
49.6851
715.229
203.673
305.89
1781.16
241.295
92.6727
87.2582
657.747
390.197
73.842
91.9263
106.415
379.241
59.4034
50.4894
92.2718
69.6662
549.28
327.241
225.523
79.3003
194.309
399.985
175.4
96.7601
716.539
238.293
638.528
204.232
230.608
518.157
155.531
61.7736
99.8093
63.9461
53.6069
71.8294
64.201
147.401
150.565
84.1722
179.481
181.723
143.489
56.7824
190.621
97.4801
63.1291
129.688
568.66
1025.5
514.209
68.1553
111.789
69.2586
131.178
386.709
151.132
379.968
71.5492
408.887
292.412
182.944
54.2098
51.1508
67.2868
66.0569
557.259
88.6602
59.5739
203.345
68.3343
762.225
336.732
99.0133
366.759
62.7114
51.2429
49.6578
50.5254
102.54
70.3583
92.3462
132.559
70.4535
51.1891
170.474
509.299
466.657
51.068
106.09
59.8695
70.6658
61.0508
542.862
56.0145
57.1239
54.9636
91.7012
53.1375
53.9166
93.2462
55.9151
60.2411
58.2698
229.899
51.1559
65.45
98.6137
378.197
341.824
67.0832
595.129
537.996
58.3832
58.9867
158.362
61.4733
140.096
83.6259
87.3665
78.2618
153.102
72.7423
92.3354
898.593
346.315
101.21
526.646
53.3671
52.9914
65.4395
51.1737
50.754
71.3654
54.2214
70.14
184.605
72.5651
406.18
64.4862
457.932
73.2943
49.4194
686.698
112.061
82.4942
503.749
98.0367
591.66
74.4172
329.421
50.4089
170.273
91.9906
215.213
51.9377
85.0569
74.8157
418.964
52.3037
50.3189
54.5704
82.3016
115.152
59.4318
60.4598
93.6835
52.618
123.467
53.1127
62.999
139.981
89.406
146.404
61.2418
54.0525
57.1911
50.8519
59.0543
75.595
49.8397
85.5083
50.8676
231.214
119.498
58.3413
111.374
113.238
62.757
83.4506
61.4476
128.558
158.076
55.8439
52.524
89.6963
75.1074
325.121
440.763
453.432
66.1315
56.3853
55.3153
60.9134
78.5264
765.923
236.292
65.1152
59.7293
63.2454
53.4868
50.1701
73.4707
137.433
160.416
436.969
192.305
62.6769
76.2323
76.4794
49.643
266.12
74.6408
61.3546
117.566
56.6433
874.962
75.4496
53.5382
67.499
72.2624
145.441
480.203
51.2795
395.152
61.2906
683.922
102.155
493.832
69.5817
53.0709
59.4759
107.201
59.6138
52.5239
112.642
48.7714
50.3435
55.7865
66.2982
196.217
64.5977
711.799
79.1356
56.7478
130.467
172.983
51.128
330.76
870.841
730.073
523.325
358.517
54.1115
392.74
361.656
79.627
62.1867
59.4702
656.11
94.322
97.2513
49.2561
71.253
162.605
573.759
151.28
81.7783
49.444
69.839
240.828
53.5596
56.5202
471.212
366.631
244.478
654.45
73.7646
48.954
69.4814
74.6547
1030.57
51.0343
51.1762
50.3076
298.898
50.4312
59.4294
100.028
99.7283
50.9486
91.8524
53.9161
141.714
66.1883
135.2
61.1923
195.875
93.8036
117.097
161.138
115.99
170.089
59.3947
611.249
92.0369
283.063
294.1
270.145
84.1841
69.9604
190.198
74.9264
49.0349
54.3527
50.4729
90.1751
560.677
120.309
51.1879
84.521
60.9869
49.3902
121.143
58.3488
138.328
94.9494
56.0716
103.436
58.4511
68.904
155.187
410.262
64.6486
100.959
80.969
108.532
490.65
176.971
404.209
753.2
139.246
56.4851
57.458
50.1441
109.594
749.877
81.4781
755.946
121.892
54.4872
120.499
384.496
55.9319
55.7295
59.5573
72.1337
52.3646
193.989
60.5828
82.925
162.409
50.2962
101.64
54.4255
125.019
54.9651
59.474
541.151
73.2584
119.011
59.5719
59.0758
50.8211
99.0176
123.888
100.718
92.6327
70.3493
62.1105
68.5697
59.1364
232.952
58.9072
59.5927
118.4
200.276
235.566
53.3767
89.9042
112.855
166.409
68.4602
158.01
54.285
132.678
91.4253
57.2069
140.714
83.0497
52.477
192.531
82.072
52.9583
54.961
145.671
92.4304
98.1157
57.4062
118.196
85.5927
52.7149
95.5405
321.022
66.5524
66.6644
85.9913
557.515
68.3882
79.3838
157.635
62.4962
151.764
56.6683
622.003
86.1721
76.2388
84.0161
55.8326
115.271
55.4876
387.979
50.0827
70.6562
533.102
61.0436
112.441
203.256
86.5534
54.046
402.284
53.7199
51.2724
87.7811
123.932
59.013
282.993
51.1889
386.827
111.464
50.6065
80.9208
121.69
625.998
181.955
74.4498
52.2272
124.464
312.203
481.923
115.85
127.328
900.053
201.599
121.527
132.692
83.7549
104.212
64.202
519.464
870.59
155.02
173.946
103.08
830.619
441.768
444.106
330.65
167.387
60.4282
56.8849
153.425
76.497
492.181
339.82
67.8546
604.43
111.072
52.6938
58.9372
56.4721
110.292
87.5239
92.547
79.9266
143.027
185.249
804.995
59.5514
120.943
626.64
553.056
182.957
186.35
68.7941
686.395
49.6214
66.201
363.232
149.239
53.3184
284.238
375.408
64.5175
114.766
57.6205
102.486
54.4259
82.9459
177.933
88.7206
509.469
49.5734
58.5137
89.5496
448.123
177.89
124.59
167.248
145.226
123.983
65.3461
355.07
107.402
71.5532
183.76
766.402
246.043
57.0762
280.998
161.025
85.4357
68.1762
124.959
54.1735
76.3023
81.1457
79.9745
73.2733
66.1122
83.7361
52.2106
50.5543
50.0083
104.984
55.3997
162.419
432.677
626.955
84.2135
75.0276
55.3578
56.9319
104.711
559.564
59.14
147.179
72.8638
134.037
57.1424
75.7755
55.3453
267.552
50.3647
55.1799
227.337
55.1189
67.5098
74.3686
56.7138
330.489
77.4576
508.054
315.092
245.748
537.821
173.11
340.245
69.6878
83.0325
144.022
62.0836
321.49
78.2221
84.5041
129.887
70.5497
68.0788
54.5976
58.7198
54.9002
51.3102
87.6614
280.979
50.5293
774.726
115.429
288.577
123.879
248.032
1753.28
58.9377
269.379
1387.61
77.0078
307.019
79.1866
71.5032
658.39
903.494
247.08
159.71
61.9812
243.084
99.5143
439.958
55.4343
61.1934
207.132
942.129
61.0279
73.2456
57.5773
127.228
370.926
57.4801
486.158
284.038
538.605
650.636
59.7704
178.969
64.0844
484.386
384.407
262.017
209.26
90.7392
363.151
158.531
237.631
65.0844
65.3909
60.2232
62.8573
59.1808
1365.97
65.0144
96.48
70.9574
63.5745
75.5286
854.775
79.1302
217.646
295.725
78.2637
109.263
131.745
49.5035
60.8627
848.336
458.798
232.618
189.336
145.415
69.7101
381.718
58.0116
142.079
134.795
58.6703
388.705
109.596
149.159
361.876
76.1856
93.7734
96.0228
78.6598
57.8898
136.911
68.3026
346.694
61.5967
163.697
70.5895
208.157
64.429
68.7164
378.55
126.401
237.183
51.1741
1650.93
52.8443
55.2672
53.724
62.1342
70.145
454.334
87.0088
52.9926
572.275
75.4449
53.6913
66.8086
691.489
50.354
85.4227
787.808
114.767
711.944
350.313
85.8851
96.3227
170.493
175.812
647.745
73.6036
253.17
77.242
60.6966
176.409
70.5255
79.8862
58.7059
438.541
369.578
353.424
187.429
117.212
127.427
55.3831
101.832
83.2651
54.9158
179.933
76.6365
69.0977