/*--------------------------------*- C++ -*----------------------------------*\
| =========                 |                                                 |
| \\      /  F ield         | OpenFOAM: The Open Source CFD Toolbox           |
|  \\    /   O peration     | Version:  2506                                  |
|   \\  /    A nd           | Website:  www.openfoam.com                      |
|    \\/     M anipulation  |                                                 |
\*---------------------------------------------------------------------------*/
FoamFile
{
    version     2.0;
    format      ascii;
    arch        "LSB;label=32;scalar=64";
    class       volScalarField;
    location    "0.0126916";
    object      p;
}
// * * * * * * * * * * * * * * * * * * * * * * * * * * * * * * * * * * * * * //

dimensions      [0 2 -2 0 0 0 0];

internalField   nonuniform List<scalar> 
47425
(
11.254
12.8099
0.54204
17.2022
6.21284
1.1149
7.24138
0.436851
39.7349
0.504832
0.0130051
33.9915
9.78296
0.141951
14.9155
32.7966
1.15757
44.4376
-78.4783
-5.08602
23.2802
33.2381
0.616227
8.55627
33.5337
7.71559
0.913556
-14.2735
1.14963
1.70524
32.6976
31.4737
36.7086
3.07531
0.458724
0.566644
34.3482
38.331
22.8246
11.2932
11.6199
13.5713
14.2691
39.8494
-1.84783
10.6945
1.05097
36.3414
8.34446
3.00842
69.2577
15.1316
1.51339
-1.58535
8.63187
23.788
13.7551
0.327028
2.45869
0.422449
-4.04295
-2.38913
-27.5997
37.5896
37.6657
19.6679
33.759
13.7187
-13.6607
39.7465
19.5238
6.35066
17.8457
25.4601
-18.155
41.051
-27.0038
3.32306
-73.8127
5.65344
-23.2718
26.0177
38.9234
33.2583
11.5506
12.2249
16.7441
9.88017
13.4892
1.73487
32.7658
18.5498
3.66147
13.0697
15.4453
12.7318
2.97089
14.8206
11.9941
32.7432
34.3263
44.5337
25.2852
64.4245
26.0963
15.4185
12.295
11.9561
10.0188
32.6427
-17.2917
32.0596
15.0171
14.8812
15.5103
56.0472
15.8291
71.106
25.3265
14.2734
14.3018
37.3934
35.2772
13.4033
31.3082
15.2437
10.1346
38.6362
4.66441
5.69942
37.6107
13.8141
75.2678
24.518
13.2624
13.2206
18.3714
15.1882
30.5633
15.7643
34.0391
9.35141
21.5192
15.1525
27.3285
38.7007
7.08828
34.7605
22.3626
36.2278
15.2765
63.9392
37.1017
19.6159
39.0563
9.4103
24.5383
-87.9708
11.9948
1.23421
15.2997
7.3078
6.82252
27.2047
-17.159
-54.0022
35.8316
-20.2699
7.89029
-17.3287
-20.7449
7.85706
34.3973
36.2312
10.5455
30.2943
54.8263
0.158271
1.25516
3.10508
48.9639
8.73977
1.33131
2.2413
2.32586
34.997
25.9917
69.9683
2.88747
11.6134
35.1872
2.50852
9.29476
36.3172
4.08985
15.7776
35.0697
7.71172
15.4265
14.107
3.11444
16.4398
11.8258
15.8703
27.087
17.7603
0.536959
16.1707
31.7362
37.4568
11.4705
15.9392
33.0057
7.44713
16.3583
14.5302
16.5053
6.20641
38.8214
35.1238
4.11788
14.0732
15.1725
18.45
19.4025
5.32135
2.82897
14.2339
14.3256
11.1578
18.584
3.67204
15.4336
38.6235
1.32647
30.73
2.73402
4.05143
4.14217
0.680978
2.61041
3.07862
3.2472
11.705
24.4802
40.5276
12.0871
40.0305
6.06274
0.960448
9.13113
6.81785
0.569762
37.9301
0.818576
1.14429
32.4549
1.3444
22.7219
36.9946
3.70318
39.0001
26.3539
28.1425
11.6565
14.2117
1.38739
11.8541
1.2495
27.0587
28.6681
4.36406
3.05669
29.1057
5.72846
29.4474
5.21585
47.928
4.39805
54.8905
0.38796
11.8315
-2.77899
7.21012
4.0583
15.6704
2.9142
0.146138
13.4961
15.2489
77.3106
36.6233
38.2705
0.548994
0.222896
23.3918
12.1565
26.1212
32.0581
11.3934
12.8047
8.30976
2.67504
1.2282
-60.3281
-72.286
59.2801
3.34341
6.61244
28.4503
30.1592
71.8472
-0.423325
0.301859
9.95446
14.0529
5.74685
6.24247
1.96415
-19.3907
9.96545
31.2119
30.5322
-1.29146
12.9212
-0.219006
28.3951
10.0651
3.9563
1.11958
13.7061
-46.8552
26.7653
0.72333
36.5133
-0.926138
-48.1429
32.9237
5.56676
7.22234
27.1141
27.7194
9.6602
32.2228
4.26744
-0.453982
1.87176
33.7237
-0.776147
3.61525
29.2114
24.998
31.3944
30.7907
29.4095
14.2901
3.02906
37.2056
27.1899
36.703
28.4721
14.0179
3.89476
-0.231289
24.9091
14.4206
1.23987
36.3257
32.7297
26.7486
1.49826
1.72949
16.0043
27.5843
40.738
27.7276
13.2715
33.5168
38.4899
33.9567
35.6081
27.5839
7.28742
37.1895
8.33596
37.639
0.678093
27.2179
33.4417
1.24933
24.2281
25.1971
0.667729
23.0588
6.2178
24.5866
32.0996
1.58487
6.83493
2.29713
1.01237
3.03863
-0.0865815
1.93869
19.6192
2.38881
2.37492
2.45366
0.24325
-1.15514
25.4978
-85.8179
80.0872
7.82769
25.1896
24.1648
22.7503
7.05765
0.706578
3.40115
1.69185
6.45433
11.9959
21.716
0.965529
-0.204979
13.529
16.1995
17.1557
38.7858
-64.6851
14.6293
48.7876
-58.0061
12.7161
-69.1186
-1.93257
7.45052
19.9694
20.9932
18.1459
-69.2219
10.397
7.49602
3.57978
17.9093
19.9543
10.942
11.2438
5.28368
-60.9206
3.08164
36.6018
41.8864
14.1574
8.15983
18.4008
11.1508
18.3876
35.7155
36.5655
37.5628
23.5566
38.3743
6.8196
30.1994
1.22112
16.9798
6.42693
5.08244
34.8084
34.7019
35.8875
24.9295
32.244
11.0359
17.6412
5.67301
35.2707
9.28906
34.0859
15.3234
14.11
30.9759
7.16858
29.3024
34.9188
35.189
28.0898
4.66433
15.4126
29.9493
11.7898
29.0234
45.7543
6.5434
31.1247
34.7871
33.4568
10.0228
3.47311
8.07698
1.11299
18.2705
0.698831
0.979116
5.80689
9.1674
17.0658
1.03748
0.610984
42.8988
-1.13164
10.9571
10.5172
7.9216
1.81657
2.12663
31.9617
26.8631
37.8622
39.0462
69.2136
2.44907
-0.380911
31.9081
38.9862
1.03551
-2.04147
4.39233
9.02166
10.2746
12.1244
33.0657
-3.27019
37.9761
-64.628
46.4539
32.858
0.42397
2.07406
2.7481
11.3704
3.00576
11.4803
0.530165
6.2811
-57.537
1.96266
1.77868
1.43631
1.17218
5.45908
0.134627
1.5513
5.50151
3.2883
2.08925
-43.8125
3.06023
14.9395
0.795572
4.35422
3.73197
8.36192
11.941
35.5076
10.9432
7.91732
0.307511
-3.84702
37.8475
8.09536
-44.8552
1.88705
1.93012
-46.1938
-12.4226
32.763
-44.1624
-44.497
1.03167
36.092
-0.0447559
34.2571
33.8563
0.514978
-14.5683
29.8291
0.728726
4.63938
3.28455
8.6477
34.8362
24.8549
-31.7375
8.88942
20.2818
5.94545
14.0402
26.2723
5.19694
6.55647
31.7665
25.3308
37.2085
14.2191
34.5553
0.997139
25.038
22.1817
-1.10227
27.3287
5.09503
22.7301
28.7948
3.91566
36.9991
14.5966
49.6252
31.7116
15.7415
12.1143
-101.817
23.4115
11.5528
-12.0009
-14.8504
1.93749
13.6501
-15.382
0.287899
26.3506
9.08123
38.3573
-10.4708
1.04948
-0.38003
34.044
-2.53201
40.024
39.146
4.30794
1.56625
7.75171
0.0237435
6.20181
8.81972
16.1004
3.94196
-30.4148
20.2321
28.2212
1.20798
35.1287
32.8483
35.7393
34.9722
37.3617
34.9691
39.7746
17.308
35.6774
25.6412
3.90351
0.30326
-54.3867
-0.863163
-1.0434
36.1447
20.7836
0.365602
-69.0192
0.992717
-17.8892
4.90533
10.8381
10.5121
6.24223
36.3019
26.6486
47.6905
1.88995
4.67324
15.0256
9.14037
40.3866
8.59985
15.3412
-59.8368
11.532
14.8437
10.0639
37.3061
9.4313
22.9829
14.9036
9.07271
36.4473
28.1867
9.49823
1.9087
15.1848
0.170798
5.35174
54.3679
54.0018
29.1349
40.9246
0.521973
-0.635726
23.2357
13.3862
13.4598
0.765404
9.03608
1.11196
8.89461
57.9561
13.0278
0.573387
34.9554
6.7466
7.0102
11.7118
0.202888
15.4738
4.48541
10.1207
2.42539
0.488075
7.19471
33.628
1.57289
15.777
6.65319
4.99346
6.70076
38.4918
61.6796
8.44879
-45.8583
14.3662
-3.88875
-44.5857
14.9667
15.1535
28.5955
15.5441
67.1973
-47.82
80.8901
10.8822
17.0758
8.61163
2.45413
78.8893
25.5681
15.3545
6.86697
3.15792
11.717
13.4728
8.2322
8.0502
-43.2742
48.6248
35.0751
37.7366
68.2526
64.6234
12.7779
-9.32163
9.09268
71.9825
69.7726
37.0509
5.71158
35.0815
3.2436
23.3644
-43.4803
24.6868
21.3196
24.2636
2.91276
-45.4291
-45.5826
0.40614
21.3235
6.46248
3.79317
22.7869
3.15862
34.366
-0.785034
6.22738
55.3062
1.61818
-1.8249
-0.858463
3.58003
2.50193
74.8912
3.27254
1.00931
27.2304
5.93815
33.0217
32.9958
10.8238
3.30962
-59.3494
9.71647
22.8219
20.2781
48.2727
-49.2715
2.21599
0.510956
3.47134
9.48013
35.2039
17.9
0.580493
37.8646
-55.3962
4.86142
-43.9314
37.3304
49.2711
0.69178
10.569
34.3225
10.1758
0.196785
35.9851
-58.4104
-0.160965
9.41812
-52.1616
9.8614
13.7681
-0.080939
9.40878
0.71628
9.22683
-50.6931
-0.0418973
7.91062
9.31473
9.51846
-15.7085
6.87144
12.3785
29.1657
33.231
29.5799
2.95276
14.0785
10.839
5.20414
67.467
16.7669
34.1563
9.95603
12.62
9.39265
9.27345
10.5235
-96.1294
10.5439
15.2942
8.43776
12.1108
9.90919
9.99256
10.7973
39.0318
40.8224
9.68897
13.5366
33.353
39.1998
39.9767
-45.0928
9.89886
13.5743
10.1325
3.71796
11.5144
53.8781
36.3763
13.4058
1.75301
28.2723
37.5477
35.9833
34.7898
32.1552
38.8778
-2.75488
10.6736
38.3505
40.3534
33.8519
24.9799
15.4459
58.3469
15.0472
11.2594
15.1089
10.1636
-31.032
14.0708
13.9383
38.1157
33.699
37.6566
11.7773
-40.906
1.82469
-2.33703
27.0842
11.9482
26.5885
-23.4394
12.3945
-19.374
13.2746
14.9827
12.1727
9.74222
11.4939
30.7287
3.27506
20.1253
11.3677
6.55715
22.4164
5.00005
4.61504
14.298
32.9153
75.7236
-69.2623
57.8468
1.28081
-20.9237
2.00788
8.77601
37.589
5.2195
72.3444
5.80109
4.20084
-53.954
29.9985
19.0508
1.57881
39.9349
45.4098
34.6483
6.37175
28.3901
7.51748
27.355
33.0409
31.6037
35.8253
5.88256
12.1061
11.2636
47.1199
30.2155
8.49902
25.5996
5.57177
5.45957
24.0165
11.4207
-8.86581
11.9272
14.4927
32.4365
1.2262
7.7561
4.94431
5.14985
-90.1008
-24.2028
9.82843
-41.9993
16.4048
14.2818
-5.7281
-42.6585
14.7571
24.4209
7.53424
14.4703
-0.631643
21.0498
15.6134
8.63199
31.3907
17.2909
58.4376
-72.8926
10.4561
1.32835
7.79858
76.5802
-95.3502
10.7716
30.8144
18.3279
-8.85299
30.3473
14.0467
34.2232
4.49134
14.2975
4.07181
17.6758
13.8195
13.7679
24.6291
8.72941
7.95194
32.0613
34.5663
11.2948
-12.8262
26.4573
12.6562
11.7157
1.66584
34.666
25.236
-32.2171
-43.238
-0.971939
28.3706
14.4212
11.3914
-6.2693
28.884
35.2101
0.608537
13.0802
12.9562
9.32136
-1.2199
19.7854
32.2564
34.7409
33.3874
28.7418
27.1966
-2.17545
33.8076
37.448
31.367
13.1126
-47.52
-1.37138
30.0499
57.0966
7.28017
31.9233
-25.1157
22.6579
27.791
12.9287
13.7733
33.4953
26.079
-17.2761
31.2469
-8.07656
-73.8227
-7.05225
29.7133
11.759
30.1265
11.287
9.21172
7.75287
-3.18405
13.9127
-54.1821
-14.5839
81.5617
2.07085
-64.5672
1.17673
-0.394016
11.8327
-6.10131
13.148
35.8244
-1.05075
-19.2355
-4.60301
-0.328258
20.638
-8.61762
-2.14176
-5.70594
69.8236
4.48355
0.962942
-83.2641
12.6901
39.6326
7.80761
34.4239
-86.6617
-5.92922
28.5764
3.31086
4.60821
17.9295
6.13555
18.7749
17.6228
8.11801
24.255
59.1507
28.9709
42.9815
-9.06659
13.179
37.1945
14.8759
15.1936
11.952
31.7161
-35.9158
8.32146
12.2982
8.20611
4.5612
8.94343
-54.937
8.59877
33.0327
18.8353
-101.456
74.7711
-48.3054
5.2752
60.3497
21.1492
37.5079
11.8535
-2.00685
-76.7556
1.85499
71.9725
38.4554
9.42486
-28.6241
11.4533
18.6266
-7.315
6.70097
13.749
9.99927
35.3521
38.4396
-11.6058
-13.7263
16.1295
25.7011
36.0894
-89.131
35.102
-13.4951
7.69482
32.7526
37.5725
6.37024
16.4767
73.3376
9.31004
23.9339
52.5112
51.365
27.7483
-55.1518
0.0896499
9.36748
-90.7303
84.5642
38.7643
-8.85895
37.778
43.5282
-54.0256
21.5499
-98.3601
0.131797
15.2869
40.9898
13.5196
37.3676
35.4743
36.9503
3.00301
9.44172
0.685563
46.7799
2.20193
13.9579
37.7409
12.4454
16.717
7.20768
33.0564
-33.1409
-2.72987
20.2636
-1.17714
-50.1816
1.29435
66.7876
-37.123
14.7601
47.7461
11.7175
12.4786
3.99364
3.60787
24.5642
-16.483
5.6549
23.477
23.4323
5.07851
3.57107
11.9684
45.6788
-29.231
12.2332
32.2844
6.16529
-24.5636
-0.396657
1.94191
11.3647
5.27112
43.0995
15.7885
10.8453
11.2931
-74.0553
0.67344
11.6086
-28.4949
7.20619
11.2032
78.3346
15.5392
5.83446
-26.861
1.24291
18.5871
0.270468
-108.311
-46.5735
2.61094
-41.0831
44.1855
19.0573
6.28443
-12.6666
-35.3447
12.8015
3.55086
35.9558
10.447
6.3037
20.5729
71.9392
37.222
34.0986
14.7998
3.9663
31.3524
35.3904
41.6882
34.2938
6.02596
31.6935
30.8801
31.6261
9.98633
11.3062
28.9823
29.0206
13.0803
37.5468
3.60826
6.9144
31.9864
32.2414
37.3478
-63.3949
32.5346
39.312
10.4788
0.83466
-5.59202
32.8312
32.7793
-57.9414
-19.3345
78.3584
33.9318
-61.8487
33.4202
11.1536
-57.3118
18.4351
-63.0254
8.66404
6.93915
33.7328
42.4379
28.5294
11.6145
8.15341
11.4874
27.3069
24.9099
7.77391
7.70524
8.98731
10.4949
81.8397
35.4816
-17.2193
4.69686
-38.7978
7.10433
31.8795
0.172732
32.7561
11.9218
36.9382
6.68074
-2.14321
4.2191
-9.48822
14.8658
13.3372
8.70637
20.4981
0.938897
10.7819
-21.109
14.612
-16.0205
8.84966
-25.8239
-53.9811
14.8443
-0.199779
-14.3985
2.71449
-14.8378
32.6242
15.7681
8.53322
14.451
18.4317
15.2503
11.0427
2.37455
12.8688
34.969
11.8296
34.0849
7.26675
33.3784
-10.426
29.9265
0.479566
14.7216
9.80708
28.776
5.95481
28.3975
27.3465
4.81436
12.0997
38.7092
11.8465
14.5782
11.8349
12.5069
5.81744
-6.95335
10.8514
11.1149
-8.6531
12.7659
3.98957
3.0721
3.492
3.99617
10.2465
40.0139
35.3024
8.25726
6.72038
62.4707
12.0465
7.56857
10.4097
-18.6329
15.8253
-21.1074
-9.36857
-14.418
30.5567
1.66048
15.611
0.853799
6.43242
-13.54
13.495
6.42323
6.82389
15.4906
16.4698
-49.0383
16.3381
0.450025
8.96066
6.37237
4.58704
2.03828
2.74468
1.77607
3.09035
4.7278
13.2584
9.78718
0.273409
32.8084
13.729
14.7046
15.7436
4.3936
11.1431
12.7298
14.0768
2.37025
10.1029
6.54655
13.5029
-0.0681125
10.4014
7.04546
4.05831
9.69943
13.6061
-0.227792
-38.88
6.4683
5.79727
13.8774
-2.78408
-34.8624
0.0601423
15.6757
0.758769
6.0293
7.55274
13.6854
74.822
15.9917
5.41517
7.39861
0.509718
11.6676
5.78762
3.64767
13.9333
4.1153
6.60217
-0.274327
11.7162
7.85306
-11.7574
29.0013
10.8934
10.2509
8.10706
13.1148
9.62511
1.33248
1.06302
1.06218
-27.7314
0.5417
12.6848
2.00751
2.32415
12.3703
-109.939
-0.228956
10.9625
34.5915
0.405332
11.325
37.8654
49.0058
-0.127784
24.4183
1.01075
10.8177
3.89695
0.232119
-26.2718
-17.6195
0.274162
7.04496
-8.82045
-0.379709
13.8008
2.87621
0.696674
7.13066
21.5679
-1.15918
12.4056
-0.68433
14.7906
36.4843
14.7324
0.117094
37.3624
5.11657
36.5862
2.81462
-0.88698
-40.9419
3.95456
6.18034
37.6966
8.24398
37.9133
15.5232
33.4262
-5.9353
2.72545
38.715
9.23621
37.029
5.29306
10.5806
-48.9775
6.71893
5.70375
35.4911
35.9517
61.089
64.4255
83.821
-46.2003
45.6392
37.6829
32.2256
40.4694
37.6457
3.13528
0.544738
3.97792
-0.991418
-50.0102
-50.9012
4.87099
12.0112
15.5042
-46.6497
14.9797
7.00003
15.0815
-7.41108
-27.6775
6.80503
-9.01145
11.862
-1.02105
-0.660156
3.00302
2.15755
4.71943
37.6063
-27.7798
1.37719
39.4635
5.07953
1.65662
-45.3606
-48.428
-53.7888
15.9707
-13.0802
34.6492
25.8735
22.7114
10.9734
-56.6611
-51.1958
-42.8764
81.6732
-44.2481
54.3648
32.3901
-12.4778
36.2675
-29.2358
37.2367
-25.8192
33.424
0.885086
13.4763
1.80366
40.9868
39.008
13.9979
35.4772
34.7327
50.8248
21.3499
39.6842
34.3675
-36.6353
-40.7706
11.3654
3.48629
-40.8406
3.81359
9.3451
33.4591
-39.3079
0.563442
1.61958
30.9115
-78.6749
24.2211
-20.5414
-102.653
-38.6258
9.90986
33.4312
26.5289
27.265
33.8484
11.4436
-2.64412
15.4463
16.779
10.1089
1.12516
1.35002
8.85844
3.01555
2.41262
2.25442
2.04942
4.04225
13.1184
5.78876
7.08981
2.78929
2.32395
11.648
13.0177
0.364454
6.72204
32.2087
-2.64755
-103.401
13.0706
-61.8318
14.2504
5.24483
8.64594
53.7115
21.8494
25.4415
13.2951
0.581226
0.797831
12.2546
0.250579
0.275448
15.711
1.87213
12.1012
11.6773
25.351
11.565
13.331
68.6123
0.600295
31.8001
0.599111
0.336193
60.5341
-21.3922
43.8142
1.81125
13.551
3.22608
-53.9757
13.4137
11.8982
34.9986
12.8365
7.91521
3.55023
4.32688
33.0102
1.49926
34.3966
75.4466
11.9326
14.805
13.6439
15.144
8.17276
5.61032
13.0574
31.8198
36.7022
23.5931
34.3078
30.4372
23.5326
20.7501
13.1647
-6.74526
23.8728
11.3069
30.6094
34.5359
82.813
22.3836
13.8668
16.5546
-21.156
-1.14778
20.3311
34.7601
13.993
51.658
13.1894
32.3292
-4.17718
68.1776
49.8877
12.7028
13.94
24.823
-13.7448
-69.3417
-39.5258
14.3584
11.2752
-71.0142
13.2407
11.4302
12.8911
0.52313
-64.9018
13.1681
29.985
-78.1954
30.5348
13.2371
13.9214
26.766
12.7769
28.1949
1.98792
31.3863
29.0405
-37.3378
30.0401
80.1233
6.079
75.5511
49.368
-40.8107
38.9295
40.5957
-23.5271
11.0903
15.9775
-40.5627
4.07083
2.77597
10.774
11.5129
-39.739
14.5225
21.8022
79.0264
12.7351
21.6039
13.7101
8.59713
25.4544
24.6923
-4.30436
-38.9033
-2.11294
-47.645
6.86924
9.51534
14.1575
9.15204
9.45062
9.55368
14.2301
10.2723
14.4618
-46.5662
-48.0048
13.8533
26.1762
13.4563
10.7721
4.81978
28.4212
27.7257
9.68774
-48.1211
27.6481
12.8198
-49.3232
18.2998
1.73593
14.4192
13.1092
-13.6299
18.8258
73.364
12.5731
16.7824
17.8127
14.7362
-87.4256
6.40235
7.42634
12.8743
5.20144
28.5439
5.73181
1.95389
31.7121
47.8374
31.5419
35.0859
32.9304
6.60371
14.8553
12.3528
12.5252
-97.7162
14.1437
-5.57359
12.2498
-1.07525
-15.9119
0.0205997
6.02997
15.0155
12.873
-19.6129
6.97883
30.4098
61.7123
12.6045
13.5138
-1.67864
-9.22146
13.4317
-2.96993
53.5762
33.8978
16.1043
56.0918
36.465
-34.3506
33.9995
25.0701
68.9303
52.9908
31.0779
27.7247
82.7587
-35.5727
10.6039
73.7798
23.9087
37.5605
12.6337
36.3022
3.91414
32.4478
80.0109
31.4847
37.7322
62.367
26.6249
30.3495
2.21116
15.0614
33.4877
-21.457
42.9131
0.05684
-23.1731
-31.6826
7.8633
39.6539
56.5736
32.6789
22.6228
32.3328
29.2648
32.0862
15.5257
11.7616
61.7678
-6.65562
28.9324
1.07765
19.6853
29.5788
9.10141
-38.8957
11.2274
8.38969
29.4566
20.2942
12.5151
29.0966
13.2566
12.6357
8.46954
-22.6068
19.9823
7.6189
12.1762
28.6655
5.03184
38.5421
8.36074
11.6653
44.0922
24.3311
36.7575
54.6101
-49.5572
78.1201
61.7035
-0.135257
-26.093
-50.9424
2.60061
-48.6206
-49.3484
5.21834
4.61416
-1.25756
-50.9802
81.1569
15.3875
-30.4317
22.8034
15.9288
-3.57621
-31.3853
10.864
-42.3476
8.47624
-41.1809
8.67902
58.9154
-8.83292
7.20968
-49.9493
44.9636
-48.8333
11.3846
-47.3205
43.2411
27.3662
9.76076
14.9816
65.2504
23.4979
-21.4279
-1.0008
34.2899
11.1642
15.4341
2.73878
-1.82067
15.5948
14.2523
35.0596
2.4182
13.3361
12.5633
5.49852
63.1197
14.4808
23.2377
11.4657
22.2922
-9.15392
27.5647
26.0056
-0.535451
11.843
24.1753
20.0514
19.2188
84.8597
21.1757
-9.3893
14.2134
17.959
-84.2792
-92.2591
26.2283
28.1524
25.6506
28.6535
5.62573
11.9223
79.982
10.1595
29.0403
-0.283554
14.5896
13.0112
26.2938
10.8964
26.0939
6.55067
-54.6969
-3.99569
54.6288
-0.983704
33.6925
27.3623
-22.9162
-34.5194
48.8876
-42.511
29.6142
-26.5594
55.8815
-10.3926
44.1588
8.96312
18.7842
2.15544
17.4521
10.1315
-7.24816
18.635
32.7524
-60.0887
39.779
1.34292
38.9975
14.643
27.9137
15.2563
15.0129
3.1615
15.169
22.9532
18.0695
33.5151
13.1603
-40.0896
53.3973
33.162
59.7266
37.6654
23.6327
30.535
34.828
49.1254
14.1995
49.037
12.3362
12.9777
7.74758
7.4617
2.37424
5.16439
8.04731
7.27823
14.7944
55.0732
21.2639
48.4543
7.03503
28.6858
33.7725
9.99471
6.1033
5.01324
9.36185
81.6299
3.78182
12.8918
-42.0328
37.9536
39.9134
35.9483
38.5167
6.1533
-1.22522
20.0921
14.8918
14.7969
10.1237
54.2972
1.99666
-18.8232
14.6831
2.94695
17.0899
26.8139
0.820823
36.8704
34.9869
7.32277
40.0353
11.8082
25.2093
-6.93456
34.465
76.3725
15.7119
15.7442
56.1191
28.7566
17.5354
52.2383
24.8346
10.358
57.3879
0.869436
59.7012
-62.608
22.6793
37.3722
14.7457
12.181
20.8859
9.42955
14.581
2.89274
38.4701
-5.03266
23.758
11.1201
6.94849
15.7023
2.26306
36.1029
37.6235
41.949
21.8454
15.2164
11.8051
14.7938
11.9079
33.3064
12.8358
7.11098
82.0202
7.43044
14.8382
81.0404
35.7298
-93.0913
73.5553
14.5709
19.2531
51.3755
38.0305
-46.1382
54.5032
-44.7743
21.0378
-45.4424
4.91472
-4.56127
56.4328
21.9631
82.2598
6.63888
-46.5853
-40.2244
-90.5863
-99.8065
-7.12095
-26.4405
2.11086
-40.2766
80.1554
26.3642
31.7005
68.0623
42.38
-8.45549
26.8045
-10.7034
69.712
8.20401
32.1005
1.08608
7.91424
7.61067
6.35697
81.1597
9.57382
7.22497
38.6915
9.67739
8.63324
30.378
12.8833
6.53795
12.8756
7.50031
24.4155
49.7567
-15.0651
17.6472
18.852
13.194
15.5006
-17.3529
-9.78812
6.1021
15.3971
62.3939
31.9119
15.8806
13.1931
21.6808
21.1111
7.91407
29.7202
30.1429
-59.3
6.90376
29.0039
15.3006
19.8505
28.4224
12.9364
25.9788
27.9869
31.3972
9.31773
30.3011
30.2963
70.0912
48.251
27.8328
45.7188
31.7795
16.3946
33.1062
9.32166
15.9796
14.7667
22.7936
-2.25979
35.4878
28.7737
7.26751
48.0424
2.93446
26.5353
50.6271
9.96869
52.7271
5.22404
-14.0162
-48.3874
16.6694
1.92169
9.06535
51.9143
12.9295
15.4989
27.6238
18.4751
16.3716
2.28261
26.6836
31.3643
47.9055
24.2485
19.0255
32.3726
28.5368
-0.0528941
-3.32122
54.7421
-1.04717
26.0846
11.9522
58.5068
29.9797
29.2998
10.9301
-18.2087
-97.7893
39.4457
38.1887
12.1412
8.1226
12.3913
1.43862
53.1788
10.7395
13.5021
16.6824
2.97052
34.6266
9.09322
4.20326
6.43866
52.99
5.63687
14.5254
41.1544
0.331043
3.57618
5.06349
11.458
34.1836
-0.0383812
7.24982
30.273
27.0109
6.73411
40.645
23.8424
-32.2692
4.4159
7.85025
-39.0941
6.90019
33.4356
7.01403
25.0512
33.5024
84.4762
7.13916
13.0855
4.79893
-6.35414
-47.5809
-29.0776
6.83249
35.5727
70.3841
0.558404
32.8245
31.7271
-18.3552
37.7992
23.2151
2.93401
29.5006
36.0544
7.51533
25.4509
-15.491
-24.4926
32.8138
38.1768
-34.4071
33.2514
29.0726
19.343
31.6385
32.3613
15.5178
-4.84102
13.7081
37.1477
33.5605
33.6755
33.003
28.6716
0.216586
63.3009
0.361828
16.4292
16.8233
56.9189
35.6717
10.491
21.4706
78.3568
3.48516
-0.788443
-25.6756
20.8403
14.7175
-16.451
7.39239
34.1887
8.82342
13.5912
0.373579
12.7938
32.5923
29.9357
26.9301
1.45165
0.957738
6.11363
14.125
10.165
17.0966
15.1536
1.21342
14.3615
14.3915
33.1292
-6.80188
31.5992
15.4322
15.3624
31.33
33.0804
35.5149
17.3284
15.6842
11.8707
20.7024
15.743
18.0338
-42.1959
18.4748
11.0383
-46.3994
-43.5459
-39.0473
32.6094
-34.0788
35.0558
-40.4833
12.6896
-48.2356
9.42191
19.5154
19.5859
14.577
9.61278
19.831
16.3779
33.334
15.0882
33.8349
14.3937
9.39587
-101.438
-48.5998
43.4249
48.4496
-17.7904
-11.1686
-6.911
-47.4258
-48.6068
12.7292
-49.6632
15.2684
14.5026
-16.0238
-73.8431
7.7711
16.4179
31.7369
69.9227
14.0341
-73.2864
14.6304
21.4585
14.8051
16.1899
-13.7649
18.0187
14.6441
14.8178
19.7314
26.5637
15.681
7.68591
-65.5155
-68.5644
-4.02189
46.937
-9.44014
29.7751
6.71084
32.599
23.0677
21.2196
43.9052
29.3952
46.7359
9.72825
21.7029
22.1227
15.8979
19.4876
12.2624
23.1554
33.4668
24.5394
59.733
17.9465
38.612
-27.582
14.4207
-15.3708
55.0785
30.8864
30.6497
21.8537
-6.81029
10.6597
27.5151
-12.1904
24.7097
20.6941
14.567
32.3895
27.9775
13.4877
9.75211
-10.8834
38.7428
15.1629
-20.0633
18.4114
-12.2024
-18.0412
37.7089
-43.6973
14.302
49.9625
12.4426
34.3239
27.7321
33.3607
14.5937
34.6361
-47.8539
13.9143
-46.5495
13.6642
9.64326
41.5457
-48.6115
10.4709
13.1107
17.0713
39.8428
-48.758
31.7387
15.1167
3.14934
7.75163
16.6717
35.3111
-108.822
14.3543
23.6461
12.9032
17.2896
35.0557
27.2874
14.4363
32.8623
8.07251
33.4757
-60.7138
34.3283
-26.6189
5.60752
13.5486
24.8567
14.8886
7.82258
31.5994
14.7344
14.5001
13.9152
77.0607
0.274324
57.6386
14.1083
2.35402
14.4935
0.563097
34.1632
30.3453
39.778
17.755
2.34834
39.1466
11.3185
4.17302
6.75741
4.48648
19.6875
1.0643
30.5736
-1.82752
-53.4065
2.46959
13.5002
5.29925
4.04346
3.0833
2.68705
12.6314
3.97924
14.5258
12.1032
0.541406
6.40829
35.3175
2.29337
-11.0853
40.8547
71.2834
34.5267
34.4041
-0.351005
36.5943
64.6759
0.588906
61.0324
16.5727
0.729145
28.4328
53.6979
7.66958
0.621224
74.3204
37.9038
43.9599
12.9015
10.0696
1.85125
15.394
-0.193992
6.81368
18.8816
7.32964
72.5829
7.74577
7.19467
4.71194
32.165
2.23907
9.35583
14.0096
12.9953
15.5712
5.28049
26.8536
0.385349
42.6101
37.5863
15.4794
5.05604
65.0072
9.23178
64.2763
46.8808
28.1386
32.854
3.62998
13.4405
18.0365
11.2176
10.8337
33.2087
-95.9021
13.5356
12.0753
4.09997
29.7528
8.88699
72.6461
15.0788
66.5283
10.0635
-34.2179
9.5437
10.0354
9.48698
-11.532
5.87544
54.3005
30.4895
54.3961
12.3106
8.15267
21.7356
-14.1088
44.8112
37.3046
29.6279
15.6941
4.65114
29.6443
-59.161
7.86488
40.5328
55.8694
35.3754
4.03643
65.9126
20.939
14.5548
64.0847
51.9021
18.9857
18.7907
-22.4522
63.0254
27.3559
63.0866
14.3342
-20.0593
46.3857
15.1618
0.276772
1.21522
1.32773
15.6536
31.7826
0.516166
16.2566
1.80498
34.8957
60.1426
8.56958
56.7971
0.54977
0.26634
10.1552
78.115
8.07089
71.3917
34.7624
22.1912
45.0281
24.9558
37.2432
-0.509963
-0.585817
0.522318
-0.37435
25.5611
10.3005
31.986
-6.74788
14.9047
2.02454
33.4694
6.47801
69.8309
20.894
19.4262
1.23216
63.8967
-0.427696
40.722
16.236
27.163
12.6917
18.8193
54.4126
58.6354
10.5196
0.435212
15.1344
-7.79773
-36.1608
11.024
74.7263
50.2866
78.0679
79.4666
69.093
-33.1175
18.3541
69.1274
-21.3709
-0.303125
22.354
0.872232
2.40364
-13.8282
16.1388
18.6236
15.0221
0.456144
32.1798
-6.83541
61.2922
-13.3819
33.6386
17.8482
29.1553
20.6706
13.4061
-80.1211
14.1139
-1.38436
10.1474
31.4684
-51.2512
-98.0457
31.9983
11.972
10.7554
35.0428
31.8144
11.1161
45.3675
-66.8838
-0.110532
-5.92594
58.4862
-5.0674
24.2687
44.2339
22.4844
-15.7695
-21.3568
24.6074
15.131
73.6891
19.7106
-9.26082
15.113
9.58848
-30.4484
11.0678
-45.8794
12.2962
-46.744
2.67156
-45.7053
27.9853
4.77445
74.634
-47.3654
42.4378
-0.483693
-49.6378
8.80234
0.712244
54.5574
52.2976
0.628551
29.5864
36.6944
33.6028
24.0237
30.7639
12.4809
-50.6945
-173.168
-21.4312
39.5195
42.9419
-4.70757
46.0277
-40.6554
11.8386
25.4387
19.4333
-13.0185
38.2688
-41.2168
33.5353
53.6973
54.6301
84.1827
53.3444
2.48201
-23.986
70.2383
38.5614
56.777
-14.2019
-49.0552
69.9736
46.8676
15.5667
39.2956
36.4681
-11.2717
-44.4301
-92.6888
43.4801
25.7314
58.4652
-19.5652
68.3543
50.5938
34.4045
59.8607
-66.2425
26.264
20.6019
37.1391
12.7384
-8.90242
-59.7704
65.964
12.9729
-11.7253
-52.4149
67.4312
64.8225
63.6974
-16.9463
-63.9569
66.0124
5.91538
-22.1524
66.7496
18.214
12.4871
34.31
12.8357
17.1894
12.8763
64.1736
6.79784
6.91997
16.5173
16.2464
18.4117
14.9034
29.7633
-2.01984
13.5202
16.3662
-18.7219
-40.2751
-49.1825
8.9132
18.2063
10.1378
0.789321
2.23939
16.9525
-39.9535
22.1108
-38.9647
-42.2833
63.9394
40.5972
45.0685
-2.15628
29.8884
-32.7602
4.38807
12.477
-33.5553
-0.240329
-21.977
-7.80099
3.84268
-8.77013
19.0854
34.3727
31.7913
32.77
33.8214
61.6319
3.13028
-0.1424
-0.0481971
33.4016
-5.21589
-47.1255
-23.0319
32.6723
59.4411
42.2367
51.8012
23.6482
-50.926
14.301
33.6953
24.8853
14.053
37.7853
28.857
12.1119
34.4981
11.6152
11.891
19.4551
33.7848
56.4524
0.483017
78.0064
-63.0109
38.841
-69.7542
-43.7157
11.6468
26.1829
60.1625
15.2779
0.70453
13.1266
34.1186
0.830517
-53.1816
40.0426
67.9994
85.041
-24.5404
-2.30203
-22.6023
32.9821
18.0906
9.31335
29.1925
24.2997
3.24174
21.8376
30.2486
-9.52587
12.8666
-54.0026
15.2496
-77.3613
1.28773
29.309
-72.5004
9.41826
-0.389861
83.0613
25.8801
72.621
18.6191
-51.2446
36.1563
25.4188
56.128
78.1045
34.1865
56.7886
-0.157375
-6.54255
39.2614
30.0758
15.3933
32.0629
-4.53375
20.4865
12.7828
40.6378
22.1165
6.18005
23.2687
28.4062
14.4913
15.0538
-2.2494
0.513151
30.639
0.103252
32.6497
0.39739
12.3611
30.1201
5.58761
29.4223
-28.2591
0.417091
51.169
10.6026
58.8884
1.25395
14.7102
-0.0545105
0.213938
12.7379
20.4655
33.7594
57.3467
43.0669
-57.965
-18.3599
69.3622
47.3457
39.4306
28.5367
-0.0435634
-0.811484
-37.3032
69.5348
41.8686
37.6352
1.2614
37.2472
0.829696
1.09189
7.28438
1.54262
-7.52284
-37.9929
30.8569
13.0429
3.5858
30.0885
57.8971
31.3686
9.65077
31.8046
13.3401
-42.7264
5.94022
2.05404
26.3724
16.1883
13.3213
-37.7469
29.6026
-38.7037
45.9114
-41.0793
-0.616068
-1.33811
3.00734
40.8408
26.7856
38.4943
53.2656
36.9865
14.4747
27.9049
29.3082
30.5683
35.9125
-8.33043
27.9645
34.0023
63.3085
33.2689
5.8562
38.1625
37.4891
-45.9535
-41.6236
1.85709
-45.1826
-42.8793
30.7152
76.4932
-70.3666
6.57897
35.7215
42.196
-43.458
6.45025
3.71931
27.5725
5.27919
-46.6191
-10.2603
56.8204
23.7114
8.93802
27.8202
-55.7259
47.5903
26.7544
-21.1416
-69.9984
-60.8172
85.743
32.9101
27.636
27.4611
33.3748
-44.8187
36.3604
29.3202
38.2065
-15.9173
33.5793
44.3329
67.1235
58.7027
27.9429
9.55153
42.6169
15.7354
5.96767
4.88426
49.1148
-0.985179
1.93727
4.06372
77.974
5.06245
-57.7938
46.2372
46.8307
61.7686
-54.8738
-18.753
-48.3967
55.0968
12.1752
-2.80484
3.08796
28.2987
18.0971
32.6816
13.2903
41.6312
14.4316
29.7098
14.3621
13.8984
1.08429
58.6438
26.2668
18.861
3.23491
23.6471
14.1399
24.35
19.1295
1.4201
-12.5598
8.0071
20.5618
58.455
12.56
82.0752
-17.8234
81.28
77.4957
12.284
19.6119
20.7416
8.24015
11.7874
-55.37
35.3699
-30.9884
-15.3416
22.707
15.7742
-43.7739
21.8366
21.8793
29.9081
24.2094
8.08213
-22.8183
17.0805
12.0242
12.9048
13.1538
13.1165
13.6899
12.1189
13.5399
21.2879
-20.6455
10.3811
8.4998
10.6641
12.2674
39.0243
4.26432
40.8637
41.0261
-0.858045
-0.569373
13.1068
10.7456
22.7119
4.44247
22.01
24.2246
-0.825753
76.1805
2.5681
14.7151
0.467867
0.726421
0.365421
0.251498
-51.1231
13.993
70.4859
20.402
13.7331
-4.26773
4.90744
13.6379
-2.44143
17.7337
1.56133
23.0586
-49.5701
-0.0610262
19.8102
41.9759
58.2434
16.2335
25.2029
27.8093
-7.89036
4.8381
0.157867
68.0843
-24.8303
6.78842
12.1896
73.0636
11.2485
15.1432
49.3024
-31.5164
23.8785
1.2285
1.69554
0.187174
0.303833
-0.309046
-38.3454
34.9085
-0.57021
-18.7784
24.4253
1.19196
15.7647
18.7199
36.896
-11.0238
23.1027
34.2529
2.92359
17.6203
28.9648
82.6882
32.5307
-81.4848
62.6846
36.1124
45.6483
2.90968
69.8328
6.76736
30.6843
41.0007
1.85479
-7.43255
-83.1567
7.27014
5.84202
-101.124
44.574
-47.9039
13.2957
12.3903
4.67301
35.3893
48.7916
74.7654
37.155
73.9238
36.4624
-47.2021
-67.8025
-49.4461
-62.465
14.9189
18.0865
45.9007
38.5971
37.2072
85.8498
17.3133
5.0794
-26.2645
2.29308
12.5628
20.8451
16.0249
2.70751
24.6548
25.1321
15.4358
27.1709
36.7004
-1.84807
36.1223
35.4112
34.3682
69.0625
38.2499
29.7761
54.67
-2.8414
32.5844
38.6523
56.9228
38.2596
40.8726
83.613
77.6688
6.99358
13.9953
32.2173
64.4151
31.3002
37.5718
14.088
65.0157
-14.8362
9.59312
18.6286
26.3236
72.3524
59.2687
26.3001
20.5425
-3.18255
26.9562
14.3122
-16.5045
24.0992
6.50985
-40.4127
-37.0477
-31.3878
31.8411
-37.755
38.5585
3.17576
35.6957
41.3775
39.5403
3.89171
27.2345
32.6726
63.6965
34.5162
32.8082
45.4298
35.9621
38.8293
34.9842
38.6581
37.7159
33.5492
-21.3124
27.4576
6.42157
13.6401
54.1906
15.8388
85.6424
12.3619
20.4644
25.5233
-0.452222
14.0803
13.3616
14.0822
-7.10628
8.65628
17.4237
-0.540764
15.3411
22.4398
13.4501
13.1665
-13.7856
2.53159
-79.6638
-14.0735
-73.8622
-18.4472
20.1533
77.3229
14.3377
13.7424
52.5018
11.5933
-11.9782
13.0223
33.0871
1.6396
13.5744
14.3659
40.1699
51.7035
24.0394
34.8615
19.2814
-12.0319
36.5238
-7.85321
23.8086
-10.8208
70.0954
-0.128974
-98.266
33.4553
15.5109
-87.9696
13.698
85.8596
31.6932
34.9595
84.8054
-52.2644
-0.855641
58.579
55.0655
-9.50491
53.0496
-0.545784
30.4333
46.486
-10.8392
-47.7338
23.1169
4.65923
43.4045
12.9218
-36.2493
12.7852