/*--------------------------------*- C++ -*----------------------------------*\
| =========                 |                                                 |
| \\      /  F ield         | OpenFOAM: The Open Source CFD Toolbox           |
|  \\    /   O peration     | Version:  2506                                  |
|   \\  /    A nd           | Website:  www.openfoam.com                      |
|    \\/     M anipulation  |                                                 |
\*---------------------------------------------------------------------------*/
FoamFile
{
    version     2.0;
    format      ascii;
    arch        "LSB;label=32;scalar=64";
    class       surfaceScalarField;
    location    "0.0126916";
    object      phi;
}
// * * * * * * * * * * * * * * * * * * * * * * * * * * * * * * * * * * * * * //

dimensions      [0 3 -1 0 0 0 0];

oriented        oriented;

internalField   nonuniform List<scalar> 
92401
(
0.147768
-0.0940941
-0.00844541
-0.0452282
-0.0660628
0.0605407
0.0402442
-0.0347222
0.0214125
-0.0384664
0.0427715
-0.0257176
0.00621172
-0.0121319
0.0121687
-0.00624858
0.00120813
-0.00048278
-0.00540494
0.00467959
0.0196009
0.00981255
-0.0258274
-0.00358603
0.00536444
-0.00442679
0.000270482
0.032264
-0.0255343
0.0128711
0.0498114
-0.0396753
0.0316266
-0.0417627
0.000876835
-0.00107546
-0.000487535
0.000686162
0.00452934
-0.0416081
0.0396093
0.0273039
0.0243009
-0.091214
-0.0160317
0.0100643
-0.000141294
0.00610879
-0.034478
-0.0395794
-0.0155863
-0.0166284
0.054136
-0.0219213
0.0016561
-0.0641903
0.0625342
-0.00325293
-0.00773942
0.00191449
0.00333859
0.00248633
-0.000915471
0.00136323
0.000412272
-0.000860034
-0.00458174
0.00997594
0.000384059
-0.00577826
0.0158734
-0.00547648
-0.00462246
-0.00577448
-0.0407059
0.00887205
0.0368038
-0.00496991
-0.0398694
0.0111237
-0.0561286
-0.0545588
-0.00265699
0.0553799
0.00183589
0.0908911
-0.0895352
0.0230909
-0.0244468
0.0508212
0.0611762
-0.0723621
-0.0396353
-0.0325421
0.0506486
-0.0579759
-0.00252811
-0.0011135
0.0039247
-0.000283086
0.0307248
-0.063156
-0.000110899
0.0613826
-0.0606131
-0.0323881
0.0316186
0.0125608
-0.0169912
0.000572219
0.00385827
-0.0362578
0.106144
0.059976
-0.129862
-0.0837563
0.10968
0.00705073
-0.0329746
-0.129397
0.0336791
0.0295567
0.0661613
0.015442
-0.0622017
0.0378571
0.00890255
0.0609477
0.0106209
-0.0561266
-0.0442766
0.010417
0.0023239
0.0315356
-0.0497765
-0.0415091
0.0637257
0.0275599
-0.0338824
0.0395922
-0.0134146
0.00770482
-0.0209522
-0.101411
0.0657436
0.0566195
-0.0859589
0.0850685
0.000890389
0.0322416
0.00319669
-0.0775978
0.0421595
-0.00066537
0.0289371
-0.0322938
0.00402213
0.0281967
-0.0507861
0.0225894
0.000245805
0.000129113
-0.000162386
-0.000212533
0.000441284
-0.0597003
0.0592591
-0.0689632
0.0431613
0.0626982
-0.0368964
0.090113
-0.0256618
-0.0138121
-0.050639
-0.000730643
0.070961
0.0021306
-0.072361
-0.0461747
0.0735127
0.0369172
-0.0642552
0.000474092
0.000974809
-0.000309518
-0.00113938
-0.00209039
-0.00416971
0.000969977
0.00529013
-0.0384473
0.0854574
-0.0463698
-0.000640205
0.000435575
-0.000984171
-0.000637924
0.00118652
-0.0542144
0.0539989
0.000215454
0.0751454
-0.00655304
-0.0201525
-0.0484398
-0.098082
0.0888199
0.00620708
0.00305503
-0.052657
0.0262486
0.0118372
0.0145712
0.000605085
-0.0160802
0.00574345
0.0097317
-0.0133601
0.0246211
0.0382186
-0.0494796
0.00113689
-0.000491713
-0.000209604
-4.30117e-05
6.39585e-06
0.000891922
-0.000855306
0.0012617
0.000279307
-0.00084716
-0.000693844
0.00409643
-0.00900181
0.00526127
-0.000355888
0.0689577
0.00502737
-0.0184366
-0.0555485
-0.0148159
-0.00451608
0.00998643
0.00934554
-0.0409623
-0.0503374
-0.0553915
0.146691
0.00360884
-0.0325397
-0.00419357
0.0331245
-0.000388264
0.000565008
0.000669262
-0.000846007
0.00592395
0.00370143
-0.0287806
0.0191552
0.0182129
-0.00685895
-0.00932964
-0.00202435
0.0404901
-0.0762627
-0.0273605
0.0631331
-0.0278836
-0.00343563
0.0101566
0.0211627
0.0117577
0.00764765
0.0130236
-0.032429
-0.0012232
-0.00048119
1.28641e-05
0.00169153
0.023589
-0.0080897
0.0365634
-0.00139447
0.000982266
-0.00155639
0.0019686
0.0473699
-0.0343269
-0.0691925
0.0561495
0.000619178
-0.000274529
-0.000344649
-0.00103484
-1.43131e-05
0.000529794
0.00051936
0.00110521
-0.00090753
0.00147122
-0.0016689
0.0223676
-0.0208124
-0.063664
0.0621088
0.00129038
-0.0129597
0.00264165
0.00902764
0.0447618
0.0558827
0.0181227
-0.118767
-0.116741
0.0247112
0.12911
-0.0370805
-0.00502633
-0.0434523
0.00487609
0.0436025
0.0520917
-0.0296633
0.0257871
-0.0482155
0.0259435
-0.00398281
-0.153411
0.13145
0.00622785
0.014582
-0.0255054
0.00469556
0.000688633
-0.000216903
-0.000704128
0.000232397
0.0368168
0.0133084
-0.0017821
-0.0483431
-0.00225889
0.0814505
-0.0835476
0.00435606
-0.0198508
0.0481211
-0.113483
0.0852129
0.0412321
0.00466708
-0.0509255
0.0414812
-0.000249131
-0.00222281
-0.0296426
0.0419996
-0.0101342
0.0707913
0.0169483
-0.031367
-0.0563726
0.129078
-0.14102
-0.030097
0.0420391
-0.0145269
-0.0459787
0.0582828
-0.0838298
0.00277045
0.0810593
0.00106955
-0.100441
0.165436
-0.0660642
-0.0023443
0.00335259
-0.000478792
-0.000529498
0.0886875
-0.15107
0.0309105
0.0314723
0.00162016
-0.000224475
0.000697782
-0.00209346
-0.0850617
0.143205
-0.106655
0.0485115
0.0277972
0.00401114
-0.0397069
0.00789849
0.0865673
-0.0178231
-0.0776936
0.0089493
0.00571748
0.030974
-0.0512183
0.0337862
0.0296511
-0.138732
0.0752944
0.0854805
0.113193
-0.0768254
-0.121848
0.000899744
-0.00135051
9.61668e-05
0.000354603
-0.0948387
-0.0275084
0.110749
0.0115984
0.00276975
-0.00556387
0.0141756
-0.0113815
-0.0139297
-0.0338825
0.0576087
-0.00979646
-0.00485308
0.0162473
-0.0137751
0.00238082
0.000269988
-0.000595507
-0.000493523
0.000819042
0.0209338
-0.0246788
-0.00110809
-0.00171972
-0.00078088
0.00142344
0.00107716
-0.0578807
0.0611829
-0.0033022
-0.00232828
-0.00592482
-0.00206522
0.0103183
-0.035261
0.0280735
-0.00674219
0.0204825
-0.0491119
-0.0551269
-0.0522085
0.043964
0.0972286
-0.0889842
-0.00741092
-0.00157736
0.00466702
0.00432126
0.0470842
0.0132002
0.000688286
-0.0609727
0.000233699
-0.00863149
0.00689641
0.00150138
-0.0362166
-0.0566166
0.012239
0.0805942
0.0646788
-0.038482
0.024874
-0.0510708
-0.0082292
0.0589008
-0.0573197
0.00664809
-0.060171
-0.033284
0.00903418
0.0844209
0.0175336
0.00507527
-0.0343815
0.0117725
0.0601804
-0.0573246
-0.00285576
0.00209991
0.0018426
-0.00110355
-0.00283896
0.0413219
-0.0430358
0.00171387
-0.0490027
-0.0438856
0.110185
-0.0172965
0.000933983
-0.00956187
0.00923167
-0.000603776
0.00317366
0.00580773
0.00231286
-0.0112942
0.00132148
0.00620092
-0.00728869
-0.0297067
-0.055239
-0.00916341
0.0941091
0.0240911
-0.00667569
0.0166709
-0.0340863
-0.0867429
0.0955422
-0.105752
0.096953
0.0702193
-0.0476517
-0.0225676
0.00186041
-0.0345994
-0.00995937
0.0426984
0.00760929
-0.00583873
-0.00833012
0.00655956
0.045034
-0.0677507
-0.0619574
0.0846741
0.0754337
-0.0652731
0.0284044
-0.0385649
-0.0128324
-0.00771801
0.0303634
-0.00981294
-0.0607995
-0.0876746
0.0580248
0.0904493
-0.0412703
0.0543211
-0.0111904
0.0989218
-0.0492133
-0.0497084
-0.00352509
0.0144748
-0.00334045
0.000926908
0.00061298
-0.000690459
-0.00084943
0.0489166
-0.0176989
-0.00502061
-0.026197
0.00358826
-0.00175728
-0.000577016
-0.00125396
0.00554114
-0.00971195
0.00856716
-0.00439635
0.0729259
-0.0429808
0.0258983
-0.0558434
0.00836044
-0.000105241
-0.00702509
-0.00123012
0.00160761
-0.000536994
-0.00107062
-0.0625133
0.0634709
-0.000957554
0.0110823
0.00413622
-0.0953978
0.0801792
-0.0107727
0.0135333
-0.00985272
0.00709211
-0.0726645
0.0161024
0.0836684
-0.0271064
0.0190924
-0.0975581
0.0743188
0.00414694
-0.0503561
0.0417915
-0.0083267
0.0168913
0.0088162
-0.0017126
-0.00300637
-0.00409722
4.84167e-05
-0.00109541
0.00104699
0.0211513
0.176638
-0.241273
0.0434835
0.000138891
-0.000256881
-0.023713
0.0611802
-0.0545863
0.0171191
-0.00012113
0.00522382
-0.00417452
-0.00092817
0.000845332
0.00173312
-0.00348599
-0.0727219
0.0025438
0.0701781
-0.033627
0.11364
-0.0476249
-0.0323878
7.26418e-05
0.0011609
0.0094166
-0.0106501
-0.00181528
0.0934425
-0.0916272
0.00231377
-0.0016207
-0.00105794
0.000364868
0.00129657
0.000590469
-0.000616596
-0.00127045
-0.036526
-0.00183432
0.0322714
0.0184393
-0.0640709
-0.0728092
-0.0162404
0.00571202
0.0833375
-0.000581982
0.00187856
-0.0981458
-0.0418293
0.112904
0.0270708
0.0264703
0.164694
-0.0828099
-0.0560693
-0.0258144
-0.0187166
0.119628
-0.0441013
-0.0568101
0.0423932
0.0280037
0.0384273
-0.108824
0.107909
-0.247771
0.105601
0.0342613
0.00151218
-0.00131087
-0.00148441
0.0012831
-0.0125693
-0.0364714
0.0573271
-0.00828647
0.0250764
0.0402855
-0.02513
-0.040232
-0.0358373
-0.0265824
-0.0189645
0.0813842
-0.055447
-0.0129293
0.055807
0.000914509
-0.0113062
0.0071169
0.0032748
0.0559304
-0.0288106
-0.0516779
0.0245581
-0.0889854
0.104283
-0.0503651
0.0350676
0.0155308
-0.0222843
0.00684005
-8.65455e-05
0.0531071
-0.0622164
0.0650397
-0.057776
-0.00248546
-0.0137514
0.0740128
-0.00529379
-0.0119925
0.00201145
0.0152748
-0.00124236
0.056993
-0.0570293
0.00127869
0.134662
-0.0538697
-0.00157079
-0.0792217
0.0580082
-0.00693393
-0.0477358
-0.00333846
0.0536111
-0.0206922
-0.0769862
0.0440672
-0.00937322
-0.00186198
0.0142179
-0.00298269
0.00516961
-0.00171218
-0.00480585
0.00134842
0.00206618
-0.0422496
0.0387429
0.00144051
-0.00109057
-0.0855035
0.00427102
0.0186498
-0.0124922
-0.0625569
0.0464281
0.0161288
-0.0607251
-0.015584
0.00953589
0.0667732
-0.0977199
-0.00511097
0.104968
-0.0021367
0.0036934
0.0225395
-0.0123377
-0.0138952
-0.0700797
0.149085
-0.0671109
-0.0118941
-0.00551164
0.0145782
0.022344
-0.0314106
-0.0505335
0.0956223
0.036759
-0.0818478
0.0267945
0.00222421
-0.0143749
-0.0146438
-0.0352678
0.0367458
0.000588226
-0.00405998
0.00705285
-0.0101206
0.00712774
-0.000699773
-0.00393879
0.0101797
0.0371268
0.0372725
-0.0743993
0.00104236
-0.00179166
7.42206e-05
0.000675084
0.0186653
0.00789844
-0.0179249
-0.00863879
0.0230912
0.00834488
-0.00286221
-0.0285739
-0.0507589
-0.00099247
0.00725945
0.0444919
0.000421694
-0.0426713
-0.000898722
0.000555679
0.0013854
-0.0517303
0.0370072
0.0512486
-0.0365255
-0.042476
0.0285966
0.0181783
-0.00429888
0.00128629
-0.0030363
-0.00935567
0.0111057
-0.00783031
-0.00470008
-0.00366721
0.0161976
-0.041846
-0.00440687
0.0109851
0.0739712
0.0406237
-0.0737614
-0.0408334
-0.0439247
0.000106625
0.043818
0.0877347
-0.0482244
0.0575899
0.00368366
-0.00767955
-0.0383235
0.0423194
0.0365905
0.0109543
-0.00582343
-0.0417214
-0.000461636
0.000305873
0.000965127
-0.000809364
-0.0169619
-0.0445497
0.0615116
-0.000242433
-0.00125404
-0.00417934
0.0320262
-0.0241631
0.00570079
0.0279648
-0.0413451
0.0930892
-0.087824
0.000297667
-0.00556292
-0.0223142
0.10056
-0.0184165
-0.0598295
-0.0305564
0.00643243
0.0155688
0.00855514
-0.0391085
0.0352657
0.0144794
-0.0106366
0.0305875
-0.0250375
0.000845253
-0.00639517
0.0196487
0.0711166
-0.12149
0.0307242
0.0728961
-0.0731295
-0.0240915
0.0243248
-0.142221
0.0030073
0.00355366
0.13566
0.0308506
0.0118804
-0.0405389
-0.00219223
0.03986
-0.0582073
0.018598
-0.00025079
0.00198293
-0.00114831
0.000210529
-0.00104515
-0.0125472
-0.0019315
0.0745501
-0.0411646
0.0190205
-0.052406
-0.0121625
0.0463975
0.000446327
-0.0346813
0.00458444
0.0979833
-0.0925245
-0.0100432
0.0512334
-0.0982782
0.0564386
-0.00939374
-0.0503539
-0.000822648
0.0390141
0.0152576
-0.00505686
0.00893226
-0.019133
-0.0245822
0.048807
-0.0130065
-0.0112183
-0.0500082
-0.000345775
-0.00817659
-0.123861
0.176657
-0.0446194
0.0099338
0.0100072
-0.0625712
0.0426302
0.0499377
0.00608673
-0.0460906
-0.0118457
0.00626353
-0.00354677
0.00912894
-0.055488
0.00113882
0.0543492
0.109626
0.0415824
-0.134641
-0.0165674
-0.00865906
0.000327188
-0.00351382
0.0189911
-0.112412
-0.0241397
0.117561
0.0121237
0.0663907
-0.0685073
0.00261909
-0.0541582
-0.0110321
0.000489786
0.00177266
-0.00250488
0.00193841
-0.00172091
0.000272281
-0.0516828
0.0293027
0.0726008
-0.0502206
-0.0018138
0.000923879
0.000875609
-0.03568
-0.00773004
0.0460291
0.000248291
-0.000289431
0.000320306
-0.000889538
4.33378e-05
0.000525894
0.00017438
0.00201233
-0.00164288
0.00133037
1.19198e-05
0.000300585
0.000272886
-4.20921e-05
0.000906097
0.103318
0.118954
-0.0745046
0.000273864
-0.00104383
0.00104285
-0.0527587
0.0538969
-0.00113812
-0.00949197
0.0758981
-0.070413
0.00400682
0.00181375
-0.0186385
0.00488572
0.011939
-0.0593573
-0.00289344
-0.017027
0.0042232
0.0463029
-0.0334991
-0.0642051
0.000241207
0.0639639
-0.00627533
-0.0153265
-0.0123376
0.0339395
0.000229783
-0.000292313
-0.000435864
0.000498395
-0.00403828
-0.00765381
0.0090321
0.00265998
0.0550649
0.0435282
-0.01721
0.0468381
0.0876529
-0.036617
-0.097874
-0.0117168
-0.0437766
-0.0219396
0.021887
-0.057001
0.0570536
-0.00942286
0.0277436
-0.00795636
-0.0103643
-0.0160784
-0.0129783
0.0146844
0.0143723
0.0978037
-0.0932348
0.016592
-0.0211609
0.00102071
-0.00416281
-0.000213656
0.00335575
0.00084761
-0.0655522
0.0647046
-0.0716893
0.00240531
0.0645001
0.00478386
0.0401235
0.0371591
-0.0772826
0.0191337
-0.060233
0.0293825
0.00237559
-0.0015317
0.00110905
-0.00195294
-0.000257262
-0.000591483
0.00237244
-0.0015237
-6.47335e-05
0.0004274
-0.000906733
0.000544067
0.0648628
0.0551158
-0.0397647
-0.0802139
0.00663568
-0.0864514
0.0813164
-0.00150066
-0.0136022
2.29734e-05
0.0266462
-0.013067
0.0509141
-0.0507997
0.0199342
-0.0200487
-0.000436983
0.00121351
-0.000587496
-0.000189031
0.0200897
0.0489536
-0.0499096
-0.047938
-0.00161804
0.000823287
0.00147142
-0.000676661
-7.87343e-05
0.0798168
-0.079738
-0.0503279
-0.0159262
-0.0231643
0.0894183
-0.0508103
0.00048243
0.0122413
0.0178804
0.0149113
-0.0450329
0.000324072
-0.00271285
5.96416e-05
0.00232913
-0.00156774
-0.000642159
0.000591853
-0.110288
-0.00599426
-0.0452371
0.161519
-0.00839559
0.00505082
0.140491
-0.137146
-0.0383337
0.0423938
-0.0632815
0.0592213
-0.0759283
0.0752362
0.000692117
0.00257153
-0.0512799
-0.0300073
0.0653892
0.0197742
-0.00571883
-0.0794445
0.0517353
0.0900943
-0.154939
0.013109
0.043464
0.0136352
0.032595
-0.0896943
0.104445
-0.108451
0.0441294
-0.0033107
0.0124368
-0.0113831
0.00225695
-0.0025353
0.00060761
-0.000987332
0.00291502
-0.00256943
-0.0055308
0.00145194
0.00664829
0.0603653
-0.0060242
-0.0175281
-0.036813
-0.0567277
0.0288491
0.0278786
-0.0908555
-0.00719292
0.0124746
7.45117e-05
-5.93754e-05
-0.00255044
-0.118205
0.0239913
0.007917
0.0862964
0.000912268
-0.0529633
-0.0101654
0.0622164
0.0472226
0.0274627
-0.103023
0.0283377
0.0385521
-0.0412994
-0.0198729
0.0226202
0.0467581
-0.0583015
0.0500955
0.0293847
-0.0557042
0.0498637
-0.0235442
0.033753
-0.0363623
0.00134534
0.00126394
0.0158519
-0.145162
0.091597
0.0377132
0.00113549
-0.0580863
-0.00402614
0.0528134
0.000482968
-0.105953
-0.0340904
-0.00949025
0.00638668
0.0371939
-0.0480456
0.0454884
0.0483632
-0.045806
-0.0416848
0.0814953
-0.0398105
0.00982265
-0.100496
0.0493743
-0.0168004
0.00785088
0.0236907
-0.0147413
-0.0889435
0.0944386
0.0378681
-0.0433632
0.0568407
0.0330645
-0.0792943
-0.0106109
-0.0478524
0.139894
0.00614384
-0.098185
-0.000311863
0.00317593
0.00324999
-0.00611405
0.0547645
-0.0723419
0.0840883
-0.0665109
0.00854803
-0.040796
-0.00853084
0.0407788
-0.0431475
0.0279777
0.103788
-0.0886181
-0.0508955
-0.0280584
0.0566408
0.0223131
-0.0107253
-0.000866319
0.00681463
0.00477701
-0.00891447
0.0201299
-0.0169444
0.00572902
-0.000378535
0.0739567
-0.0735782
0.0147875
-0.0446078
-0.0182253
0.0485872
-0.0327574
-0.0029575
-0.0128723
0.00120736
-0.0235447
-0.0205933
0.0429306
0.0367118
-0.0355731
-0.0011387
0.063099
-0.0414475
0.0625895
-0.084241
-0.100193
0.0972717
0.100725
0.000423055
-0.0109873
-0.00189751
0.0124618
0.0514993
-0.000368543
0.000436669
0.000360906
-0.000429033
-0.000204616
0.0467889
-0.107996
0.061412
-0.00863406
-0.00011956
0.00480524
0.00394838
0.0270943
0.00994323
-0.0370375
0.00100278
-0.0012199
-0.00841694
-0.0316724
-0.0361685
0.0188381
0.0577163
0.000507422
-0.0582237
0.0718206
-0.0430923
-0.05083
0.0221018
0.00194833
-0.0251464
-0.0210785
0.0678349
0.0435195
-0.0395339
-0.00793965
0.00936549
0.136395
-0.122415
0.037062
-0.0510416
-0.0465876
0.0377414
0.0226459
-0.0137997
-0.0518305
0.0518218
8.70523e-06
-0.0486525
0.0302617
0.0111612
-0.0480949
-0.0105656
0.0474993
-0.00193833
0.160845
-0.161661
0.00275472
0.109383
0.0163576
-0.0160606
0.0511826
0.0090399
-0.0523112
-0.00791135
-0.0140149
0.0043524
0.0102854
-0.000622856
-0.00943599
-0.00508633
0.00470172
0.0098206
0.0675016
-0.0375128
-0.054424
0.0244352
0.0297481
-0.0160824
0.0223225
-0.0359882
0.0270861
-0.0957869
0.0918191
-0.0231183
-0.00551224
0.000455909
-0.0089586
-0.0963466
0.109465
-0.0231446
0.0100264
-0.0109408
0.0480524
0.0145513
-0.0516629
-0.00431652
0.000192233
0.00296464
0.00115964
0.0842297
-0.00726632
0.051462
-0.128425
6.53887e-05
-0.000701359
-1.3914e-05
0.000649885
-0.0676195
0.0593754
0.0744053
-0.0661612
0.00325242
0.00127637
-0.00178497
-0.00274382
-0.0777001
0.0759011
0.00179902
0.0626994
-0.0595063
-0.00319311
0.0591665
0.000726061
-0.0598925
-0.0152379
0.125415
-4.48211e-05
-0.110132
0.0102667
-0.0314162
0.0333908
-0.023851
-0.000725203
-0.056374
-0.067939
0.0118996
0.0670344
-0.0109949
-0.0128676
-0.00208067
0.000535011
-0.000703658
0.000307783
-0.000139136
0.00110231
-0.000333877
-0.000210097
-0.000558339
-0.0642085
0.00765681
-0.00159958
0.0581513
0.000549963
-0.00524534
0.00164565
0.00304973
0.0116764
-0.0143217
0.000219589
0.00242567
0.00799216
-0.00685098
0.0105353
0.0562823
-0.0107995
-0.0237725
-0.0217103
0.0369895
-0.00525773
-0.035845
0.00411326
0.00100336
0.0676046
-0.000586671
-0.0680213
0.00784241
-0.0717228
0.0193461
0.0445342
-0.0427506
-0.0327645
0.0426869
0.0328282
-0.0323751
0.0170294
-0.089237
0.104583
-0.000704785
0.0148073
-0.00762772
-0.00647483
0.0497213
-0.0589981
0.0474181
-0.0381413
-0.0620241
-0.00857157
-0.00620371
0.000669045
-0.000207382
0.00400259
-0.00446425
-0.0114292
-0.00278287
0.00162602
0.012586
-0.00769361
-0.00889468
0.0106122
0.00597609
-6.81829e-05
-0.00214368
0.00125353
0.000958333
-0.000384769
0.000430366
-4.55966e-05
5.04646e-05
-0.069458
-0.0249744
0.094382
-0.000123872
-0.000253356
-0.0012672
0.00164442
2.67652e-05
-0.000353532
-5.80029e-05
-0.000115925
-0.0640892
-0.000181475
-1.32041e-05
0.000625045
0.000647873
0.000147906
-0.00043695
-0.000358828
-0.0290555
0.0615631
0.0803341
-0.112842
-0.00874551
-0.00229574
0.00708593
0.00395532
-0.0142028
-3.99817e-05
0.00549722
-0.00482006
0.00539568
0.0123728
-0.0129484
-0.000522809
0.000453406
-0.000112072
-0.0664318
0.0664038
2.80378e-05
0.0317787
0.0472581
-0.0602257
-0.0188112
0.01227
-0.074822
-0.0224238
0.0849759
-0.0130089
0.00290219
0.00528668
-0.00468756
-0.00613591
-0.00218547
-0.0168837
0.0596619
0.0124096
-0.0551879
0.0685438
0.004299
-0.0527751
-0.0200677
0.000183903
0.000427282
-0.000746313
0.000135128
-0.000393847
-0.000102197
-0.0026962
-0.00111498
-0.00111638
0.00492756
0.0663362
-0.0462369
0.011649
-0.0317483
-0.000720789
-0.00272237
0.00150187
0.00194129
-0.0159659
0.0110636
-0.00390593
0.00880817
0.00148335
-0.103832
0.103007
-0.000658447
0.00293902
0.00057715
-0.0101665
0.00665032
0.00959935
-0.01002
0.00142614
-0.00100547
0.00971982
0.00369726
-0.0104781
0.0378813
0.0572132
-0.0287583
-0.0273876
0.0548437
0.0289508
-0.0564069
0.0279728
-0.0553604
-0.000227623
-0.000868413
-0.0327864
0.0124963
-0.00994994
0.0790965
0.0251762
0.00739314
0.0704942
-0.0539739
0.097208
-0.113728
0.0036923
0.0926626
-0.0963549
-0.00671007
-0.00655974
0.0128885
0.00038131
-0.0338016
-0.0871131
0.0272584
0.0936563
0.0221429
0.0628436
-0.0253719
-0.0596147
-0.0233113
0.115128
-0.0539358
-0.0424073
0.0451487
0.0521024
-0.0555168
0.0555762
-5.93749e-05
-0.0378088
0.0365892
0.00121955
0.0411868
-0.0807284
0.0743561
-0.0348146
0.0648367
-0.0817204
-0.00916847
-0.0080359
0.0104943
0.000824142
0.000661023
-0.000561523
-0.000923642
-0.0063771
-0.0423326
-0.00680708
0.00125048
0.00139385
-0.00241588
-0.000228454
-0.0548871
0.0513659
0.086235
-0.0827138
0.0341984
-0.0321223
-0.00207609
0.0108008
0.028281
-0.0142028
-0.0248789
0.00408841
-0.000528176
0.00228218
-0.00584241
-0.0645339
-0.00139833
0.0207342
0.045198
-0.00290135
0.00672145
0.00026831
0.0417243
-0.112196
0.105709
-0.0352374
0.0437444
0.0143129
-0.0581997
0.000142417
-0.00357933
0.00686288
0.001527
-0.00481055
-0.00121898
0.0601613
-0.0589423
0.0360413
0.0062157
0.0140271
-0.0562841
0.00408591
-0.00720449
0.0025904
-0.181134
0.0259013
0.165555
-0.0103214
0.0390291
-0.0107785
-0.0282507
-0.000972012
-0.00169529
-0.00125804
0.00392534
-0.0405797
0.0438775
0.125481
-0.128779
-0.00174206
0.000700432
-0.00213751
0.00317914
0.0899328
-0.00235135
-0.0438371
0.000405019
-0.00115008
0.00206524
-0.00132018
-0.0181476
-0.115574
0.014248
0.119473
0.00282313
0.052497
-0.00362656
-0.0516936
0.0487629
-0.0690367
0.0590818
-0.038808
0.0319461
-0.0366857
0.0497644
-0.0450248
0.00890914
-0.00254931
0.0061037
-0.0124635
0.00175178
-0.0435096
0.0541795
-0.054486
-0.0363792
0.0971768
0.0180828
-0.0251812
-0.0900784
0.0474002
0.0174651
-0.135735
0.0708699
-0.00139381
-0.00839617
0.00616075
0.00362924
0.0277724
-0.0503741
-0.00322566
0.0284723
-0.0262342
0.00757886
-0.00582906
0.000233757
-0.00198356
-0.0887894
0.00375916
-0.00287396
0.074909
-0.151057
0.079022
-0.0263358
-0.0874288
0.0417567
0.0720079
-0.0712706
0.020434
0.00276411
0.0480725
-0.0442509
0.029114
0.0115509
-0.0828598
0.095303
-0.0124432
-0.0218962
-0.00941863
0.11795
-0.0866349
-0.00340166
-0.00401176
0.00598647
0.00142695
-0.0261832
0.0603315
0.0412853
-0.071939
0.0288467
-0.000609415
-0.000386516
-0.00101909
0.00201502
0.0482183
-0.0493781
0.0539732
-0.0372172
-0.00712547
-0.045112
-0.122593
0.0445094
0.0780831
-0.0435589
-0.0332382
0.0281446
0.00301701
-0.00208033
0.00054978
-0.00148646
0.00239501
-0.000273618
0.000895619
-0.0866245
0.00405857
0.0825659
0.0591437
0.0127117
-0.120741
0.0488855
-0.0721485
0.000734851
0.0714136
0.000929334
-0.00150962
0.00810851
-0.00752822
0.047785
0.155638
-0.221677
0.0182544
0.00160148
-0.00231601
0.00159324
-0.000878711
-0.0922766
0.0674955
0.0230917
0.00168939
-0.00168022
-0.00160417
0.00290044
0.000383943
-0.00098871
0.00843325
-0.00787278
0.000428247
0.00829833
0.00822151
-0.0161452
-0.000374678
0.0403557
0.0105141
0.00288786
-0.00262872
0.00134234
-0.0971627
0.106194
0.00562479
-0.0146558
0.0122042
-0.0668647
-0.0221272
0.0767877
-0.000587309
-0.001302
0.0884368
-0.0865475
-0.0433695
-0.0376156
0.0902011
-0.009216
-0.0399732
0.0249751
0.0402252
-0.0252271
0.0521881
0.0212138
-0.0716898
-0.00171206
-0.00265382
0.000675518
0.00232244
-0.00034414
-0.122843
-0.0422583
0.0388915
0.12621
0.0498636
-0.0387024
-0.0326319
-0.0366818
-0.0321834
0.101497
-0.00189788
0.0041953
0.000162688
-0.0024601
-0.0309132
-0.0803984
0.0277176
0.083594
-0.0297073
-0.027522
0.0200121
-0.000952304
-0.00302591
-0.00159129
0.00341876
-0.00354742
0.00171995
-0.0058146
0.005938
0.0234633
-0.0756126
-0.0830437
0.135193
-0.000311887
-0.000269247
0.000363997
0.000217137
0.0544726
-0.0581572
0.0483382
-0.0446537
-0.0142104
0.0418817
-0.00661276
-0.0210585
0.0863691
-0.0865764
-0.019829
0.0200363
0.0265386
0.0224989
-0.0629039
0.0138664
-0.128081
0.0738942
0.0196663
0.0345209
-0.00498364
0.00260171
7.20132e-05
0.00230991
-0.00758784
0.00909449
-0.000577322
-0.0137642
-0.00361005
0.0188609
-0.00148665
-0.0643414
-0.00347087
0.0156931
0.0521192
-0.00901095
0.103407
-0.00671282
-0.0876831
0.00512023
-0.0472374
0.0818409
-0.0397238
-0.00173635
0.0040366
-0.00167653
-0.000623714
-0.0150055
0.000668429
-0.00263215
0.0169693
-0.106739
-0.000375695
0.0133867
0.0937276
0.000117672
-0.000178443
0.000399179
-0.000338408
0.0378905
0.00852333
0.0275573
-0.00660612
0.0470429
0.0538818
-0.0943187
1.66911e-05
0.00052875
-0.000427769
-0.000568993
0.00215646
-0.00141322
-0.000174249
0.0179073
0.111819
-0.0490279
-0.0806983
-0.000117362
-6.10811e-05
0.000183469
-0.000300831
0.0612674
0.0167576
-0.0916784
0.0136534
-0.154703
0.0839655
0.0776938
-0.00695626
-0.0184007
0.000949439
-0.051318
0.0687693
0.0249661
-0.0148885
0.0177256
-0.0278031
-0.0658029
-0.0244601
0.0902631
-0.0762309
0.0382538
0.0379771
-0.00209813
-0.000283315
-9.21957e-05
0.00247364
-0.0388834
0.0417383
0.00827333
-0.0111283
0.048193
-0.0558572
0.00766427
-0.0599974
0.0340247
0.0455001
-0.0195274
0.00417922
-0.00202282
-0.00202828
-0.000128126
-0.00307524
-0.00259028
0.000681877
-0.0427639
-0.043979
0.0458955
0.0142843
0.00257473
-0.0627546
0.00144567
-0.000458248
-0.000466189
-0.000521229
-0.00737713
0.0125148
-0.0116439
0.00650624
0.00632119
0.0215406
-0.0394652
0.0116034
-0.0200369
-0.0170312
-0.00699478
0.0440629
-0.0738645
-0.00970406
0.0282441
0.0553245
-0.00145965
0.0149109
-0.00854804
-0.00490326
-0.0535927
0.00041076
0.033145
0.000304217
0.0273619
-0.135156
0.12628
-0.0184863
0.0271359
-0.0336021
-0.0514145
-0.0281614
0.0561342
-5.32399e-06
0.0389136
0.00260616
-0.0415144
-0.0591497
-0.0604651
0.119615
-0.00299173
-0.000854323
-0.00180073
0.00564678
0.00320608
-0.0045914
0.00161999
-0.000234673
0.0361518
-0.00570666
-0.0284682
-0.00197696
-0.00321225
-0.00205693
0.00227746
0.00387019
-0.010024
0.0683836
-0.0622298
0.0757769
0.000425459
0.0281549
0.00911206
-0.00623201
-0.0310349
0.0571545
0.00109186
-0.0582463
-0.0563992
0.115145
-0.0293753
0.0603433
0.0212928
-0.0522608
-0.0148006
-0.023165
0.0152233
0.0227422
0.00341302
0.00352203
0.000798635
-0.00773369
-0.0349606
-0.0384221
0.0993116
-0.025929
0.0427774
-0.0346327
-0.000378445
-0.00776622
-0.0534751
0.115726
-0.048918
-0.0133328
-0.00168506
0.00194022
-0.000204559
-5.06038e-05
-0.00103336
0.0213816
-0.00361449
-0.0167337
0.00263111
0.00362561
0.000248338
-0.00650505
-0.000287295
-6.3384e-05
-4.14087e-06
0.00035482
1.7109e-05
5.0118e-05
-0.000354522
-0.0090269
0.0241097
0.0688934
-0.0839762
0.0803411
-0.0818023
0.00146129
0.000321563
-0.000350746
2.91833e-05
-0.0131358
0.00103428
0.00218786
-0.00144224
-0.0017799
-0.0101887
-0.00761485
0.00574757
0.012056
-0.0558183
0.026443
0.000276576
0.0003339
-0.000811481
0.000201005
0.0330744
0.0556248
-0.0363378
-0.0523614
0.0152992
0.1538
-0.179221
0.0101224
0.0584077
0.0652716
-0.063336
0.00200917
-0.0129866
-0.00145508
0.0124325
-0.0318261
-0.029397
0.0612231
0.03258
-0.0644061
-0.0532401
-0.0439263
-0.0674758
0.164642
0.0505528
-0.0563975
0.00584474
-0.0728626
0.132989
-0.0709256
0.0331043
-0.0299121
0.0866864
-0.00298385
-0.0693743
-0.0143283
0.0699934
-0.0698172
0.0108202
-0.0109963
-0.000337903
-0.00580698
0.00746997
-0.00132509
0.00231355
-0.00560206
0.00560473
-0.00231622
-0.000140308
-1.35809e-05
0.000841362
-0.000687472
0.0218195
0.022122
-0.0331431
-0.0107985
-0.00516005
-0.00540969
0.00605133
0.0045184
-0.0100718
0.0328435
-0.0443439
0.0215722
0.000762477
-0.00823906
0.0110976
-0.00362101
0.0492495
-0.00473651
-0.044513
0.0402128
0.0359748
-0.126405
0.0502171
-0.099922
0.0616388
0.0784959
0.0334483
-0.10079
-0.0453396
0.108294
-0.0406467
-0.0223082
0.00193473
0.00893601
-0.0124669
0.00159613
0.0275692
-0.00392384
-0.0236453
-0.0295222
0.0458214
-0.00393597
0.0196777
-0.0318201
0.00140893
4.45054e-05
0.000734223
-0.00218765
0.0116682
-0.0379023
-0.00119548
0.000194069
-0.000345373
0.00134678
0.00266585
-0.000183336
0.000850839
-0.00333335
0.000134761
-0.00181399
-0.0769404
-0.0148351
0.00177675
-0.010624
0.0236823
0.0193348
-0.0891287
0.0218401
0.0479539
-0.00276833
0.0573509
-0.0824173
0.0278347
0.000827554
-0.000840546
0.00187885
-0.00186586
0.0792585
0.0132776
0.0011489
-0.0936851
-0.0010537
-0.000826524
0.00209208
-0.000211857
0.00253672
0.000966466
-0.0680158
0.0645126
0.00622596
-0.001085
-0.00449829
-0.000642671
0.00600211
0.00437759
-0.00342851
-0.00695118
-0.110932
0.0975243
-0.0880364
0.101444
-0.0558186
0.109529
-0.0537099
0.00362966
-0.0458894
0.00924629
0.0330134
0.00347041
-0.0039272
0.00105434
-0.000597549
0.0473674
-0.001542
0.000572168
-0.13094
0.00139443
0.0731462
-0.0333877
-0.000494796
0.0011839
0.0295865
-0.0239513
-0.00681911
0.0772985
-0.0287296
0.0330481
0.00377815
-0.00471785
0.000106372
0.000833331
0.0340631
0.0232235
-0.0747329
0.0174463
-0.00100028
0.00050625
0.000899466
-0.000405435
-0.000445056
0.00137569
0.00507147
0.000675347
-0.00747068
0.00606408
0.00518475
0.0768525
0.04081
-0.0375224
-0.0801401
-0.13354
0.143312
-0.00903679
-0.000734961
0.0307019
-0.030768
6.61825e-05
-0.0361517
0.000395933
0.000263121
-0.00298653
-0.00199444
0.0139321
0.208102
-0.157235
-0.0647988
0.0296885
-0.061424
-0.0183202
0.0500556
-0.00282998
0.0382917
-0.000154566
-0.0858585
0.0477214
-0.0215102
0.0085819
-0.037345
0.046944
0.0467692
-0.0563682
-0.0671243
0.0882948
-0.150071
0.128901
-9.04176e-05
0.000172647
-0.00148034
0.00139811
0.000275202
0.00218161
-0.00079581
-0.001661
0.0458162
-0.0172901
0.0407407
-0.0692668
-0.00354782
0.000439222
0.0031498
-4.12054e-05
-0.011969
0.0112369
-0.0366129
0.0113494
-0.0444191
0.00582073
-0.00300844
0.0178437
-0.020656
-0.131004
0.0151786
0.124416
-0.00859049
0.0396312
-0.0260579
-0.0199581
0.00638487
0.035374
-0.0547434
0.00740034
0.00417661
0.00749163
0.0515318
-0.0632
0.0243345
-0.00759367
-0.0253341
0.00859328
-0.0809401
-0.00782372
0.0160994
0.00121084
-0.000913414
-2.22252e-05
0.000216306
0.00643834
0.00148041
-0.00813506
0.0174869
-0.0320109
0.0388586
0.0159546
-0.14096
-0.0246191
0.149625
-0.111538
-0.0155908
0.02551
0.101619
0.0572142
-0.0345427
0.0297467
-0.0524182
0.109272
-0.00685823
0.00458003
-0.106994
-0.0178418
-0.0376246
-0.00392548
-0.0153918
0.00741353
0.0119037
-0.00127051
0.000462565
0.000110662
0.000697285
0.0143182
-0.0769316
0.0626134
0.103788
-0.00648312
-0.112543
-0.0266962
0.0561823
-0.047328
0.0399383
-0.122098
0.0127576
0.0694018
-0.00471878
-0.0118747
-0.0275444
0.0441379
0.00360066
0.0486051
0.0793948
-0.128338
0.000337924
0.049251
-0.0832042
0.0903209
-0.0563677
-0.0972085
0.0945878
-0.00613185
0.00875255
0.00171797
0.00259935
-0.094059
0.0897417
-0.00140246
0.00360549
0.0058835
-0.00808653
9.25436e-05
-0.000830419
-0.000200837
0.000938713
0.0878197
0.00277864
-0.019579
-0.0710193
-0.000409348
0.000519939
-0.000378255
0.000267664
0.00074936
0.00315158
-0.00207591
-0.00182503
-0.00178925
-0.00072717