/*--------------------------------*- C++ -*----------------------------------*\
| =========                 |                                                 |
| \\      /  F ield         | OpenFOAM: The Open Source CFD Toolbox           |
|  \\    /   O peration     | Version:  2506                                  |
|   \\  /    A nd           | Website:  www.openfoam.com                      |
|    \\/     M anipulation  |                                                 |
\*---------------------------------------------------------------------------*/
FoamFile
{
    version     2.0;
    format      ascii;
    arch        "LSB;label=32;scalar=64";
    class       volVectorField;
    location    "0.0126916";
    object      U;
}
// * * * * * * * * * * * * * * * * * * * * * * * * * * * * * * * * * * * * * //

dimensions      [0 1 -1 0 0 0 0];

internalField   nonuniform List<vector> 
47425
(
(10.1029 -0.0971316 0.0963411)
(10.1365 -0.0786719 -0.716431)
(9.92688 0.0851055 0.103582)
(10.9387 -0.293832 -0.229416)
(11.5559 0.266506 0.717634)
(10.1512 0.00552818 0.017103)
(11.4359 0.172237 0.616539)
(10.0671 -0.0149905 -0.0341994)
(10.232 -0.0923565 -0.0424285)
(6.31531 6.0127 -0.95606)
(10.0498 -0.0659156 -0.0219921)
(10.5643 0.0727421 0.0436071)
(11.3197 0.227826 0.231609)
(9.95372 0.0792795 -0.104149)
(9.9743 0.255541 -0.182849)
(9.38936 -0.224622 0.278149)
(9.89089 0.131563 -0.0699312)
(8.72617 -0.436741 -1.06557)
(8.66897 0.723246 -4.33895)
(12.755 -0.307475 -0.479207)
(10.5484 -0.512242 -0.49948)
(9.73686 0.100182 -0.102252)
(10.1665 0.0264311 0.105713)
(10.0222 -0.0555845 -0.0441817)
(9.99109 -0.131856 0.118935)
(10.1806 -0.056442 0.030787)
(10.0425 -0.111237 0.00748147)
(11.4016 -0.175446 -7.79811)
(9.93506 -0.0717268 0.00577954)
(9.98752 0.0385373 0.0283791)
(9.67432 0.300542 0.284492)
(10.0188 -0.0355803 0.249346)
(10.0117 -0.258006 -0.0747887)
(9.88585 0.353148 0.115027)
(10.0078 -0.282905 0.109837)
(10.1254 0.0298183 -0.00828394)
(9.73477 -0.00491404 -0.0429027)
(9.53671 0.495149 -0.378795)
(10.382 0.027971 -0.20476)
(10.0313 0.142565 -0.0386634)
(9.79066 -0.199749 0.282289)
(9.6347 0.0559193 -0.0108372)
(9.52658 -0.273363 0.302888)
(10.0863 0.174288 0.0273242)
(2.2067 -1.90032 -1.36038)
(10.2354 0.0174151 0.363112)
(9.98467 0.105663 -0.0047574)
(10.0665 0.0891319 -0.115831)
(10.1429 -0.251465 0.181068)
(10.0148 -0.170144 -0.0978191)
(1.98572 -0.425683 -5.11862)
(9.69245 0.556437 0.591127)
(10.1414 0.115852 0.00544424)
(7.87758 -5.82834 1.61096)
(10.0665 0.00710297 0.146675)
(10.4272 0.0393226 -0.254788)
(10.0952 -0.0695125 -0.250306)
(9.94144 0.0830648 -0.181307)
(12.6526 0.301775 -0.00519192)
(10.0037 0.103702 -0.208484)
(6.89799 -5.70768 0.790043)
(6.28441 0.685035 1.28052)
(7.08822 -7.43778 1.01585)
(9.16023 -0.922316 0.256306)
(9.89829 0.0468066 0.253015)
(10.4673 -0.175343 0.11864)
(9.83544 0.0512396 0.0174048)
(10.2489 0.121534 0.383647)
(8.84343 -6.47644 2.59049)
(9.1095 0.436739 0.624373)
(10.6366 -0.259883 0.195692)
(10.1372 0.117304 -0.0805549)
(10.544 0.0499356 0.0685871)
(10.4811 0.181919 -0.462008)
(8.07414 6.24938 1.0122)
(9.66875 -0.159599 0.26827)
(7.4972 -7.53515 1.76855)
(10.0371 0.178021 -0.0845318)
(8.3327 -5.80819 2.70583)
(11.1088 0.126509 1.54226)
(8.56164 6.01209 1.20877)
(10.253 0.125974 0.0667906)
(9.40223 0.0672477 -0.118964)
(9.98606 0.320086 0.361098)
(9.65969 0.247843 -0.200631)
(9.80605 0.0780441 -0.0452646)
(10.2672 0.035466 -0.0243541)
(10.1649 0.0732775 -0.12882)
(9.8022 0.684255 -0.639815)
(10.6936 -0.176699 2.26507)
(9.66877 0.276015 0.00511291)
(10.4354 -0.373772 -0.267016)
(10.0263 -0.0902305 0.280908)
(9.9807 -0.241779 -0.188707)
(9.65059 -0.115951 -0.120208)
(10.2111 -0.181626 -0.146488)
(10.0323 -0.0281498 -0.0733106)
(10.1208 -0.28431 -0.235726)
(10.0671 0.0166707 0.344456)
(9.90438 0.684387 0.57505)
(10.1137 0.183771 -0.0464843)
(8.76836 0.0927398 -3.39347)
(10.3732 0.0828463 0.0232037)
(5.4919 1.64105 -0.178994)
(10.3461 0.143253 0.132689)
(9.97689 -0.280423 0.110086)
(9.85105 0.00592724 -0.123474)
(9.87889 -0.0788472 0.00349522)
(10.1269 -0.0015935 -0.00122826)
(9.99423 0.188886 0.0440223)
(0.65672 -0.831528 -1.80405)
(10.1054 0.107182 0.0379921)
(10.0311 -0.400807 0.136141)
(10.0468 -0.0274974 0.117007)
(10.311 -0.303641 0.158477)
(1.85927 -3.88683 -5.15169)
(10.3047 -0.311503 0.127658)
(4.21172 0.14521 -3.57114)
(10.4125 0.163839 0.39765)
(10.4136 0.298216 0.326019)
(9.99557 0.160266 -0.0573745)
(9.85995 -0.236691 0.0478736)
(10.037 -0.0808862 0.154203)
(11.2951 0.622233 -0.378851)
(10.0111 0.328664 0.0854845)
(10.0989 -0.453282 0.16764)
(10.0376 0.060256 0.160926)
(9.75698 -0.0675465 0.163816)
(9.87085 -0.0999981 -0.444591)
(10.0905 -0.0663217 0.127745)
(9.6069 -0.0255192 0.393282)
(9.8816 0.122689 -0.155145)
(4.64931 0.185985 1.40681)
(10.3395 -0.0473411 0.18941)
(9.80093 -0.2025 0.0509788)
(11.4242 -0.400811 -0.644554)
(10.681 0.337404 0.225822)
(10.1427 -0.485536 0.234492)
(9.98457 0.179761 0.260809)
(10.4252 0.152432 -0.25016)
(10.4174 -0.0434652 0.0161547)
(11.2527 -0.203191 -0.0907456)
(10.3988 -0.0234048 0.00971375)
(9.99785 -0.585832 0.207149)
(10.0097 0.144139 -0.267833)
(10.0613 -0.129285 -0.0170176)
(11.3461 0.055816 0.988368)
(10.2485 0.0908163 0.0406477)
(10.2434 0.0131317 0.168554)
(10.0979 0.00624449 -0.107754)
(9.96311 -0.551323 0.132014)
(2.99332 -0.297806 -6.04432)
(10.1807 0.176858 0.278112)
(5.95128 0.146549 -10.786)
(8.96098 -0.961556 -0.381391)
(9.98923 0.0810719 0.00677578)
(10.7311 0.202213 -1.39986)
(7.50781 -3.42935 -2.19204)
(10.0532 -0.290454 -0.93823)
(10.1511 -0.284975 0.0695514)
(10.4765 -0.366419 0.147871)
(10.0858 0.0737636 -0.29575)
(9.98034 -0.0660342 -0.262377)
(9.71692 0.336735 0.080697)
(12.1858 0.117665 0.151356)
(2.1724 -1.75466 -1.90504)
(10.1651 0.0105198 -0.0672741)
(8.51052 6.06628 1.08292)
(10.0796 -0.386024 -0.13021)
(12.1107 0.404642 -3.49437)
(9.35169 5.57137 0.832244)
(10.0556 0.39685 -0.0181958)
(10.1754 0.164248 0.0241453)
(9.40683 -0.770494 -0.316005)
(10.7091 0.0852635 -0.308328)
(9.40743 -2.62837 -0.818294)
(2.80338 0.848578 -6.92673)
(10.0065 -0.0597021 -0.061191)
(10.0172 0.00747474 0.0612664)
(10.1431 -0.106702 -0.0549147)
(2.58613 0.340075 -10.3683)
(9.97816 -0.0561161 -0.091531)
(9.84099 -0.0959153 0.0445483)
(9.47954 -0.439398 0.015003)
(10.0537 -0.00546474 -0.0471892)
(9.93163 0.0663365 -0.216926)
(10.2253 -0.415158 0.186816)
(5.70822 -0.319061 0.0343987)
(9.96692 -0.0997148 0.159203)
(9.98814 0.0545927 -0.0893087)
(10.0383 -0.150532 0.146108)
(9.92358 -0.228484 0.0778051)
(10.791 0.701691 -1.03992)
(10.0348 0.251777 -0.0803798)
(9.88635 -0.110324 -0.116284)
(10.548 -0.219723 0.0248746)
(10.1886 0.100356 -0.247963)
(10.0248 -0.00632747 0.138013)
(10.6298 -0.277477 0.149513)
(10.0181 -0.0888681 -0.101701)
(10.0705 0.19413 -0.238019)
(9.90301 -0.18924 0.101382)
(10.144 0.0350857 0.017691)
(10.4346 -0.275742 0.0131656)
(10.1812 -1.15474 -0.605214)
(10.3066 -0.188527 0.137655)
(9.81284 -0.088141 0.408661)
(10.4729 -0.19767 0.00335824)
(9.9424 0.100691 -0.148658)
(9.38578 0.458705 -0.0383344)
(10.1112 -0.000660572 -0.327088)
(10.5883 -0.0224034 0.0774673)
(10.1362 0.27167 0.0472058)
(10.0513 -0.288547 -0.158014)
(10.168 0.110937 0.0263038)
(10.6013 -0.353334 -0.146142)
(10.3598 0.179864 -0.0199819)
(11.0002 0.0229849 1.13266)
(8.75242 -1.04254 -0.287906)
(10.043 -0.276608 -0.204193)
(10.9884 -0.291278 2.00699)
(10.4322 0.161626 0.161879)
(9.76502 -0.4552 -0.0958087)
(10.464 -0.284673 -0.119197)
(10.1702 0.0454104 0.298841)
(10.9579 -0.482021 1.92504)
(9.87531 0.0173854 0.0611197)
(10.522 -0.270803 -0.226183)
(10.6196 0.473275 0.288388)
(10.8775 0.906999 -0.160366)
(10.3422 0.0366873 -0.0512534)
(10.1325 0.0228543 0.0500787)
(9.97593 0.0307634 -0.142647)
(9.97463 0.0368261 0.141328)
(10.2002 0.306117 -0.0140122)
(10.0882 0.10551 -0.0072958)
(11.0658 0.239154 1.65448)
(9.89553 0.0145296 -0.108174)
(11.223 0.198989 1.5226)
(10.3689 0.148809 -0.257999)
(9.86999 0.0563685 0.213872)
(9.63938 -0.23763 -0.0910508)
(9.88967 0.0457482 0.0662878)
(11.0962 -0.118759 -0.168448)
(10.3615 0.263294 -0.0767423)
(9.56274 0.0123631 0.276585)
(10.2235 -0.123121 0.237124)
(9.05021 0.751278 -0.350612)
(9.8961 -0.132747 0.00211976)
(9.93147 -0.0903827 0.0240907)
(9.80913 -0.367117 0.142945)
(10.9442 -0.103086 1.55917)
(9.83827 -0.167395 0.127231)
(9.90637 -0.352954 -0.110622)
(9.59527 -0.00589657 -0.103376)
(10.0661 0.106987 -0.106033)
(9.94739 -0.321151 0.112145)
(10.4517 0.0634679 0.0160984)
(10.5506 -0.13834 0.0517282)
(10.1061 0.0964907 -0.0263477)
(10.4693 -0.181892 -0.542598)
(9.93261 -0.135636 0.249572)
(10.1466 0.19104 0.0598124)
(10.3458 -0.249209 0.0436361)
(10.9341 0.00949751 0.516594)
(9.76165 -0.0737368 0.182174)
(9.95259 -0.108277 0.0461443)
(10.9939 0.028281 0.429464)
(9.9364 0.153776 0.250534)
(10.2582 0.110688 0.177808)
(9.91143 0.172223 0.0839287)
(11.2651 0.279442 1.26724)
(11.0464 0.297338 1.38496)
(10.0393 -0.456067 -0.184647)
(11.1086 0.0960964 1.39074)
(10.4296 -0.149633 -0.0835551)
(11.1748 0.189321 1.31754)
(7.33196 2.9539 2.79632)
(10.9993 0.243501 1.38207)
(5.90753 0.991032 -4.56718)
(6.44911 -5.54483 0.440056)
(9.97937 -0.074452 0.0698926)
(5.96763 -5.46542 -0.355607)
(9.88626 0.209015 -0.277804)
(9.8298 0.12997 0.116881)
(10.6716 -0.0976868 0.113536)
(10.0098 0.2086 0.0970164)
(9.76375 0.0744011 0.0388249)
(9.47495 0.255345 0.57306)
(10.2138 -0.368082 0.118531)
(1.3824 1.40831 -2.97323)
(9.38579 0.651339 0.138276)
(10.0039 -0.0279112 -0.00710505)
(9.84971 -0.0714077 -0.024538)
(9.88555 -0.0286855 0.190503)
(10.9425 0.0209801 0.277088)
(11.2339 -0.0609294 -0.267753)
(10.3531 -0.273941 0.162951)
(9.93418 0.0387013 0.0272606)
(11.0336 0.115642 0.417329)
(10.0601 0.198178 -0.385361)
(10.0969 -0.384128 -0.0234877)
(9.98434 -0.476386 0.0666907)
(9.97718 -0.212648 0.138612)
(14.1908 2.55436 0.66033)
(9.68409 -0.00204604 0.727915)
(1.55346 0.922434 -5.67233)
(9.8895 -0.0221971 0.200477)
(10.0726 0.169443 0.0832553)
(10.0017 -0.496443 0.0369949)
(9.87221 -0.298141 -0.0280543)
(1.14104 -0.442707 -5.04666)
(10.1508 -0.010375 0.0234474)
(10.1056 -0.106307 0.036406)
(10.1096 2.26668 1.40818)
(9.95649 -0.0753453 -0.0228009)
(10.0363 0.0209468 0.112043)
(9.876 0.203134 0.213301)
(9.78614 0.300796 0.171099)
(13.7568 0.0928457 0.314272)
(10.2967 2.05738 1.36815)
(10.0886 0.0663733 0.250991)
(10.2928 0.48891 -0.140101)
(9.97701 0.180974 -0.123311)
(9.56273 0.406528 -0.54079)
(9.99803 0.159649 -0.00825801)
(10.2227 -0.217289 0.223432)
(10.0702 0.0719051 -0.383787)
(9.94186 0.0480882 -0.110619)
(9.98442 0.110152 0.197456)
(10.715 -0.0795027 0.332954)
(12.8195 -3.3549 1.63585)
(10.264 -0.582928 -1.02998)
(9.95791 0.0262962 0.106248)
(10.1812 -0.0096647 -0.29589)
(9.64472 0.134289 -0.10811)
(13.3289 -2.81753 1.91751)
(10.0417 -0.216763 -0.127439)
(10.0402 0.0511094 0.00154223)
(10.0962 -0.322531 -0.0390623)
(9.93477 0.0677811 -0.101252)
(9.97632 0.0129563 -0.0509723)
(10.0928 -0.115626 -0.013841)
(9.75043 -0.0110171 0.180729)
(10.0464 -0.0650114 0.359773)
(9.53733 -0.254922 -0.141187)
(9.87414 0.236423 -0.359116)
(9.83884 0.295447 -0.0766334)
(10.1461 0.108304 0.193342)
(9.96516 0.115503 0.267229)
(10.0516 -0.138338 -0.13827)
(10.3037 -0.421735 0.208114)
(10.0918 0.0845694 -0.0101344)
(9.61137 -0.174872 0.0202918)
(9.79726 -0.212045 0.155663)
(11.0496 -0.639089 0.120311)
(10.3257 -0.0702232 0.11874)
(9.54176 0.206962 0.161065)
(9.93329 -0.33387 0.131882)
(10.33 0.21968 -0.00185512)
(10.7489 0.0452814 2.00923)
(10.3879 -0.557103 -0.314681)
(10.0281 -0.46551 -0.135953)
(10.1402 0.267017 -0.084462)
(10.1883 0.00731612 0.184171)
(10.0134 0.231321 0.114409)
(10.2336 -0.0826009 -0.176193)
(10.037 0.107156 0.0346346)
(10.0728 0.0778633 -0.0896181)
(10.2395 0.482765 0.0212576)
(10.2753 -0.145267 -0.227404)
(2.01821 -2.82182 -1.54099)
(10.3736 -0.157976 0.0189889)
(10.0139 0.592456 0.0759071)
(10.0294 -0.0899028 -0.0418117)
(10.017 0.50089 0.095168)
(9.68296 -0.20366 -0.00676419)
(10.0272 -0.145779 0.0289703)
(9.81663 0.260251 -0.229619)
(9.78087 -0.0221713 -0.0309081)
(9.93585 0.277296 -0.269722)
(10.0768 0.573763 0.0474938)
(10.3835 -0.0740234 -0.0542652)
(10.4052 0.0836605 0.071815)
(9.78695 0.06735 0.0424215)
(10.2863 0.11397 0.0886385)
(10.3232 -0.211015 -0.126869)
(10.2068 0.290773 0.01205)
(10.2865 -0.0913287 -0.187532)
(10.1628 -0.233787 -0.012392)
(10.174 0.758867 -0.147194)
(10.1223 0.945362 -0.22145)
(10.3387 0.0217321 0.102905)
(10.3575 0.104666 0.148419)
(10.1497 -0.12721 -0.0971362)
(10.0994 0.728144 -0.123544)
(10.2627 0.0778772 0.0122214)
(10.1022 -0.0764311 -0.147585)
(11.1958 -0.74117 -0.628378)
(9.89527 0.0258591 -0.0420065)
(10.3274 -0.578588 1.8153)
(10.1925 -0.0239658 -0.0241291)
(10.3031 -1.94612 -3.40929)
(9.89852 -0.0260179 -0.273947)
(10.5883 0.148895 0.190282)
(9.86268 0.56557 -0.461054)
(9.90646 0.138787 -0.0664873)
(9.87955 -0.0261464 0.0715078)
(10.1444 0.00397951 -0.000241195)
(10.2851 0.0592349 -0.0838072)
(10.096 0.857379 -0.165069)
(4.13261 -1.48879 0.401194)
(2.52916 -0.439327 -1.95808)
(10.2767 0.194744 0.227029)
(10.127 1.27022 -0.604561)
(10.4591 0.52395 -0.243177)
(10.5649 0.474557 -0.175082)
(9.98499 -0.201248 0.0944983)
(9.92522 0.0948537 0.226505)
(10.1467 0.140864 -0.0736926)
(9.89144 -0.0318073 -0.0595018)
(9.91195 -0.106662 -0.0726893)
(9.95767 0.0381557 -0.173136)
(10.5731 0.479353 -0.216343)
(10.1163 -0.120435 -0.0646958)
(9.91889 -0.00345341 -0.192493)
(10.2901 -1.08871 0.48755)
(10.984 0.458159 -0.0471013)
(10.7119 0.373444 0.145836)
(8.1238 -1.07703 -4.5082)
(0.142751 4.80739 -0.423262)
(10.0834 -0.211946 -0.0314425)
(7.4914 -0.790759 -4.98499)
(0.302088 3.82304 0.044634)
(9.52126 0.131475 0.14418)
(-0.026906 5.2525 -0.213977)
(9.40696 -1.48509 1.68748)
(9.89079 -0.391504 0.0667774)
(10.6999 0.575173 -0.164836)
(10.6549 0.59423 -0.162153)
(10.8723 0.521654 -0.096719)
(-0.548846 4.80772 -0.137258)
(10.0858 0.145796 0.0836173)
(10.0762 -0.210675 -0.0923805)
(10.043 0.0118689 0.0916042)
(10.9528 0.564465 -0.176285)
(10.8566 0.592988 -0.212126)
(10.1123 0.0817862 0.0938979)
(9.94561 0.0593015 -0.0237463)
(9.70836 3.34435 2.82369)
(-0.678188 3.76609 -0.78049)
(12.5066 -0.306679 -2.38709)
(10.1697 -0.0889626 -0.0376135)
(8.78361 -0.515446 -2.78614)
(10.1086 0.34189 0.561466)
(10.3004 -0.216792 0.0764445)
(10.5921 0.222864 0.0744904)
(11.1595 0.188029 0.29128)
(10.5911 0.208363 -0.0102882)
(10.3216 -0.0519384 -0.0106472)
(10.0571 0.0149956 -0.0726855)
(9.91221 0.190138 -0.185557)
(10.3404 0.141399 -0.192794)
(9.91494 -0.0659154 0.0243591)
(9.99418 -0.117277 0.123358)
(10.0575 0.05549 0.117242)
(9.91846 0.342846 0.0437689)
(10.6512 -0.0389791 0.0806601)
(9.94263 -0.117745 0.0459801)
(10.0145 0.127613 -0.24046)
(10.2078 0.0849118 -0.0359631)
(10.0192 -0.0303816 -0.187175)
(9.67595 -0.237067 0.292356)
(10.257 0.0978868 -0.0256637)
(10.2898 -0.169059 -0.0221258)
(9.80411 0.0115838 -0.179664)
(10.6322 0.0265701 0.03907)
(9.26814 4.06078 2.25717)
(9.77082 -0.189124 0.0574024)
(11.5663 1.35902 -0.875186)
(10.0994 0.103413 -0.107658)
(10.3736 -0.177389 0.0770946)
(9.5322 -0.17049 1.48772)
(9.65278 1.22194 -0.442968)
(9.98369 -0.0603949 -0.00730536)
(9.76396 1.25241 -0.488472)
(10.2333 0.00282228 -0.255193)
(9.72197 -0.206923 0.107784)
(9.86169 1.16957 -0.727647)
(10.115 0.398179 -0.600079)
(10.1244 -0.335583 0.00649033)
(9.74816 1.07182 -0.516694)
(10.2967 -0.0224218 -0.143449)
(10.4514 0.0406116 -0.164069)
(8.2913 0.16211 -3.46787)
(10.0811 0.0198534 0.0653463)
(9.66679 1.60072 -0.386348)
(9.73534 -0.204508 0.0313574)
(9.07798 1.7945 -0.720998)
(10.0996 -0.232131 0.054703)
(9.93126 -0.188819 0.0733757)
(9.9106 0.188532 -0.0178029)
(10.1979 0.0796424 0.108737)
(11.0305 0.327896 0.550492)
(9.79326 0.175955 -0.057345)
(10.0703 0.0681241 -0.0678215)
(9.85006 -0.0669886 -0.05668)
(10.2178 0.195387 -0.00817085)
(10.6818 0.134671 0.12114)
(10.1348 -0.0276309 0.098968)
(9.95167 -0.0346266 0.0193993)
(8.84921 0.189092 -0.31837)
(10.18 0.0196632 -0.0111975)
(9.97248 0.150737 0.0415747)
(9.80474 0.0375377 -0.163807)
(9.81353 0.165754 -0.14186)
(10.1798 0.0496501 0.245388)
(9.9159 0.155029 -0.223343)
(10.037 0.0454221 -0.406078)
(10.1367 1.18117 -0.791443)
(10.2699 -0.0906725 -0.00511381)
(9.62232 -0.0158008 -0.449508)
(2.99582 -0.258916 -5.02844)
(9.97132 -0.04651 -0.256769)
(10.0331 -0.0669289 -0.000813896)
(10.0131 -0.24795 0.144635)
(10.1805 -0.0325369 0.0890516)
(12.1642 0.589627 0.395533)
(12.196 0.209537 0.704168)
(10.0249 0.238862 0.494687)
(9.83744 0.259026 -0.0510939)
(10.2427 -0.0424206 -0.412226)
(10.6833 0.115064 0.770177)
(9.94542 -0.190871 0.0237272)
(12.2587 1.04631 0.344134)
(9.75964 -0.486259 0.130545)
(-1.09406 -0.628656 3.25266)
(8.0714 -0.22665 -0.387903)
(9.91764 -0.539357 2.11747)
(9.59373 0.0901692 -0.1324)
(12.1653 0.916132 0.409699)
(9.99788 -0.0778905 -0.00555249)
(10.0557 0.0924006 0.139924)
(10.1321 0.177758 -0.101773)
(10.1465 0.046643 0.273948)
(10.0353 -0.105016 -0.00120021)
(9.89203 -0.0981878 -0.268686)
(10.8094 1.43502 0.986336)
(9.98891 -0.0242285 0.195176)
(10.2865 0.324733 -0.156509)
(10.1657 0.171139 -0.0800936)
(12.1182 0.489014 0.372322)
(10.1383 -0.0250295 0.0202838)
(9.76601 -0.117268 0.034147)
(11.9801 0.661525 0.238033)
(11.6892 -0.0366685 0.429699)
(10.1106 -0.14001 -0.18061)
(9.95678 -0.00275099 -0.164917)
(-0.132763 1.35839 0.900434)
(9.60079 0.0457346 0.0711651)
(10.1114 -0.202464 0.0652923)
(10.0691 0.172468 0.125226)
(9.9853 -0.059454 0.155098)
(10.1532 -0.021623 0.0675766)
(11.4845 0.162175 0.160543)
(10.5985 0.140341 0.84777)
(9.66923 0.455542 0.981938)
(10.0881 -0.158156 -0.19761)
(10.0268 0.128392 0.0425125)
(9.84113 -0.240555 0.108024)
(12.2203 0.0502242 1.40015)
(9.44623 0.190323 -0.238378)
(10.0553 -0.135905 0.355031)
(-0.244182 0.996253 0.849863)
(10.2338 0.028003 0.0317472)
(10.1375 0.0251414 -0.0214638)
(-0.889426 0.991545 1.12965)
(11.9557 1.72873 -0.713475)
(9.85824 0.0612489 0.176525)
(0.10467 0.906535 0.334468)
(-0.0938145 1.31222 0.732875)
(9.96978 -0.0248254 0.0371464)
(10.1086 0.468027 0.294185)
(9.95899 -0.0548579 -0.149613)
(9.72254 -0.154165 0.258982)
(10.2761 -0.324095 0.0652626)
(9.74023 -0.178113 0.223119)
(12.1935 4.05943 0.869672)
(10.1434 0.244309 0.0632017)
(10.1585 0.254552 0.0389463)
(10.0547 0.0390559 -0.160279)
(11.9711 -0.360809 0.419844)
(11.4726 0.495042 0.140739)
(10.4406 -0.341104 -0.193315)
(10.3581 0.0999128 0.145978)
(-1.73534 -2.58695 -0.389091)
(6.82294 -0.94228 -2.04695)
(10.5923 0.119279 -0.0767817)
(10.0169 -0.132071 0.144173)
(10.0467 -0.212068 -0.0299919)
(10.7673 -0.110008 -0.519164)
(10.1157 -0.201396 -0.295096)
(10.0268 0.00770283 -0.389241)
(10.1886 -0.255265 0.210878)
(10.2954 -0.0168192 0.33103)
(10.2056 0.0498925 -0.288263)
(10.3084 0.219009 0.115762)
(10.3347 -0.131245 0.299642)
(12.2935 0.64504 -0.228626)
(10.1059 1.3313 -0.839957)
(10.5324 0.142856 0.0107987)
(12.3894 0.814975 -0.495618)
(10.5788 -0.0393713 0.101597)
(9.87624 0.179238 0.303465)
(10.6534 0.559931 0.0901748)
(10.0181 0.215771 0.0324244)
(10.2401 0.253268 0.376536)
(10.1851 0.00648551 -0.175331)
(10.0979 0.538624 -0.24639)
(8.07749 -0.445294 -0.954182)
(10.0899 -0.120094 -0.00157981)
(10.3943 0.16884 -0.00284596)
(9.91777 -0.0910603 0.0976236)
(14.3877 -4.83824 -1.43143)
(10.6835 -0.341185 0.706353)
(10.8454 0.073269 0.641422)
(6.8706 1.07548 0.638349)
(6.53263 1.04869 0.478641)
(10.0103 0.286028 0.0744211)
(9.9284 0.250156 0.605135)
(5.18094 0.823434 -0.192014)
(9.98702 -0.11172 -0.00956958)
(9.87579 -1.48632 -2.94869)
(10.5518 0.366686 1.48853)
(9.64832 -0.288726 -0.506989)
(10.2353 1.16806 1.31565)
(9.93027 0.132524 -0.01618)
(9.91338 0.12835 -0.0110456)
(10.131 -0.18553 0.11361)
(12.5539 0.233696 0.21384)
(9.58645 -0.0242446 0.660937)
(9.78849 -0.576631 0.163386)
(10.0073 -0.0508831 0.0424128)
(10.1871 0.599718 0.158211)
(9.86834 0.093364 0.106553)
(9.99363 0.0328178 -0.0110338)
(10.0791 0.102645 0.0198759)
(9.87169 0.0636702 0.115693)
(11.1656 0.276783 0.410773)
(9.62022 2.28292 -3.0217)
(14.4779 1.25144 -0.295403)
(10.4777 0.179026 0.00622808)
(10.0915 0.957613 1.3308)
(10.2724 0.0579099 0.162376)
(9.41513 -0.693497 0.291033)
(10.1458 -0.200764 0.0484595)
(10.0503 0.503703 0.0745608)
(10.2754 0.0571021 0.100976)
(10.1291 -0.015775 0.00301686)
(9.92595 0.0260881 0.348542)
(9.23793 0.292611 -0.710008)
(11.2007 0.0300282 0.156114)
(10.2676 -0.111349 0.105496)
(10.3627 -0.191497 0.0679484)
(12.0416 0.647513 1.29415)
(9.77752 0.00258809 0.0314465)
(7.79051 -5.73509 2.66244)
(12.6768 -0.795988 -2.23334)
(9.68506 -0.0659146 -0.0403143)
(9.5925 -0.214887 0.229835)
(10.4446 -0.295767 0.346244)
(10.0961 0.0667044 -0.0521044)
(8.6316 -3.36855 2.61182)
(9.99236 -0.227846 -0.0095671)
(9.99055 -5.55908 0.961441)
(10.133 0.0857813 0.11828)
(10.8249 0.0444857 0.74061)
(11.2956 0.334444 0.0819679)
(10.0245 -0.0753971 -0.0745387)
(9.82387 0.115411 -0.159464)
(10.5361 0.111186 -0.177934)
(8.7683 -0.436117 -1.76156)
(9.48679 0.0235846 -0.32245)
(10.1573 0.245963 0.402366)
(10.1935 -0.0164258 0.173786)
(11.2614 -0.0294391 0.662292)
(9.88855 -0.0282625 0.0242999)
(11.4118 0.302588 0.375723)
(10.287 -0.0532492 0.0617309)
(5.38776 5.59887 1.68398)
(11.2252 0.274107 0.155443)
(10.2147 -0.00214326 0.140598)
(11.2704 0.26953 0.280845)
(10.206 0.0317517 -0.259547)
(10.2126 0.182294 0.161628)
(10.2395 0.222524 0.297032)
(10.1164 0.165416 -0.00292683)
(11.4689 0.356528 0.257888)
(9.93311 0.00962273 0.0397903)
(10.2088 -0.282513 -0.017789)
(11.3365 0.320561 0.135947)
(10.0661 0.130302 0.191033)
(10.1573 0.134108 -0.148658)
(9.89489 0.0986897 0.0151602)
(9.93783 -0.00480671 0.000851566)
(6.85357 0.161975 -4.43654)
(6.75457 -0.325476 -4.93932)
(10.2618 0.071379 0.453904)
(8.85807 0.249996 -3.55782)
(9.70647 0.187894 -0.0263159)
(9.78867 0.0292671 -0.211438)
(10.5411 0.525093 -0.181033)
(10.0041 -0.347205 0.122607)
(9.80382 0.0442573 0.15881)
(10.3728 -0.00163429 0.151499)
(10.1443 -0.217394 0.118205)
(9.89266 0.204657 -0.124735)
(10.0807 0.0940128 -0.421559)
(5.25103 -0.0580853 -5.57561)
(8.24192 -0.644409 1.1649)
(9.89002 0.178775 -0.0823408)
(9.94515 0.0369669 -0.0662832)
(9.83762 -0.1353 -0.0749955)
(10.1106 0.00240065 -0.0958783)
(9.85206 -0.0505292 -0.155699)
(10.0562 0.225431 -0.0892783)
(10.6115 -0.261272 0.151562)
(10.7362 -1.53764 2.09363)
(10.1092 0.104434 -0.0693319)
(9.72539 -0.36891 0.448228)
(10.2483 0.132942 -0.00884377)
(9.98932 0.00409006 0.221017)
(9.88957 0.0978727 -0.0320282)
(10.1523 -0.0507243 -0.0860335)
(10.1044 0.0417196 0.0456491)
(10.0587 -0.00202267 -0.0699158)
(10.0344 -0.16582 -0.289627)
(10.2046 -0.229522 0.0866861)
(9.32107 -0.754822 -0.855269)
(5.11872 0.482112 -4.03422)
(9.90604 0.05154 -0.19254)
(-0.407455 -0.860394 0.981738)
(9.63578 -1.99507 1.04024)
(12.5711 -1.04698 -0.560802)
(0.00408129 -0.872588 0.547591)
(10.0577 0.432564 -0.103523)
(9.43398 -0.0311294 0.990032)
(10.2863 -0.376303 -2.12709)
(10.8732 -0.815736 0.442278)
(5.77996 0.368922 -3.05995)
(0.234876 0.791898 1.72042)
(1.36066 0.318341 -2.65533)
(10.7725 0.0574958 0.518544)
(10.1888 0.162613 0.0830682)
(10.7793 -0.0240402 1.1008)
(10.1595 -0.0418403 0.32555)
(4.08115 -0.175113 0.420426)
(10.5949 0.0495563 -0.214157)
(10.442 -0.0364085 -0.0428003)
(9.86522 -0.0358429 -0.0953655)
(10.243 -0.03586 0.0675944)
(10.7268 0.155312 0.739895)
(9.49617 -0.110942 -0.597811)
(10.2519 0.244009 -0.26001)
(10.144 -0.0569468 -0.253018)
(-2.06478 0.527707 0.11626)
(8.21397 0.221057 -1.94446)
(10.3778 -0.0698412 -0.142191)
(10.0811 -0.319069 -0.110452)
(5.38865 0.451286 -1.63851)
(6.11369 0.218474 -2.35141)
(9.72906 0.471754 -1.30437)
(1.22682 -3.43382 -0.91864)
(8.33883 0.355261 0.889626)
(4.61636 0.296654 -3.07343)
(4.27222 0.203768 -3.98006)
(10.2715 0.0991094 -0.0278981)
(9.87575 0.00577025 -0.451031)
(9.63053 -0.0242633 0.171005)
(9.90349 -0.0906913 -0.0689079)
(10.298 0.00777862 -0.145103)
(-0.212318 1.5141 0.96518)
(10.6408 -0.00116946 -0.172901)
(10.412 -0.00749361 0.120902)
(10.1833 -0.0651964 -0.128087)
(10.1014 -0.0265042 -0.0896971)
(-0.257527 1.26519 1.11619)
(0.271738 0.94765 1.48732)
(9.60713 -0.122736 0.182197)
(10.2344 -0.0581507 0.20819)
(9.9791 0.0187502 -0.0267746)
(10.0102 0.00357511 0.0872242)
(10.202 -0.167721 0.111542)
(10.0427 -0.0349154 -0.0506078)
(9.73874 -0.0557314 -0.0100041)
(10.0646 -0.0189152 0.0227322)
(9.95875 0.0802251 0.062913)
(6.88178 -0.530907 -2.45262)
(9.711 0.123047 -0.0659881)
(9.84462 0.0858555 0.0309083)
(9.98084 -0.247306 0.228955)
(10.1282 0.179218 -0.0472013)
(9.93111 -0.050871 0.0161978)
(4.12953 -0.423555 -1.72441)
(12.0886 -1.00165 0.20751)
(9.91575 -0.102686 0.119169)
(10.4238 0.462839 -0.167085)
(10.0837 -0.0707507 -0.1858)
(9.68103 -0.404951 0.221711)
(9.62061 -0.283517 0.338999)
(11.3839 0.0445504 0.00599565)
(10.0573 0.125282 -0.00174289)
(-1.62148 0.824745 2.71449)
(11.6224 -0.0992619 0.0804016)
(10.2397 -0.00816316 -0.0608409)
(10.4843 0.20113 -0.104811)
(8.11537 0.259998 -2.81664)
(14.8945 0.128884 -0.499512)
(9.99861 0.0452116 0.202791)
(10.1343 0.0902953 0.16224)
(12.4468 0.884189 1.27209)
(9.75661 0.152079 -0.322092)
(10.0734 -0.12469 -0.0312866)
(10.9866 0.109581 0.380012)
(10.0695 0.169568 0.0564507)
(9.62035 0.27417 -0.257483)
(3.53897 -1.5855 -4.53798)
(11.6836 -0.742125 0.538623)
(14.0715 1.44764 0.876219)
(10.1384 0.02236 0.035332)
(7.85996 0.345405 -2.05793)
(9.99925 -0.295767 0.0680816)
(10.8696 -0.979548 -0.201128)
(9.64797 -0.285404 0.484113)
(11.4306 0.00417763 0.03591)
(10.3084 0.535152 0.140236)
(9.5868 -0.260303 0.478096)
(5.42147 1.1477 -3.521)
(12.6279 0.937289 1.61868)
(11.8171 -0.294531 -0.588494)
(-1.92792 0.953897 1.74391)
(11.3273 0.105499 0.284772)
(10.2366 -0.0763039 0.115753)
(10.4658 0.157316 -0.0617755)
(11.0948 1.01214 -0.125195)
(9.99124 0.025167 0.302403)
(11.5865 -0.0170201 0.225318)
(0.477698 -0.859933 1.65827)
(9.98397 0.105026 0.205423)
(12.2022 0.0189575 -0.796216)
(9.89739 -0.129533 0.0284154)
(9.73149 -0.0611343 -0.0480871)
(11.4226 -1.80781 2.20051)
(9.86416 -0.0554916 -0.196009)
(10.2408 -0.00483617 0.154753)
(8.84853 -5.48216 0.694327)
(9.60444 0.384575 0.160917)
(9.57774 -0.293643 -0.0342767)
(11.7504 -0.590743 0.521282)
(9.94552 0.880492 0.980179)
(9.95084 -0.0433281 -0.0128516)
(11.9123 -1.65909 -0.164539)
(5.61437 -0.572298 0.491167)
(10.3122 0.0913957 0.321125)
(9.6285 -0.641126 -0.55089)
(10.0924 -0.0382078 0.227653)
(10.0624 0.178693 0.118823)
(10.0634 -0.305529 -0.440988)
(10.2254 -0.28216 0.0981095)
(6.60651 0.965784 -1.60483)
(-0.998796 0.87551 -0.488472)
(10.9111 0.302463 -0.706733)
(9.75694 -0.606379 -0.0363514)
(10.6316 -1.88016 0.063058)
(5.57011 3.17202 -1.05776)
(4.39906 0.0678299 -0.524824)
(10.6971 -3.12307 4.27285)
(10.1173 0.00549306 0.220584)
(10.0572 0.298863 0.0561476)
(9.33801 0.0181154 0.517371)
(10.0039 0.0186619 0.176833)
(8.36671 0.294826 -0.316614)
(9.58943 -0.352702 0.347145)
(9.47773 -0.37331 1.32115)
(9.67695 0.504312 0.638609)
(-1.18119 -0.698296 0.213739)
(11.5523 -0.018366 0.10216)
(9.95214 0.473063 0.123365)
(10.28 -0.00779754 0.0626676)
(9.96212 -0.0574431 -0.0566019)
(10.3682 -0.0119607 -0.35866)
(6.27534 -1.56873 -2.70475)
(9.95174 0.21095 0.327953)
(7.41139 4.33985 -0.571438)
(10.002 0.00545152 -0.064911)
(10.0807 -0.420982 -2.60315)
(10.1623 -0.116766 0.093966)
(10.3573 0.0651437 0.115564)
(10.3131 0.214475 0.429658)
(10.3537 0.0628607 0.116257)
(9.52033 0.123712 -0.459363)
(12.3926 -0.285195 -0.561678)
(11.8188 -0.0239321 -0.190209)
(9.4635 0.915913 2.64741)
(7.78966 3.81689 2.84415)
(9.61725 0.887506 0.604276)
(10.1775 0.448752 0.0229674)
(11.0085 0.393683 0.197693)
(6.47551 -0.153241 -2.38523)
(10.2018 -0.0599172 -0.0502154)
(10.0939 -0.0117192 0.0687909)
(9.96986 -0.250223 0.219122)
(11.3371 0.00310853 -0.0623259)
(11.2463 0.362188 4.96445)
(8.86093 -0.295944 1.19821)
(10.1792 -0.218224 0.0908439)
(10.013 0.38404 -0.0196598)
(9.61148 0.763367 -0.177367)
(10.2508 -0.120548 0.00254407)
(10.1241 0.254247 -0.0650787)
(14.8748 -1.37853 0.84451)
(11.6418 -0.291007 0.91126)
(2.63499 3.91948 -0.929376)
(10.1586 -0.421613 0.315392)
(11.3302 -0.65482 -0.12222)
(10.312 -0.908314 -0.888455)
(12.536 -0.0172146 -3.49257)
(9.87641 0.00829637 0.401174)
(1.34371 -0.392985 -3.54842)
(10.1875 -0.104914 -0.214709)
(10.0969 0.0359925 -0.106081)
(10.5843 -0.200041 0.781928)
(12.1881 0.514252 5.11207)
(10.0093 -0.0525671 0.165141)
(9.95957 0.144166 -0.502715)
(10.0708 -0.206482 0.0220483)
(10.6346 -0.726091 0.67373)
(10.6119 0.0465428 0.994425)
(10.1165 0.0714713 -0.0791316)
(10.7903 -0.242948 -2.5577)
(9.65037 -0.984457 -2.4346)
(12.3448 0.0129976 -0.272441)
(10.1104 0.284731 -0.176322)
(9.54125 0.390709 -0.0314089)
(3.26318 0.677628 -3.06117)
(0.962771 -1.23851 3.40221)
(5.69675 2.91078 1.18857)
(12.672 -0.655318 -2.09702)
(7.01363 -0.330636 -0.0625052)
(10.1365 -0.0349739 0.00374655)
(10.0455 0.365143 -0.207886)
(8.83377 1.21778 3.12886)
(9.92461 -0.231736 0.124458)
(4.74054 -0.455324 0.503437)
(9.8006 -0.249666 -0.16402)
(9.87914 0.00826918 -0.0480916)
(-3.58604 3.49706 -0.243943)
(9.79278 -0.848924 0.914838)
(10.6068 -0.186197 0.0927598)
(10.0668 -0.172346 0.313474)
(8.96655 0.148444 -0.16952)
(8.41731 0.237386 -2.33154)
(9.80456 0.534597 0.344222)
(9.96328 0.0722026 0.0853074)
(10.2876 0.386881 0.819705)
(11.9501 -0.576714 -2.29193)
(10.2442 0.179112 0.185636)
(9.93828 0.232667 -0.194019)
(9.71217 -0.176508 -0.087659)
(9.82583 0.448498 -0.327383)
(9.87147 -0.0511277 -0.167891)
(11.5124 -0.590649 -1.47221)
(10.9821 -0.174938 -0.124578)
(8.69715 -0.0144872 0.37343)
(9.82877 -0.671256 0.514796)
(9.68367 -0.139713 -0.0928233)
(9.86725 -0.199698 -0.0563022)
(9.67272 -0.0286632 0.36906)
(9.73242 -0.151177 0.236793)
(10.3868 0.580564 0.317811)
(11.4094 -0.846645 -0.17232)
(13.9677 -0.174502 1.64984)
(10.9726 -0.0206538 0.44147)
(11.4493 -0.460144 -1.0278)
(10.1591 -0.13882 -0.376417)
(2.89026 -2.83941 -1.97884)
(9.81915 -0.0213282 -0.145815)
(9.92979 -0.202208 -0.217076)
(9.83285 -0.10925 0.0709294)
(13.3353 -0.571857 2.26339)
(0.236838 3.29296 0.0786758)
(5.80416 4.29084 -1.22257)
(-0.399697 1.43362 0.512492)
(10.058 -0.57209 -0.424926)
(11.1415 -0.583711 0.557808)
(7.24182 -0.492517 2.18702)
(-0.404094 1.47161 0.951592)
(11.0929 -0.449485 -0.199025)